Title
81352
    1CHL1    C3    1   1.884   4.902  10.287  0.1797 -0.6185 -0.0084
    1CHL1    H3    2   1.773   4.893  10.293 -0.1377  2.2643  0.0426
    1CHL1    O3    3   1.937   4.905  10.415 -0.0832  0.1730  0.0647
    1CHL1   H3'    4   2.031   4.917  10.399  0.2773 -1.5559  0.6680
    1CHL1    C4    5   1.942   4.780  10.214 -0.6925 -0.0259  0.3244
    1CHL1   H4A    6   2.051   4.779  10.238  0.0498 -0.2882 -2.6668
    1CHL1   H4B    7   1.917   4.682  10.260  0.0831  0.1005  1.0376
    1CHL1    C5    8   1.921   4.792  10.063 -0.3713  0.7358 -0.7091
    1CHL1    C6    9   1.864   4.688  10.003  0.3563 -0.0476  0.3770
    1CHL1    H6   10   1.839   4.599  10.061  1.1291  0.0160  0.8262
    1CHL1    C7   11   1.838   4.672   9.856  0.0281  0.7188 -0.4874
    1CHL1   H7A   12   1.854   4.572   9.812 -0.6642  0.5274 -0.3180
    1CHL1   H7B   13   1.731   4.691   9.830 -0.4725 -2.7500 -1.4099
    1CHL1    C8   14   1.909   4.787   9.783 -0.4203  0.1621  0.7726
    1CHL1    H8   15   2.014   4.755   9.770 -1.3309 -1.9268 -2.6965
    1CHL1   C14   16   1.839   4.818   9.642  0.6144  0.8978  0.3929
    1CHL1   H14   17   1.743   4.867   9.670 -0.8716 -0.8764 -1.3194
    1CHL1   C15   18   1.801   4.695   9.563  0.2852  0.4115 -0.1965
    1CHL1  H15A   19   1.885   4.623   9.570  0.0473 -0.2335 -2.8922
    1CHL1  H15B   20   1.710   4.636   9.588 -0.3164  0.1391 -2.7024
    1CHL1   C16   21   1.794   4.754   9.418  0.0142  0.2795 -0.4672
    1CHL1  H16A   22   1.870   4.710   9.350  0.1441 -1.4521  0.7347
    1CHL1  H16B   23   1.700   4.725   9.365  0.2506  1.9087 -1.8623
    1CHL1   C17   24   1.821   4.904   9.437 -0.1774  0.0711  1.2178
    1CHL1   H17   25   1.717   4.940   9.452 -0.2811  0.2555  0.1918
    1CHL1   C13   26   1.912   4.918   9.557 -0.1640 -0.2419 -0.7031
    1CHL1   C18   27   2.058   4.875   9.529 -0.3455  0.2855  0.3343
    1CHL1  H18A   28   2.114   4.882   9.624  0.2999  0.8398 -0.0779
    1CHL1  H18B   29   2.048   4.770   9.494 -1.4989  1.0216 -1.6958
    1CHL1  H18C   30   2.115   4.940   9.460  0.2015  2.8193  3.0014
    1CHL1   C12   31   1.900   5.053   9.629  0.1418  0.5125  0.1620
    1CHL1  H12A   32   1.942   5.138   9.572  0.6276 -0.2197 -0.6007
    1CHL1  H12B   33   1.792   5.079   9.627  0.2222  0.7980 -1.6994
    1CHL1   C11   34   1.954   5.049   9.775  0.6467  0.1651 -0.3771
    1CHL1  H11A   35   2.063   5.033   9.762  0.5158 -0.0648 -1.3015
    1CHL1  H11B   36   1.921   5.144   9.821 -3.5214 -1.5572  0.6796
    1CHL1    C9   37   1.899   4.923   9.855  0.4329  0.1463  0.3809
    1CHL1    H9   38   1.794   4.955   9.873  1.3815  3.0965  1.2331
    1CHL1   C10   39   1.962   4.923   9.996 -0.4161 -0.2020 -0.2529
    1CHL1   C19   40   2.119   4.915   9.978  0.0461  0.1844  0.4491
    1CHL1  H19A   41   2.151   4.917  10.085  1.4718 -1.1080  0.0880
    1CHL1  H19B   42   2.148   4.822   9.925 -1.1546  1.0991 -1.9153
    1CHL1  H19C   43   2.153   5.008   9.927 -1.2824  1.2306  1.3982
    1CHL1    C1   44   1.905   5.042  10.081 -0.1719  1.1328  0.6215
    1CHL1   H1A   45   1.930   5.141  10.038 -0.1255  0.9146  0.1449
    1CHL1   H1B   46   1.794   5.041  10.082 -0.2540  2.3022 -1.5370
    1CHL1    C2   47   1.928   5.029  10.231 -1.1316 -0.0055  0.8248
    1CHL1   H2A   48   1.873   5.114  10.278  0.3761  1.2379  0.4023
    1CHL1   H2B   49   2.035   5.052  10.245 -1.0853 -0.0477  0.5355
    1CHL1   C20   50   1.863   4.976   9.306 -0.1210  0.0811  0.0064
    1CHL1   H20   51   1.973   4.969   9.296 -0.1677  0.2648 -0.6475
    1CHL1   C21   52   1.843   5.129   9.310  0.4350 -0.7317 -0.2608
    1CHL1  H21A   53   1.913   5.161   9.230  1.4487 -1.8589  0.1386
    1CHL1  H21B   54   1.874   5.189   9.398 -1.9891  1.6151 -0.8834
    1CHL1  H21C   55   1.739   5.162   9.289  0.5308  2.0617  2.8319
    1CHL1   C22   56   1.799   4.919   9.170 -0.1715 -0.2188 -0.8232
    1CHL1  H22A   57   1.826   4.812   9.159  0.3386  0.0689 -2.5649
    1CHL1  H22B   58   1.688   4.918   9.174 -0.3024 -0.7140 -3.3485
    1CHL1   C23   59   1.838   4.975   9.037 -0.2816 -0.4058 -0.0311
    1CHL1  H23A   60   1.826   5.085   9.046  0.5434 -0.0064 -2.7924
    1CHL1  H23B   61   1.948   4.965   9.023 -0.2210  1.7232 -1.7212
    1CHL1   C24   62   1.762   4.913   8.915 -0.2868 -0.0485 -0.3826
    1CHL1  H24A   63   1.767   4.802   8.914 -0.1446 -0.0476 -0.0699
    1CHL1  H24B   64   1.654   4.941   8.917 -0.6594 -1.3843  1.2650
    1CHL1   C25   65   1.818   4.974   8.784 -0.5163  0.1352  0.1325
    1CHL1   H25   66   1.928   4.977   8.795 -0.5514 -0.2045  0.6137
    1CHL1   C26   67   1.793   4.869   8.673 -0.1349  0.3702 -0.3158
    1CHL1  H26A   68   1.843   4.772   8.697 -0.6028  0.5789  1.6643
    1CHL1  H26B   69   1.687   4.859   8.639 -1.0603  2.9449  1.4731
    1CHL1  H26C   70   1.840   4.904   8.579 -1.3641  1.9692 -0.3744
    1CHL1   C27   71   1.758   5.113   8.742 -0.1370  0.2981 -0.3373
    1CHL1  H27A   72   1.804   5.165   8.655  0.9406  0.5149  0.3468
    1CHL1  H27B   73   1.648   5.108   8.722 -0.0352 -5.1699 -1.0587
    1CHL1  H27C   74   1.777   5.177   8.831 -0.5153 -1.3500  0.9933
    2CHL1    C3   75   0.851   1.526  10.118 -0.1268 -0.7711  0.1768
    2CHL1    H3   76   0.958   1.546  10.094 -0.0575 -0.4834  0.7146
    2CHL1    O3   77   0.845   1.585  10.249 -0.3214 -0.3663  0.0562
    2CHL1   H3'   78   0.756   1.564  10.278  0.3762 -2.4410  0.9265
    2CHL1    C4   79   0.747   1.585  10.022  0.4021  0.6670  0.5722
    2CHL1   H4A   80   0.652   1.576  10.078 -0.9144 -0.0789 -1.6477
    2CHL1   H4B   81   0.763   1.694  10.017  2.6554  0.3459 -0.6224
    2CHL1    C5   82   0.755   1.524   9.881  0.1141  0.0439  0.3084
    2CHL1    C6   83   0.763   1.592   9.766  1.2196 -0.1199 -0.1028
    2CHL1    H6   84   0.778   1.701   9.772  2.8181 -0.1481 -2.3526
    2CHL1    C7   85   0.757   1.539   9.624  0.0189 -0.8245  0.1805
    2CHL1   H7A   86   0.708   1.615   9.559 -1.2392 -1.2109  0.6319
    2CHL1   H7B   87   0.860   1.538   9.584  0.7483  0.1068  1.9051
    2CHL1    C8   88   0.708   1.391   9.627 -0.0208 -0.5871  0.2210
    2CHL1    H8   89   0.597   1.397   9.632  0.0105  0.1620  0.1939
    2CHL1   C14   90   0.758   1.318   9.503  0.1558  0.3439  0.4216
    2CHL1   H14   91   0.869   1.319   9.508  0.4214  0.5747 -3.0734
    2CHL1   C15   92   0.729   1.381   9.372 -0.1755  0.0375 -0.0279
    2CHL1  H15A   93   0.621   1.403   9.364 -0.4831 -1.0671  0.8270
    2CHL1  H15B   94   0.778   1.478   9.347  1.3255 -0.4042  1.0490
    2CHL1   C16   95   0.756   1.270   9.269 -0.1216 -0.3701 -0.6664
    2CHL1  H16A   96   0.659   1.259   9.218 -0.0050 -0.4917 -0.8632
    2CHL1  H16B   97   0.841   1.292   9.200 -1.4611  0.5050 -2.1127
    2CHL1   C17   98   0.778   1.139   9.351  0.1144 -0.4718 -0.2249
    2CHL1   H17   99   0.888   1.141   9.366 -0.0076 -1.7043  1.0555
    2CHL1   C13  100   0.720   1.166   9.485 -0.7763  0.2215 -0.0091
    2CHL1   C18  101   0.564   1.160   9.491 -0.3602  0.6018  0.5217
    2CHL1  H18A  102   0.532   1.055   9.477 -0.3984  0.5840  0.7399
    2CHL1  H18B  103   0.520   1.189   9.589 -1.1209  1.2634  0.0001
    2CHL1  H18C  104   0.519   1.220   9.409  0.4809 -0.2092 -0.5472
    2CHL1   C12  105   0.784   1.087   9.608  0.8537  0.1319  0.0692
    2CHL1  H12A  106   0.746   0.983   9.610 -1.2492  0.7327 -2.5627
    2CHL1  H12B  107   0.887   1.076   9.568 -0.4955 -0.3311 -3.6267
    2CHL1   C11  108   0.750   1.153   9.740  0.3543  0.6521  0.4041
    2CHL1  H11A  109   0.644   1.130   9.766 -0.3354  3.0733 -0.0283
    2CHL1  H11B  110   0.807   1.105   9.822 -0.9735  0.4029  1.2127
    2CHL1    C9  111   0.768   1.313   9.747 -0.0752  0.4762 -1.1158
    2CHL1    H9  112   0.878   1.327   9.732  0.5327 -0.3798  1.8575
    2CHL1   C10  113   0.740   1.372   9.888  0.2673 -0.9399 -0.4190
    2CHL1   C19  114   0.593   1.343   9.921  0.6550 -0.5275 -0.0810
    2CHL1  H19A  115   0.570   1.397  10.016  0.5300 -0.8789  0.0925
    2CHL1  H19B  116   0.527   1.375   9.838  0.3845 -1.5145 -0.2626
    2CHL1  H19C  117   0.567   1.236   9.938  0.5223 -0.6144 -0.8023
    2CHL1    C1  118   0.845   1.318   9.991  0.1575  0.5635  0.5639
    2CHL1   H1A  119   0.840   1.207   9.994 -0.8505  0.6193  2.3209
    2CHL1   H1B  120   0.949   1.326   9.953  0.6869 -0.4232  1.6996
    2CHL1    C2  121   0.836   1.379  10.133  0.4935  0.0229  0.0724
    2CHL1   H2A  122   0.918   1.329  10.190  0.7751  0.0998 -0.2618
    2CHL1   H2B  123   0.739   1.357  10.183  1.1851  0.2047  1.5483
    2CHL1   C20  124   0.745   1.009   9.275 -0.3679 -0.5297  0.1436
    2CHL1   H20  125   0.742   0.934   9.357 -0.1181  1.0374  1.6650
    2CHL1   C21  126   0.857   0.967   9.174 -0.3599 -0.1390 -0.1202
    2CHL1  H21A  127   0.849   0.861   9.142 -1.0388  0.7565 -3.2735
    2CHL1  H21B  128   0.951   0.982   9.231 -0.3180  0.7957 -0.4206
    2CHL1  H21C  129   0.854   1.033   9.085  0.4076  0.5059  0.3268
    2CHL1   C22  130   0.604   1.010   9.200  0.3370  0.3678 -0.8177
    2CHL1  H22A  131   0.518   1.049   9.258  1.7255  0.3720  1.3716
    2CHL1  H22B  132   0.594   1.074   9.110 -2.1470  0.5534 -0.4780
    2CHL1   C23  133   0.569   0.870   9.148  0.3751 -0.2396 -0.7121
    2CHL1  H23A  134   0.655   0.838   9.085  1.0487 -0.6125  0.3639
    2CHL1  H23B  135   0.550   0.815   9.243 -1.5623  2.3467  0.5197
    2CHL1   C24  136   0.445   0.883   9.058  0.1093  0.2949  0.5430
    2CHL1  H24A  137   0.353   0.910   9.114 -2.7956 -0.8172 -3.2369
    2CHL1  H24B  138   0.469   0.947   8.970 -2.5738  0.7229  0.0423
    2CHL1   C25  139   0.404   0.754   8.985 -0.2585  0.9342 -0.5088
    2CHL1   H25  140   0.490   0.726   8.921  1.7866  1.2220  1.9484
    2CHL1   C26  141   0.377   0.641   9.080  0.1335 -0.6214  0.1894
    2CHL1  H26A  142   0.322   0.554   9.039  0.2875  0.0799 -1.5686
    2CHL1  H26B  143   0.471   0.594   9.116  0.3067 -0.2887  0.1732
    2CHL1  H26C  144   0.326   0.681   9.170 -0.2968  1.7219 -1.0353
    2CHL1   C27  145   0.278   0.771   8.897 -0.3467 -0.4275  0.4869
    2CHL1  H27A  146   0.247   0.674   8.853 -1.4015 -1.2506  2.8798
    2CHL1  H27B  147   0.189   0.808   8.952 -2.7604 -1.4637 -2.4632
    2CHL1  H27C  148   0.300   0.846   8.818  0.7079 -0.0493  1.1199
    3CHL1    C3  149   1.225   1.246  10.176 -0.4161 -0.0335 -0.8050
    3CHL1    H3  150   1.114   1.237  10.173 -0.2894 -2.4607 -0.6403
    3CHL1    O3  151   1.274   1.200  10.301  0.4909 -0.2412 -0.0990
    3CHL1   H3'  152   1.270   1.104  10.294 -1.5793 -0.1299 -1.3105
    3CHL1    C4  153   1.275   1.156  10.061 -0.3221  0.3593  0.4149
    3CHL1   H4A  154   1.386   1.154  10.064 -0.3569 -0.3774  1.4357
    3CHL1   H4B  155   1.239   1.053  10.077 -1.3681  0.9152  1.8739
    3CHL1    C5  156   1.239   1.211   9.925 -0.6664  0.4521 -0.5766
    3CHL1    C6  157   1.173   1.131   9.839 -0.2600 -0.0062  0.3829
    3CHL1    H6  158   1.143   1.030   9.870  0.7600  0.6189  3.8615
    3CHL1    C7  159   1.147   1.177   9.702  0.1299  0.3486 -0.4242
    3CHL1   H7A  160   1.168   1.090   9.636  1.5993 -1.1118  1.8128
    3CHL1   H7B  161   1.038   1.197   9.692 -0.4966 -1.1619  2.4716
    3CHL1    C8  162   1.217   1.304   9.661 -0.1473 -0.8888  0.0315
    3CHL1    H8  163   1.320   1.267   9.643 -0.3151 -1.4600  0.2288
    3CHL1   C14  164   1.171   1.366   9.534  0.1742  0.4485  0.2006
    3CHL1   H14  165   1.063   1.389   9.545  0.2223  0.7821 -0.0097
    3CHL1   C15  166   1.167   1.266   9.413  0.2687 -0.1454  0.8217
    3CHL1  H15A  167   1.264   1.212   9.404  0.6346  0.6058  0.1436
    3CHL1  H15B  168   1.082   1.195   9.402 -0.8300  1.3694 -1.1639
    3CHL1   C16  169   1.148   1.362   9.293 -0.2137  0.2622  0.1876
    3CHL1  H16A  170   1.235   1.336   9.229  0.5343  3.8065 -0.4731
    3CHL1  H16B  171   1.047   1.354   9.247  0.1069 -1.0054 -0.3149
    3CHL1   C17  172   1.172   1.511   9.343 -0.3585  0.5283 -0.1368
    3CHL1   H17  173   1.077   1.559   9.374 -0.2956 -0.0371  0.9625
    3CHL1   C13  174   1.239   1.495   9.483  0.0592 -0.0966 -0.3881
    3CHL1   C18  175   1.390   1.470   9.456  0.4724  0.3903 -0.4355
    3CHL1  H18A  176   1.403   1.388   9.382 -1.5695 -1.2462  0.9145
    3CHL1  H18B  177   1.437   1.565   9.422 -1.6599  1.9139  0.5692
    3CHL1  H18C  178   1.439   1.441   9.551  1.7543  1.3781 -0.7763
    3CHL1   C12  179   1.217   1.603   9.597 -1.1269  0.3346  0.8990
    3CHL1  H12A  180   1.273   1.696   9.573 -2.8241  1.1258 -0.2781
    3CHL1  H12B  181   1.108   1.619   9.613 -1.8146 -1.0148 -1.7210
    3CHL1   C11  182   1.266   1.554   9.736  0.2451  0.4152 -0.0701
    3CHL1  H11A  183   1.376   1.553   9.721  0.1147  1.8161 -1.4452
    3CHL1  H11B  184   1.239   1.635   9.807 -1.7152  0.3466 -0.6721
    3CHL1    C9  185   1.218   1.409   9.773  0.8351  0.1619  0.4661
    3CHL1    H9  186   1.111   1.429   9.794  0.1329 -1.6146 -1.1515
    3CHL1   C10  187   1.279   1.355   9.899  0.4185 -0.5017 -0.0545
    3CHL1   C19  188   1.427   1.378   9.894  0.1711  0.3176  0.6255
    3CHL1  H19A  189   1.447   1.485   9.912  1.5752  0.1302  0.3048
    3CHL1  H19B  190   1.482   1.325   9.975 -1.0720 -1.7565  0.2055
    3CHL1  H19C  191   1.483   1.344   9.804 -0.9695  0.3626 -0.1214
    3CHL1    C1  192   1.237   1.449  10.018 -0.1940  0.0452 -0.1322
    3CHL1   H1A  193   1.262   1.555   9.996  2.9918 -0.9358 -1.9163
    3CHL1   H1B  194   1.127   1.456  10.018 -0.2298 -0.2660 -1.6138
    3CHL1    C2  195   1.269   1.389  10.158  0.8919 -0.5523 -0.6307
    3CHL1   H2A  196   1.213   1.460  10.223 -0.1089  0.7954 -2.8277
    3CHL1   H2B  197   1.379   1.401  10.169  0.4929  1.8675  1.8505
    3CHL1   C20  198   1.238   1.587   9.231  0.1346  0.1770 -0.5362
    3CHL1   H20  199   1.337   1.541   9.214  0.1438 -1.7444  3.5556
    3CHL1   C21  200   1.249   1.736   9.281  0.0980  0.0279  0.0286
    3CHL1  H21A  201   1.146   1.765   9.308  0.1731 -1.1082  1.7348
    3CHL1  H21B  202   1.294   1.796   9.199 -0.6754  3.0158  1.6780
    3CHL1  H21C  203   1.308   1.746   9.375  0.0268 -2.4707  0.4051
    3CHL1   C22  204   1.157   1.582   9.106  0.1718  0.0995 -0.0541
    3CHL1  H22A  205   1.149   1.481   9.060  1.1007  0.8380 -1.9619
    3CHL1  H22B  206   1.057   1.630   9.108  1.6289  3.3707  0.5261
    3CHL1   C23  207   1.225   1.663   8.992  0.3733 -0.5263 -0.8577
    3CHL1  H23A  208   1.182   1.763   9.017 -0.4182 -1.1971  0.6300
    3CHL1  H23B  209   1.335   1.655   9.003  0.0914 -1.3928  2.3159
    3CHL1   C24  210   1.198   1.615   8.855 -0.1521  0.1983  0.2958
    3CHL1  H24A  211   1.216   1.505   8.854  1.6571  0.4504 -1.4212
    3CHL1  H24B  212   1.088   1.618   8.838 -0.0231  0.5642 -0.4813
    3CHL1   C25  213   1.262   1.701   8.746 -0.5576  0.1514 -0.2553
    3CHL1   H25  214   1.242   1.809   8.760  0.8740  0.2695  1.1582
    3CHL1   C26  215   1.413   1.702   8.747  0.6650  0.5127  0.1855
    3CHL1  H26A  216   1.457   1.749   8.657  1.5852 -1.3211 -0.3804
    3CHL1  H26B  217   1.448   1.741   8.845  1.2525 -2.0983  1.1051
    3CHL1  H26C  218   1.454   1.599   8.749  0.5242  0.4100 -1.2314
    3CHL1   C27  219   1.218   1.653   8.608 -0.3621  0.0325  0.2573
    3CHL1  H27A  220   1.246   1.724   8.527 -2.2638  1.4768  0.7933
    3CHL1  H27B  221   1.268   1.557   8.584 -0.2140  0.4642 -1.2422
    3CHL1  H27C  222   1.109   1.634   8.607 -0.6054  1.2542  1.2727
    4CHL1    C3  223   2.582   2.281  10.351 -0.6849  0.2521 -0.8459
    4CHL1    H3  224   2.580   2.171  10.334  1.8677  0.1991 -1.3255
    4CHL1    O3  225   2.550   2.303  10.486 -0.4826  0.0237 -0.4509
    4CHL1   H3'  226   2.539   2.399  10.488 -0.9441 -0.0215 -0.6933
    4CHL1    C4  227   2.722   2.339  10.316 -0.7050 -0.4109 -0.1672
    4CHL1   H4A  228   2.721   2.443  10.354  1.4786  0.8128 -3.0782
    4CHL1   H4B  229   2.788   2.290  10.391 -0.4787 -0.6680 -0.5306
    4CHL1    C5  230   2.758   2.327  10.167  0.2053 -0.5077  0.0919
    4CHL1    C6  231   2.868   2.259  10.135 -0.0272 -0.5279 -1.1089
    4CHL1    H6  232   2.932   2.222  10.216 -1.1985  2.3040  1.3066
    4CHL1    C7  233   2.915   2.240   9.990 -0.1880  0.6939  0.0113
    4CHL1   H7A  234   3.021   2.273   9.991 -0.3605  1.3641  2.2186
    4CHL1   H7B  235   2.894   2.133   9.968  0.9216  0.2507  0.9973
    4CHL1    C8  236   2.844   2.330   9.891 -0.0616 -0.3569  0.3103
    4CHL1    H8  237   2.881   2.435   9.897 -2.9807  0.7260  1.2896
    4CHL1   C14  238   2.867   2.276   9.754 -0.2171  0.5196  0.2943
    4CHL1   H14  239   2.813   2.179   9.746  2.3387 -1.0665  1.1794
    4CHL1   C15  240   3.013   2.256   9.709 -0.4107  0.0703 -0.1395
    4CHL1  H15A  241   3.064   2.350   9.740  0.0049 -0.5439  1.0911
    4CHL1  H15B  242   3.067   2.173   9.758  0.9734  0.7393 -0.4819
    4CHL1   C16  243   2.994   2.249   9.561  0.0872  0.2750  0.6512
    4CHL1  H16A  244   3.067   2.316   9.512 -0.5693  1.9865  1.9182
    4CHL1  H16B  245   3.004   2.142   9.531 -2.0762  0.1424  0.2423
    4CHL1   C17  246   2.846   2.296   9.519  0.0987 -0.4516  0.2791
    4CHL1   H17  247   2.786   2.202   9.518 -0.8166  0.1187  0.0993
    4CHL1   C13  248   2.798   2.362   9.647  1.0683 -1.0179  0.4966
    4CHL1   C18  249   2.856   2.505   9.643  0.4208  0.3660  0.7362
    4CHL1  H18A  250   2.851   2.562   9.739  0.3177 -0.5084  1.2654
    4CHL1  H18B  251   2.961   2.509   9.607  0.7173  0.2555  1.5580
    4CHL1  H18C  252   2.799   2.570   9.573  0.2186  0.0184  0.5819
    4CHL1   C12  253   2.647   2.364   9.672 -0.1225 -0.0467  0.0183
    4CHL1  H12A  254   2.587   2.429   9.605 -0.1464 -1.1890 -1.1101
    4CHL1  H12B  255   2.598   2.271   9.636 -0.6433 -0.2302  1.1476
    4CHL1   C11  256   2.609   2.419   9.806 -0.0777  0.2302 -0.4746
    4CHL1  H11A  257   2.626   2.528   9.813 -1.5312  0.4208  0.7252
    4CHL1  H11B  258   2.499   2.409   9.814 -0.1027  1.0878  0.4990
    4CHL1    C9  259   2.689   2.343   9.918  0.1080  0.6819  0.3729
    4CHL1    H9  260   2.653   2.239   9.904 -0.8403  1.3193 -2.6095
    4CHL1   C10  261   2.654   2.371  10.063 -0.1285  0.5346  0.0333
    4CHL1   C19  262   2.653   2.524  10.083  0.7604  0.6227  0.0334
    4CHL1  H19A  263   2.747   2.568  10.043  1.6781  1.7792  3.0924
    4CHL1  H19B  264   2.559   2.550  10.031 -0.2394 -0.1714  1.3699
    4CHL1  H19C  265   2.637   2.547  10.191  0.3264  0.6736 -0.0398
    4CHL1    C1  266   2.510   2.319  10.115 -0.0544 -0.2256  0.4024
    4CHL1   H1A  267   2.437   2.347  10.036  1.8757 -0.1092 -1.4331
    4CHL1   H1B  268   2.521   2.208  10.108 -1.6873 -0.4218  0.4531
    4CHL1    C2  269   2.476   2.339  10.262 -0.5330  0.4398  0.4961
    4CHL1   H2A  270   2.371   2.305  10.277 -0.5506 -0.2051 -0.9069
    4CHL1   H2B  271   2.469   2.444  10.297  0.3843  0.1748  1.5163
    4CHL1   C20  272   2.836   2.369   9.380  0.0896 -0.2530  0.9548
    4CHL1   H20  273   2.855   2.478   9.390 -0.8715  0.1368 -1.0998
    4CHL1   C21  274   2.686   2.383   9.337  0.0169  0.4205  0.1634
    4CHL1  H21A  275   2.640   2.286   9.310 -1.1456  0.8129  0.6911
    4CHL1  H21B  276   2.690   2.442   9.243  0.9439  1.1707  0.6490
    4CHL1  H21C  277   2.625   2.440   9.410 -0.0945  1.2199 -0.5411
    4CHL1   C22  278   2.926   2.293   9.276  0.8001 -0.1350  0.4323
    4CHL1  H22A  279   3.031   2.281   9.312  0.9789  0.1456  0.0166
    4CHL1  H22B  280   2.883   2.194   9.251  0.9502 -0.0749 -0.0783
    4CHL1   C23  281   2.932   2.357   9.129 -0.1170 -0.9328 -0.7714
    4CHL1  H23A  282   2.999   2.297   9.064  1.0531  0.9848 -1.3993
    4CHL1  H23B  283   2.833   2.377   9.084 -1.4072 -0.5664  1.9824
    4CHL1   C24  284   3.012   2.491   9.127 -0.0754 -0.1551  0.8547
    4CHL1  H24A  285   2.956   2.558   9.196 -0.7255 -0.5108  0.6813
    4CHL1  H24B  286   3.111   2.467   9.170  0.8058 -0.7520 -1.3710
    4CHL1   C25  287   3.023   2.548   8.985 -0.7577  0.2226 -0.3245
    4CHL1   H25  288   3.069   2.482   8.908 -1.1892  2.1500 -2.3491
    4CHL1   C26  289   2.884   2.588   8.925 -0.0581  0.0360 -0.3394
    4CHL1  H26A  290   2.824   2.495   8.915 -0.5635  0.5228 -2.6429
    4CHL1  H26B  291   2.830   2.653   8.997 -0.1544 -1.0382  0.5694
    4CHL1  H26C  292   2.911   2.637   8.829  0.5995 -1.0450 -0.7188
    4CHL1   C27  293   3.101   2.681   8.990  0.4763  0.7614 -0.0327
    4CHL1  H27A  294   3.059   2.764   9.051 -0.2504  1.1357 -1.0196
    4CHL1  H27B  295   3.199   2.658   9.038  1.2715  2.4028 -0.7761
    4CHL1  H27C  296   3.118   2.726   8.891  0.0462  1.4022  0.1800
    5CHL1    C3  297   1.583   1.626  10.181  0.0325 -0.3231 -0.0332
    5CHL1    H3  298   1.508   1.560  10.133  0.9151 -1.0028 -0.5070
    5CHL1    O3  299   1.562   1.644  10.321  0.2232 -0.3874  0.1836
    5CHL1   H3'  300   1.474   1.683  10.320  0.8781  1.2306 -1.6904
    5CHL1    C4  301   1.726   1.577  10.154  0.0172 -0.4546 -0.0038
    5CHL1   H4A  302   1.796   1.635  10.218 -0.9400  0.8261 -0.0637
    5CHL1   H4B  303   1.728   1.471  10.187  0.0631 -1.2279 -2.3248
    5CHL1    C5  304   1.751   1.577  10.000 -0.3218 -0.7589  0.1623
    5CHL1    C6  305   1.801   1.469   9.939  0.3108  0.3989 -0.7681
    5CHL1    H6  306   1.828   1.381  10.000 -1.3724 -0.1694 -0.7759
    5CHL1    C7  307   1.830   1.451   9.797  0.1619 -0.2148 -0.2572
    5CHL1   H7A  308   1.926   1.401   9.774 -0.5322 -1.8354  0.2559
    5CHL1   H7B  309   1.756   1.384   9.748  1.4720 -1.0842 -1.1207
    5CHL1    C8  310   1.813   1.585   9.714 -0.0165  0.1174 -0.3264
    5CHL1    H8  311   1.909   1.641   9.722 -0.3243  0.4861  1.0771
    5CHL1   C14  312   1.793   1.561   9.564  0.9402 -0.3876  0.1344
    5CHL1   H14  313   1.690   1.521   9.562  0.9066 -0.8032  3.6400
    5CHL1   C15  314   1.875   1.453   9.501  0.1579  0.5839  0.7083
    5CHL1  H15A  315   1.974   1.482   9.543 -0.1603  2.5207  0.2179
    5CHL1  H15B  316   1.844   1.350   9.532  1.0896  0.7230  2.2410
    5CHL1   C16  317   1.856   1.484   9.353  0.3514 -0.2184 -0.4030
    5CHL1  H16A  318   1.960   1.478   9.314 -0.0972 -2.3788 -1.4084
    5CHL1  H16B  319   1.800   1.401   9.304  0.1732 -0.9492  1.0113
    5CHL1   C17  320   1.778   1.619   9.341  0.1050  0.2315  0.1569
    5CHL1   H17  321   1.673   1.583   9.343 -0.2713  1.2784 -0.0733
    5CHL1   C13  322   1.791   1.684   9.476 -0.1770 -0.0067  0.3499
    5CHL1   C18  323   1.927   1.744   9.500 -0.1182 -0.6595  0.2108
    5CHL1  H18A  324   1.932   1.814   9.586  1.6605 -1.6148  0.9393
    5CHL1  H18B  325   2.011   1.671   9.506 -0.9666 -1.7330 -0.5070
    5CHL1  H18C  326   1.955   1.808   9.414 -1.0564 -1.1485 -0.4853
    5CHL1   C12  327   1.687   1.786   9.524  0.8548 -0.0024 -0.1618
    5CHL1  H12A  328   1.721   1.881   9.477  5.1993 -1.2656 -0.0138
    5CHL1  H12B  329   1.589   1.749   9.485 -0.1605  3.7216 -1.6202
    5CHL1   C11  330   1.672   1.805   9.686 -0.1071  0.4266 -0.1735
    5CHL1  H11A  331   1.747   1.884   9.710 -0.8904  1.9337 -2.3358
    5CHL1  H11B  332   1.572   1.853   9.693 -0.6677 -0.3498 -2.2090
    5CHL1    C9  333   1.706   1.677   9.772  0.6888  0.1840 -0.0767
    5CHL1    H9  334   1.617   1.610   9.773  1.2750 -0.6340 -0.7426
    5CHL1   C10  335   1.711   1.700   9.923 -0.3986 -0.3758 -0.6049
    5CHL1   C19  336   1.816   1.804   9.959 -0.8567  0.2876 -0.9282
    5CHL1  H19A  337   1.837   1.803  10.068  0.6799  0.4120 -1.2081
    5CHL1  H19B  338   1.906   1.796   9.896 -0.6275 -1.1360 -0.4637
    5CHL1  H19C  339   1.772   1.906   9.954  1.1603  1.1616 -1.9311
    5CHL1    C1  340   1.576   1.751   9.971  0.2662 -0.1672 -1.2807
    5CHL1   H1A  341   1.553   1.857   9.947 -0.6493 -0.0964 -0.2002
    5CHL1   H1B  342   1.488   1.691   9.938 -1.0430  0.7198  0.3988
    5CHL1    C2  343   1.565   1.764  10.127 -0.0567  0.4037 -0.0014
    5CHL1   H2A  344   1.463   1.807  10.140  0.6494  2.1337  0.0664
    5CHL1   H2B  345   1.649   1.826  10.166  0.4173  0.1297 -0.5760
    5CHL1   C20  346   1.810   1.702   9.206 -0.6848 -0.5206 -0.0228
    5CHL1   H20  347   1.900   1.763   9.224  0.0338 -1.6591  0.3754
    5CHL1   C21  348   1.691   1.795   9.176 -0.4825  0.6230  0.0918
    5CHL1  H21A  349   1.668   1.860   9.264  0.1632 -0.5306  1.1384
    5CHL1  H21B  350   1.592   1.747   9.163 -0.3671  0.6354 -0.9121
    5CHL1  H21C  351   1.711   1.867   9.093  0.3997  3.3860  2.5207
    5CHL1   C22  352   1.833   1.607   9.084 -0.0759 -0.0039  0.4303
    5CHL1  H22A  353   1.916   1.539   9.110  0.3865  0.2569 -0.3272
    5CHL1  H22B  354   1.739   1.554   9.056  0.4411 -0.8005  0.1927
    5CHL1   C23  355   1.890   1.693   8.964 -0.3046  0.1181  0.6714
    5CHL1  H23A  356   1.811   1.753   8.914  2.0548  0.9751 -2.3168
    5CHL1  H23B  357   1.977   1.752   8.998 -0.5761  1.4750 -0.8418
    5CHL1   C24  358   1.933   1.600   8.849  0.4393  0.6936 -0.1897
    5CHL1  H24A  359   2.007   1.528   8.892 -2.0914 -1.6393  0.5162
    5CHL1  H24B  360   1.847   1.550   8.799  1.1884  1.1869 -2.0432
    5CHL1   C25  361   2.009   1.666   8.728 -0.7471 -0.2067 -0.2425
    5CHL1   H25  362   2.098   1.723   8.762  0.6062 -0.3749 -3.1966
    5CHL1   C26  363   2.060   1.552   8.638  0.1649  0.1744 -0.0521
    5CHL1  H26A  364   2.126   1.595   8.560 -0.8484  1.1249 -0.4156
    5CHL1  H26B  365   2.123   1.480   8.694  2.6560  1.0130 -1.6300
    5CHL1  H26C  366   1.986   1.501   8.572  1.0920  0.1492 -1.0986
    5CHL1   C27  367   1.915   1.760   8.656  0.1672 -0.5009 -0.1107
    5CHL1  H27A  368   1.974   1.806   8.574 -0.1013  0.2142  0.0921
    5CHL1  H27B  369   1.832   1.700   8.614 -1.2772  0.3425  1.3986
    5CHL1  H27C  370   1.874   1.842   8.719 -1.1777  0.9147 -2.6830
    6CHL1    C3  371   0.033   4.584  10.395 -0.6535 -0.4545  0.2308
    6CHL1    H3  372  -0.069   4.621  10.368  0.1257  2.4572  0.9062
    6CHL1    O3  373   0.040   4.594  10.538 -0.4474  0.3628  0.1839
    6CHL1   H3'  374  -0.043   4.630  10.571  0.6613  0.6623  2.8927
    6CHL1    C4  375   0.061   4.439  10.352 -0.3039 -0.3318 -0.7905
    6CHL1   H4A  376   0.157   4.417  10.402 -0.9907  1.9589  1.7793
    6CHL1   H4B  377  -0.013   4.370  10.397  0.5014  1.0480  3.0969
    6CHL1    C5  378   0.063   4.416  10.202  0.0275 -0.1921 -0.3016
    6CHL1    C6  379  -0.015   4.326  10.135 -0.3938  0.0353 -0.1991
    6CHL1    H6  380  -0.075   4.252  10.189 -2.0111 -0.7032 -2.8042
    6CHL1    C7  381  -0.008   4.308   9.986 -0.9300 -0.1412  0.4840
    6CHL1   H7A  382  -0.004   4.199   9.966 -2.2793 -0.3519  1.2730
    6CHL1   H7B  383  -0.106   4.344   9.949 -1.3190  0.5134  2.0763
    6CHL1    C8  384   0.103   4.391   9.912  0.1057 -0.3904 -0.2636
    6CHL1    H8  385   0.200   4.340   9.929  0.3937  0.4984  0.8740
    6CHL1   C14  386   0.067   4.395   9.764 -0.8088  0.3977 -0.5684
    6CHL1   H14  387  -0.025   4.456   9.753 -0.3882  1.3081  0.7648
    6CHL1   C15  388   0.057   4.255   9.696 -0.4302  0.3661 -0.3921
    6CHL1  H15A  389   0.145   4.205   9.743  0.6751 -0.6735 -3.3432
    6CHL1  H15B  390  -0.038   4.201   9.716 -0.3807  0.9351  1.6760
    6CHL1   C16  391   0.082   4.295   9.547  0.6881 -0.3552  0.7746
    6CHL1  H16A  392   0.159   4.233   9.495  0.7088  0.8820 -0.7142
    6CHL1  H16B  393  -0.007   4.294   9.481  0.1503  1.8565  1.3716
    6CHL1   C17  394   0.142   4.443   9.535 -0.2337 -0.5617 -0.5905
    6CHL1   H17  395   0.063   4.515   9.507 -2.1182 -1.8806  1.0353
    6CHL1   C13  396   0.184   4.467   9.686 -0.1877 -0.2351 -0.2241
    6CHL1   C18  397   0.323   4.403   9.709  0.4401  0.1283 -0.2922
    6CHL1  H18A  398   0.397   4.466   9.655 -0.7643 -0.7314 -3.0937
    6CHL1  H18B  399   0.357   4.396   9.815  2.1562 -0.6524 -0.8607
    6CHL1  H18C  400   0.327   4.299   9.670 -1.2367  0.7045 -2.1593
    6CHL1   C12  401   0.186   4.614   9.730  0.5912  0.0436 -0.1530
    6CHL1  H12A  402   0.264   4.664   9.669 -0.1976  2.5369  0.7561
    6CHL1  H12B  403   0.088   4.662   9.712  0.3115 -0.5086 -0.1203
    6CHL1   C11  404   0.214   4.622   9.882 -0.2606  0.1472 -0.1819
    6CHL1  H11A  405   0.317   4.589   9.908 -0.2979 -1.2840 -1.6532
    6CHL1  H11B  406   0.210   4.729   9.909  2.1159  0.3121 -0.2456
    6CHL1    C9  407   0.118   4.532   9.972  0.4643 -0.5456  0.0847
    6CHL1    H9  408   0.023   4.588   9.961  0.6453 -0.4130 -0.8687
    6CHL1   C10  409   0.150   4.528  10.129 -0.0585  0.9782 -0.0488
    6CHL1   C19  410   0.297   4.473  10.140 -0.4161  0.4219 -0.2432
    6CHL1  H19A  411   0.307   4.366  10.111  0.8043  0.8473 -1.4910
    6CHL1  H19B  412   0.380   4.536  10.102 -0.0129  1.3041  1.9241
    6CHL1  H19C  413   0.325   4.471  10.248 -3.3082  0.7930  0.6044
    6CHL1    C1  414   0.138   4.664  10.189  0.2512 -0.6142 -0.4524
    6CHL1   H1A  415   0.215   4.731  10.144  0.4259 -0.0752  0.6318
    6CHL1   H1B  416   0.037   4.705  10.169  0.1545 -0.0647  1.0281
    6CHL1    C2  417   0.148   4.655  10.338 -0.0813  0.1719 -0.5458
    6CHL1   H2A  418   0.151   4.758  10.381 -0.5402 -0.1203  0.2096
    6CHL1   H2B  419   0.241   4.606  10.375 -0.2314 -0.2957 -0.7816
    6CHL1   C20  420   0.249   4.457   9.416 -0.6095 -0.2444  0.4163
    6CHL1   H20  421   0.331   4.384   9.432 -0.5598 -0.1503  0.6036
    6CHL1   C21  422   0.313   4.598   9.401 -0.6088  0.1221  0.3502
    6CHL1  H21A  423   0.230   4.669   9.380  0.5017  1.0577 -1.0387
    6CHL1  H21B  424   0.389   4.598   9.320 -2.2837  0.2040 -1.3168
    6CHL1  H21C  425   0.361   4.617   9.499 -0.1975 -0.4703  0.2676
    6CHL1   C22  426   0.181   4.415   9.280 -0.1019  0.3138  0.2117
    6CHL1  H22A  427   0.124   4.321   9.295 -0.7198  0.0448 -3.0380
    6CHL1  H22B  428   0.108   4.494   9.253  2.1089  2.8073  1.1166
    6CHL1   C23  429   0.278   4.396   9.160 -0.1871 -0.6122  0.5113
    6CHL1  H23A  430   0.328   4.494   9.145 -1.8950  0.7803  3.0661
    6CHL1  H23B  431   0.352   4.320   9.191  0.8370  0.4448  0.7381
    6CHL1   C24  432   0.201   4.346   9.040  0.2031 -0.0391 -0.3192
    6CHL1  H24A  433   0.127   4.265   9.057 -0.6495  0.9198  0.7201
    6CHL1  H24B  434   0.133   4.430   9.014  1.9810  0.6153 -3.2851
    6CHL1   C25  435   0.299   4.302   8.924  0.2833  0.7016 -0.1361
    6CHL1   H25  436   0.361   4.229   8.980 -0.2873  1.9561  2.2961
    6CHL1   C26  437   0.233   4.226   8.811  0.2646  0.1184 -0.6674
    6CHL1  H26A  438   0.315   4.186   8.748  1.3822  1.6364 -0.2525
    6CHL1  H26B  439   0.178   4.136   8.844 -3.8146  1.4043 -3.1572
    6CHL1  H26C  440   0.159   4.280   8.748 -2.0399 -2.1204 -0.0416
    6CHL1   C27  441   0.388   4.417   8.876 -0.0677  0.4323 -0.0413
    6CHL1  H27A  442   0.315   4.495   8.844 -0.5402  0.5248  1.1849
    6CHL1  H27B  443   0.444   4.462   8.961  0.5874 -2.3029  1.0789
    6CHL1  H27C  444   0.452   4.371   8.798 -0.9301 -2.9480  1.0709
    7CHL1    C3  445   3.290   1.592  10.383 -0.1045 -0.9519 -0.2117
    7CHL1    H3  446   3.320   1.699  10.392 -0.4458 -0.9849  1.7199
    7CHL1    O3  447   3.284   1.530  10.517 -0.0105 -0.1168 -0.2254
    7CHL1   H3'  448   3.202   1.571  10.547  0.3804  0.5721 -0.0636
    7CHL1    C4  449   3.148   1.570  10.335  0.2491 -0.3738  0.3241
    7CHL1   H4A  450   3.126   1.461  10.343 -0.9203 -0.2373 -0.8929
    7CHL1   H4B  451   3.068   1.617  10.397 -3.0953 -2.6884 -1.9055
    7CHL1    C5  452   3.138   1.612  10.188 -0.4331 -0.5369  0.2742
    7CHL1    C6  453   3.049   1.706  10.146  0.3713  0.5758  0.2834
    7CHL1    H6  454   2.982   1.748  10.223 -0.5315 -0.3630  0.0323
    7CHL1    C7  455   3.037   1.755  10.006 -0.0360  0.1641  0.2711
    7CHL1   H7A  456   2.930   1.756   9.975  0.2276  0.9723 -0.6679
    7CHL1   H7B  457   3.080   1.857   9.994 -1.0227  0.5628  0.0154
    7CHL1    C8  458   3.110   1.669   9.903 -0.1010 -0.6514  0.3468
    7CHL1    H8  459   3.057   1.573   9.889  0.3332 -0.8432 -0.0049
    7CHL1   C14  460   3.132   1.748   9.780  0.2800 -0.3100 -0.5848
    7CHL1   H14  461   3.188   1.841   9.804 -2.8243  1.4262  0.4982
    7CHL1   C15  462   3.005   1.810   9.718 -0.3865 -0.6593 -0.2055
    7CHL1  H15A  463   2.920   1.741   9.702  0.5548 -1.6436 -1.1155
    7CHL1  H15B  464   2.971   1.900   9.774  1.3409 -0.7517  1.0735
    7CHL1   C16  465   3.050   1.847   9.577 -0.6015 -0.9391 -0.2655
    7CHL1  H16A  466   2.975   1.811   9.503 -0.5047  0.5314 -1.1139
    7CHL1  H16B  467   3.051   1.957   9.563 -0.0401 -1.0807 -1.4616
    7CHL1   C17  468   3.190   1.792   9.552 -0.2406  0.2553 -0.8036
    7CHL1   H17  469   3.263   1.869   9.584  1.1570 -1.4957  0.4412
    7CHL1   C13  470   3.198   1.679   9.659 -0.4927  0.4803 -0.1223
    7CHL1   C18  471   3.116   1.561   9.603 -0.0121  0.5821 -0.4391
    7CHL1  H18A  472   3.185   1.506   9.536  0.7244  0.1272  0.6506
    7CHL1  H18B  473   3.087   1.491   9.684 -0.8334  2.1936  0.7410
    7CHL1  H18C  474   3.024   1.594   9.551  0.3502 -0.8991 -2.0952
    7CHL1   C12  475   3.332   1.644   9.717  0.2950 -0.4017 -0.5062
    7CHL1  H12A  476   3.390   1.581   9.647 -1.3422 -1.3977 -1.0331
    7CHL1  H12B  477   3.388   1.739   9.732 -1.3623  0.3860  1.1077
    7CHL1   C11  478   3.329   1.567   9.849  0.2020  0.0580 -0.4882
    7CHL1  H11A  479   3.286   1.466   9.835  0.4183 -0.0232 -0.5803
    7CHL1  H11B  480   3.433   1.552   9.885  0.9207 -0.3746 -2.5963
    7CHL1    C9  481   3.246   1.634   9.954  0.0503 -0.6505 -0.6626
    7CHL1    H9  482   3.300   1.730   9.963  0.9852 -1.2446  0.2647
    7CHL1   C10  483   3.239   1.552  10.091  0.5327  0.0240  0.0671
    7CHL1   C19  484   3.188   1.408  10.072  0.2685  0.6940  0.3909
    7CHL1  H19A  485   3.199   1.347  10.164  0.0954 -0.0747 -0.0928
    7CHL1  H19B  486   3.084   1.395  10.035  0.1167  2.5296  0.0676
    7CHL1  H19C  487   3.255   1.344  10.010 -0.4289 -2.0368  2.2921
    7CHL1    C1  488   3.384   1.553  10.151  0.5400 -0.1749  0.4171
    7CHL1   H1A  489   3.454   1.496  10.087  0.7992  1.4124 -0.7834
    7CHL1   H1B  490   3.407   1.661  10.141  0.1417  0.3947  4.1725
    7CHL1    C2  491   3.394   1.525  10.307  0.2991  0.1381  0.3616
    7CHL1   H2A  492   3.493   1.565  10.338 -0.8926  1.7195  2.2864
    7CHL1   H2B  493   3.391   1.416  10.327  1.1164  0.1627  0.6409
    7CHL1   C20  494   3.209   1.761   9.404 -0.2494  0.2386 -0.1293
    7CHL1   H20  495   3.160   1.666   9.377  0.8487  0.1597 -1.9802
    7CHL1   C21  496   3.361   1.726   9.383 -0.1890 -0.4026 -0.1400
    7CHL1  H21A  497   3.429   1.811   9.405  0.7643 -1.3177  0.5614
    7CHL1  H21B  498   3.378   1.695   9.278  1.5010 -1.8823  0.5148
    7CHL1  H21C  499   3.398   1.639   9.442  2.3777  0.9408  0.3532
    7CHL1   C22  500   3.177   1.882   9.315 -0.2018  0.3585  0.4021
    7CHL1  H22A  501   3.070   1.893   9.343 -0.6629 -0.9671 -0.6940
    7CHL1  H22B  502   3.249   1.963   9.335 -1.1269  1.6293 -1.1312
    7CHL1   C23  503   3.184   1.865   9.158  0.5126  0.0275 -0.2207
    7CHL1  H23A  504   3.288   1.841   9.128 -0.0012 -0.0403 -2.0793
    7CHL1  H23B  505   3.127   1.771   9.139  0.9678 -0.2569 -0.2080
    7CHL1   C24  506   3.113   1.980   9.076 -0.5515 -0.0433 -0.5506
    7CHL1  H24A  507   3.011   1.985   9.119  0.5140 -2.7217  2.7580
    7CHL1  H24B  508   3.160   2.077   9.104 -2.6421  1.3487 -1.6462
    7CHL1   C25  509   3.125   1.971   8.922  0.1197 -0.2376 -0.1298
    7CHL1   H25  510   3.054   1.891   8.891 -1.6332  0.9681  0.6239
    7CHL1   C26  511   3.073   2.098   8.852  0.4824  0.3049  0.1535
    7CHL1  H26A  512   3.110   2.110   8.748  1.3922 -1.1513  0.2874
    7CHL1  H26B  513   2.962   2.100   8.852  0.4517  3.4996  0.4027
    7CHL1  H26C  514   3.088   2.195   8.904  0.5001 -0.0101  0.7341
    7CHL1   C27  515   3.257   1.939   8.874 -0.0374  0.8732 -0.2714
    7CHL1  H27A  516   3.330   1.984   8.944 -1.3994 -0.2483  1.9544
    7CHL1  H27B  517   3.276   1.829   8.874 -1.4164  0.5727 -2.0678
    7CHL1  H27C  518   3.267   1.984   8.773 -0.2772 -1.3863 -1.3728
    8CHL1    C3  519   2.987   2.987  10.317  0.0233 -0.0371 -0.5344
    8CHL1    H3  520   3.086   2.940  10.300  0.3422  0.1695  0.6803
    8CHL1    O3  521   2.933   2.950  10.449 -0.2502  0.0840  0.1493
    8CHL1   H3'  522   2.905   3.031  10.493  0.6859 -0.9727  2.8808
    8CHL1    C4  523   3.008   3.140  10.298 -0.2068 -0.2302 -0.0696
    8CHL1   H4A  524   2.907   3.182  10.316 -0.5737 -0.3091 -1.7558
    8CHL1   H4B  525   3.077   3.189  10.371  0.8567 -0.2290 -1.0392
    8CHL1    C5  526   3.059   3.178  10.161 -0.1409  0.3735  0.2290
    8CHL1    C6  527   3.174   3.246  10.142  0.1695 -0.1535  0.0842
    8CHL1    H6  528   3.234   3.275  10.230  2.4224 -1.4421 -0.9520
    8CHL1    C7  529   3.204   3.312  10.008  0.5540 -0.5525  0.7079
    8CHL1   H7A  530   3.217   3.421  10.028 -0.9781 -0.2824  0.3695
    8CHL1   H7B  531   3.309   3.285   9.983  0.2285 -2.1332  0.9568
    8CHL1    C8  532   3.088   3.306   9.903  0.6602  0.7597 -0.8818
    8CHL1    H8  533   3.014   3.383   9.935 -0.3994 -0.8146  0.6883
    8CHL1   C14  534   3.144   3.333   9.772 -0.7846 -0.6633 -0.1436
    8CHL1   H14  535   3.219   3.255   9.748 -0.3721  0.1677 -1.6395
    8CHL1   C15  536   3.224   3.464   9.749  0.8011 -0.6155 -0.3664
    8CHL1  H15A  537   3.169   3.554   9.784 -0.9938 -2.3460  1.6155
    8CHL1  H15B  538   3.318   3.458   9.807  0.9174 -0.5774 -0.5520
    8CHL1   C16  539   3.245   3.470   9.595  0.0125  0.1966 -0.6048
    8CHL1  H16A  540   3.207   3.563   9.548  0.8911 -0.9838 -3.9249
    8CHL1  H16B  541   3.352   3.450   9.573  0.8805  1.5608  1.9094
    8CHL1   C17  542   3.154   3.348   9.542 -1.1331 -0.6635 -0.0188
    8CHL1   H17  543   3.221   3.260   9.536  1.1072  0.6128  3.0438
    8CHL1   C13  544   3.055   3.316   9.653 -0.8555 -0.5717 -0.2710
    8CHL1   C18  545   2.947   3.419   9.666 -0.1584 -0.3327 -1.0043
    8CHL1  H18A  546   2.909   3.412   9.770 -0.9344  3.1725 -0.9243
    8CHL1  H18B  547   2.992   3.520   9.657  1.2216 -0.7645  0.6166
    8CHL1  H18C  548   2.867   3.403   9.591 -0.3577 -0.3603 -0.7882
    8CHL1   C12  549   3.022   3.166   9.650  0.1872  0.3357  0.2972
    8CHL1  H12A  550   2.953   3.148   9.566  1.1520 -0.5814 -0.3227
    8CHL1  H12B  551   3.111   3.102   9.634 -0.0174  0.5490 -2.0168
    8CHL1   C11  552   2.947   3.126   9.782 -0.4310  0.1703  0.0789
    8CHL1  H11A  553   2.848   3.174   9.799 -0.1191  0.3358  1.6292
    8CHL1  H11B  554   2.930   3.017   9.791 -0.3387  0.1182 -0.3593
    8CHL1    C9  555   3.027   3.163   9.911 -0.3539 -0.6355  0.1050
    8CHL1    H9  556   3.119   3.102   9.906  0.8192  0.8332  2.2112
    8CHL1   C10  557   2.965   3.129  10.046  0.7356 -0.9876 -0.2410
    8CHL1   C19  558   2.838   3.217  10.068  0.9532 -0.9390  0.2918
    8CHL1  H19A  559   2.767   3.174  10.142 -0.1542 -1.4500 -1.0092
    8CHL1  H19B  560   2.852   3.327  10.074  0.0615 -0.7164 -1.2591
    8CHL1  H19C  561   2.773   3.206   9.978  0.1065  1.0714  0.5925
    8CHL1    C1  562   2.940   2.980  10.064  0.1205 -0.1400 -0.1755
    8CHL1   H1A  563   2.859   2.950   9.994 -0.8862 -0.8448  1.2369
    8CHL1   H1B  564   3.036   2.925  10.052  1.2564  1.3317  1.6933
    8CHL1    C2  565   2.892   2.938  10.205  0.6215  0.3061 -0.4042
    8CHL1   H2A  566   2.874   2.828  10.204 -2.1197  0.6523  0.7350
    8CHL1   H2B  567   2.791   2.982  10.216 -0.0403 -0.1724 -3.5970
    8CHL1   C20  568   3.099   3.378   9.401 -0.5304 -0.7364  0.5953
    8CHL1   H20  569   3.058   3.481   9.393  1.0227 -0.0278  1.4581
    8CHL1   C21  570   2.986   3.282   9.357  0.2393 -0.2575 -0.0453
    8CHL1  H21A  571   3.001   3.173   9.376  0.5399 -0.2166 -0.0449
    8CHL1  H21B  572   2.965   3.311   9.252  1.3935 -1.5710 -0.6787
    8CHL1  H21C  573   2.891   3.315   9.405 -0.5287 -2.1055 -0.1785
    8CHL1   C22  574   3.216   3.375   9.289  0.1348  0.2567  0.4650
    8CHL1  H22A  575   3.171   3.365   9.188 -1.1134  0.7162  0.9515
    8CHL1  H22B  576   3.268   3.473   9.298  1.2432 -0.4470  2.1889
    8CHL1   C23  577   3.314   3.255   9.305  0.3697 -0.0461  0.4553
    8CHL1  H23A  578   3.391   3.290   9.377 -1.4240 -0.4425  2.6711
    8CHL1  H23B  579   3.270   3.160   9.342 -2.0436  1.3259  1.3502
    8CHL1   C24  580   3.383   3.225   9.171 -0.2875  0.5095  0.5733
    8CHL1  H24A  581   3.423   3.321   9.131  0.0862  0.2808  0.3881
    8CHL1  H24B  582   3.469   3.162   9.202 -0.0959  0.3039 -0.3536
    8CHL1   C25  583   3.303   3.160   9.055 -0.1514 -0.2800  0.1032
    8CHL1   H25  584   3.207   3.216   9.046  0.3998  0.8179  0.7924
    8CHL1   C26  585   3.379   3.159   8.925  1.0066  0.7674  0.5338
    8CHL1  H26A  586   3.314   3.111   8.849  0.1109  2.0477  0.4600
    8CHL1  H26B  587   3.406   3.266   8.912 -2.4603  1.7303  0.2188
    8CHL1  H26C  588   3.477   3.109   8.937 -0.0408 -1.6306 -0.2326
    8CHL1   C27  589   3.252   3.021   9.091  0.2707  0.1608 -0.0856
    8CHL1  H27A  590   3.176   2.980   9.021 -0.9764  1.2194  0.5978
    8CHL1  H27B  591   3.333   2.947   9.109 -1.0262 -0.8768  1.8857
    8CHL1  H27C  592   3.205   3.025   9.192  1.0964  0.5305  0.2979
    9CHL1    C3  593   6.184   0.096  10.209 -0.1965 -0.7284  1.1856
    9CHL1    H3  594   6.158   0.201  10.185 -1.3881 -1.3429 -0.4158
    9CHL1    O3  595   6.227   0.093  10.341  0.4167 -0.2103 -0.0655
    9CHL1   H3'  596   6.228   0.004  10.376  1.2387 -0.2397 -0.1350
    9CHL1    C4  597   6.066   0.009  10.177  0.2453 -0.4563 -0.1483
    9CHL1   H4A  598   6.076  -0.093  10.221 -1.0810 -0.0721  1.1702
    9CHL1   H4B  599   5.979   0.052  10.231 -1.0788 -1.9364 -1.0150
    9CHL1    C5  600   6.025  -0.006  10.031 -0.0163  0.1762  0.0445
    9CHL1    C6  601   5.906   0.039   9.983 -0.2214  0.0631 -1.0380
    9CHL1    H6  602   5.839   0.083  10.058  0.4334 -2.6892  1.3613
    9CHL1    C7  603   5.864   0.031   9.846 -0.6480 -0.1775  0.0685
    9CHL1   H7A  604   5.763  -0.015   9.838 -0.6295  0.0543 -2.2485
    9CHL1   H7B  605   5.867   0.137   9.812 -0.5767 -0.6113 -1.3260
    9CHL1    C8  606   5.961  -0.056   9.754 -0.1772 -0.4013  0.2970
    9CHL1    H8  607   5.931  -0.161   9.775  3.3773 -1.5972  0.1633
    9CHL1   C14  608   5.940  -0.023   9.613  0.9728  0.2140  0.0853
    9CHL1   H14  609   5.980   0.081   9.610 -0.2185  0.6548 -1.2322
    9CHL1   C15  610   5.796  -0.022   9.564  0.1157 -0.0757 -0.0591
    9CHL1  H15A  611   5.734  -0.097   9.619  2.9045 -2.1124  0.5053
    9CHL1  H15B  612   5.754   0.079   9.581  0.7898 -0.0855  1.8245
    9CHL1   C16  613   5.807  -0.041   9.414 -0.3048  0.0409 -0.0102
    9CHL1  H16A  614   5.735  -0.126   9.403 -1.1766  0.2528  2.9390
    9CHL1  H16B  615   5.771   0.047   9.357  0.7213  1.0531  0.8557
    9CHL1   C17  616   5.959  -0.068   9.382 -0.7939  0.0038 -0.3881
    9CHL1   H17  617   5.998   0.033   9.359  0.4170 -0.5615 -0.9194
    9CHL1   C13  618   6.014  -0.115   9.519 -0.5437 -0.6430  0.0794
    9CHL1   C18  619   5.962  -0.256   9.526  0.5332  0.4809 -0.1040
    9CHL1  H18A  620   5.946  -0.295   9.628 -1.0740 -4.2656 -1.8878
    9CHL1  H18B  621   5.870  -0.279   9.468 -0.6625  0.4145  1.7488
    9CHL1  H18C  622   6.037  -0.322   9.476 -2.3397 -1.2645 -2.4778
    9CHL1   C12  623   6.169  -0.099   9.548 -1.0531  0.2310  0.2271
    9CHL1  H12A  624   6.226  -0.174   9.489 -2.2240 -1.0420  0.6805
    9CHL1  H12B  625   6.215  -0.004   9.512 -0.9380  0.9588  2.1964
    9CHL1   C11  626   6.188  -0.126   9.693  0.1874 -0.6201  0.3162
    9CHL1  H11A  627   6.149  -0.228   9.710 -1.9411 -0.0815 -0.9852
    9CHL1  H11B  628   6.296  -0.118   9.717  0.8035 -2.9768 -1.3648
    9CHL1    C9  629   6.107  -0.040   9.789 -0.2149 -0.5609 -0.0312
    9CHL1    H9  630   6.127   0.066   9.762 -0.2033 -0.3911  0.6301
    9CHL1   C10  631   6.134  -0.053   9.941  0.0306  0.4784 -0.9034
    9CHL1   C19  632   6.148  -0.208   9.965  0.1731 -0.8680 -0.7107
    9CHL1  H19A  633   6.061  -0.262   9.922 -0.7583  0.2408 -0.2783
    9CHL1  H19B  634   6.240  -0.249   9.918  1.4706 -0.1033  1.0562
    9CHL1  H19C  635   6.172  -0.234  10.070  1.8503 -3.2241 -1.5965
    9CHL1    C1  636   6.267   0.034   9.974  0.0902  0.1119 -0.0226
    9CHL1   H1A  637   6.356  -0.010   9.924  1.9424  1.0513  2.2700
    9CHL1   H1B  638   6.252   0.127   9.915 -1.8801 -0.7269 -0.9417
    9CHL1    C2  639   6.300   0.052  10.121  0.0868  0.0570 -0.7066
    9CHL1   H2A  640   6.389   0.115  10.143  1.3715 -1.4289 -1.4975
    9CHL1   H2B  641   6.328  -0.050  10.154  0.3699 -0.2095 -1.7354
    9CHL1   C20  642   5.969  -0.133   9.237 -0.1667 -0.6500 -0.4795
    9CHL1   H20  643   5.898  -0.219   9.242 -1.5955  0.5298  0.5048
    9CHL1   C21  644   6.106  -0.192   9.213 -0.1221  0.7012 -0.7892
    9CHL1  H21A  645   6.129  -0.280   9.277 -1.1198  1.2460  0.3602
    9CHL1  H21B  646   6.183  -0.114   9.232 -0.0888  0.6433 -0.6880
    9CHL1  H21C  647   6.134  -0.218   9.108  1.0691  0.2774 -0.3799
    9CHL1   C22  648   5.923  -0.036   9.117  0.0161  0.3098 -0.3307
    9CHL1  H22A  649   5.831   0.010   9.156 -0.1850 -2.3544  2.7911
    9CHL1  H22B  650   6.002   0.040   9.096 -1.3242  1.9815  0.4550
    9CHL1   C23  651   5.901  -0.118   8.993 -0.0355  0.3293  0.1320
    9CHL1  H23A  652   5.988  -0.186   8.981  0.4640  0.8332  0.8610
    9CHL1  H23B  653   5.810  -0.180   9.000 -0.1741  0.5307  0.1135
    9CHL1   C24  654   5.902  -0.039   8.860  0.2438  0.1087 -0.1006
    9CHL1  H24A  655   5.834   0.048   8.856  1.8328  1.3663 -1.1014
    9CHL1  H24B  656   5.998   0.016   8.855  0.6259 -0.3152  1.8461
    9CHL1   C25  657   5.898  -0.130   8.739  0.6637  1.0198 -0.5469
    9CHL1   H25  658   5.976  -0.208   8.754 -1.0892 -0.6482  0.3425
    9CHL1   C26  659   5.772  -0.211   8.725 -0.0970  0.9063 -0.3971
    9CHL1  H26A  660   5.759  -0.272   8.817 -1.1007  0.3872 -0.8712
    9CHL1  H26B  661   5.684  -0.144   8.722 -1.2270 -0.4744  0.8089
    9CHL1  H26C  662   5.771  -0.282   8.639 -0.6617  1.2141 -0.6536
    9CHL1   C27  663   5.922  -0.054   8.612 -0.1898  0.0170  0.1273
    9CHL1  H27A  664   5.859   0.034   8.588 -0.2224 -0.7780 -3.2204
    9CHL1  H27B  665   6.026  -0.013   8.609 -0.3899  0.5159 -0.1876
    9CHL1  H27C  666   5.915  -0.125   8.526  0.6480  1.8112 -1.5070
   10CHL1    C3  667   5.928   3.191  10.181 -0.4429 -0.0737  0.1655
   10CHL1    H3  668   5.827   3.158  10.149 -1.5906  3.5020 -0.3970
   10CHL1    O3  669   5.942   3.189  10.318 -0.8443 -0.1501 -0.7622
   10CHL1   H3'  670   5.996   3.266  10.338 -2.0892  0.5278  0.1502
   10CHL1    C4  671   6.039   3.102  10.121  0.1906  0.3941 -0.4314
   10CHL1   H4A  672   6.136   3.144  10.157 -0.8564  3.6233 -1.0424
   10CHL1   H4B  673   6.021   3.009  10.179  0.1385  1.7590  1.8471
   10CHL1    C5  674   6.033   3.095   9.970  0.8893 -0.2190  0.4949
   10CHL1    C6  675   6.034   2.975   9.915  0.0552  0.4848  0.4856
   10CHL1    H6  676   6.024   2.884   9.976 -1.1468  0.2591 -0.0037
   10CHL1    C7  677   6.015   2.959   9.767 -0.9049 -0.4001  0.1855
   10CHL1   H7A  678   6.079   2.873   9.734 -0.3149 -1.0235  2.7266
   10CHL1   H7B  679   5.908   2.945   9.742 -0.4771 -0.1210 -2.0428
   10CHL1    C8  680   6.064   3.083   9.690  0.0551 -0.6429 -0.9155
   10CHL1    H8  681   6.174   3.090   9.698  0.1790 -3.5268  2.4724
   10CHL1   C14  682   6.037   3.073   9.544 -1.0176 -0.7131 -0.1789
   10CHL1   H14  683   5.930   3.045   9.533 -1.2603 -0.1703  0.7126
   10CHL1   C15  684   6.110   2.966   9.457  0.0832 -0.7948  0.0649
   10CHL1  H15A  685   6.215   2.964   9.494  1.5948 -0.8396 -3.7772
   10CHL1  H15B  686   6.064   2.867   9.474 -0.0684 -0.5449  1.1956
   10CHL1   C16  687   6.102   3.018   9.312 -0.1560 -0.5905 -0.4270
   10CHL1  H16A  688   6.208   3.028   9.280 -0.9430  0.7564 -2.8375
   10CHL1  H16B  689   6.052   2.958   9.234 -0.3742 -0.5420 -0.3244
   10CHL1   C17  690   6.040   3.158   9.322 -0.9342  0.0832  0.3488
   10CHL1   H17  691   5.931   3.141   9.326 -1.0964  0.8698 -0.4094
   10CHL1   C13  692   6.067   3.207   9.466 -0.2725  0.1960 -0.1938
   10CHL1   C18  693   6.217   3.249   9.473  0.3466  0.0745  0.4123
   10CHL1  H18A  694   6.276   3.183   9.406 -1.2417  0.6368 -1.6320
   10CHL1  H18B  695   6.225   3.353   9.435 -4.7733  0.7141  0.4104
   10CHL1  H18C  696   6.249   3.238   9.579  2.5538  1.6641 -0.0034
   10CHL1   C12  697   5.970   3.312   9.523  0.1352 -0.5676  0.1772
   10CHL1  H12A  698   5.970   3.408   9.467  1.1762 -1.4315 -1.3903
   10CHL1  H12B  699   5.867   3.270   9.525  0.7996 -2.2558  1.0104
   10CHL1   C11  700   6.004   3.338   9.670 -0.1700 -0.1781 -0.2051
   10CHL1  H11A  701   6.101   3.390   9.681 -0.3733 -0.0616  1.3832
   10CHL1  H11B  702   5.924   3.409   9.703 -0.4735 -1.6136  2.4380
   10CHL1    C9  703   5.990   3.205   9.754  0.0232 -0.7060  1.1386
   10CHL1    H9  704   5.879   3.190   9.756 -0.5138  1.2336 -3.0108
   10CHL1   C10  705   6.030   3.230   9.896  0.5829 -0.1004 -0.5391
   10CHL1   C19  706   6.168   3.293   9.911 -0.8931 -0.4537  0.8330
   10CHL1  H19A  707   6.249   3.265   9.839 -0.8417  2.2203 -0.2839
   10CHL1  H19B  708   6.156   3.402   9.890  1.8560 -0.1251  0.5983
   10CHL1  H19C  709   6.216   3.277  10.010  2.2944  0.2877 -0.4542
   10CHL1    C1  710   5.932   3.329   9.972  0.0969 -0.8153  0.7408
   10CHL1   H1A  711   5.952   3.430   9.931 -2.8295  0.3058  1.8278
   10CHL1   H1B  712   5.829   3.297   9.947  0.2823 -0.4474 -0.5967
   10CHL1    C2  713   5.954   3.335  10.122 -0.1578 -0.5488 -0.6229
   10CHL1   H2A  714   5.879   3.398  10.175  2.2780  0.3822  1.9241
   10CHL1   H2B  715   6.060   3.362  10.141 -0.5566  1.4629 -1.0420
   10CHL1   C20  716   6.069   3.268   9.218 -0.8667  0.7757 -0.6844
   10CHL1   H20  717   6.097   3.361   9.271  0.1324 -0.1435  0.4452
   10CHL1   C21  718   5.944   3.268   9.139 -0.2730 -0.3496  0.0695
   10CHL1  H21A  719   5.935   3.171   9.085  1.4844  0.0529 -1.0349
   10CHL1  H21B  720   5.937   3.343   9.057  0.0644 -0.5818 -0.1737
   10CHL1  H21C  721   5.854   3.290   9.200 -1.1362 -0.9490 -0.9510
   10CHL1   C22  722   6.185   3.235   9.126 -0.9234  0.1769 -0.4032
   10CHL1  H22A  723   6.271   3.239   9.196 -0.4098 -1.9084 -0.8334
   10CHL1  H22B  724   6.172   3.133   9.084  1.9191  0.2659 -1.6870
   10CHL1   C23  725   6.202   3.344   9.016 -0.4091  0.0799 -0.7819
   10CHL1  H23A  726   6.122   3.329   8.940  1.4421  1.0160 -3.0417
   10CHL1  H23B  727   6.193   3.446   9.060 -1.5308 -0.2689 -0.1525
   10CHL1   C24  728   6.335   3.347   8.936 -0.3412  0.6952  0.0051
   10CHL1  H24A  729   6.426   3.380   8.992 -0.1527 -0.4172  0.3901
   10CHL1  H24B  730   6.348   3.244   8.895 -0.9220  1.1151 -1.2652
   10CHL1   C25  731   6.316   3.440   8.810 -0.0868 -0.3949  0.1157
   10CHL1   H25  732   6.312   3.545   8.846  0.8593  0.7116 -2.6939
   10CHL1   C26  733   6.435   3.433   8.722 -0.1112  0.0627  0.2518
   10CHL1  H26A  734   6.532   3.448   8.775  0.0685  0.2357 -0.1225
   10CHL1  H26B  735   6.451   3.334   8.674 -1.4285  0.3361 -0.8088
   10CHL1  H26C  736   6.431   3.520   8.652 -0.0001  1.0576  1.4465
   10CHL1   C27  737   6.188   3.419   8.726 -0.5511  0.1752 -0.0369
   10CHL1  H27A  738   6.091   3.446   8.773 -1.0339 -0.1966 -0.7951
   10CHL1  H27B  739   6.194   3.466   8.625 -0.4949  0.8262  0.2642
   10CHL1  H27C  740   6.187   3.310   8.705  0.0311  0.4666 -1.7402
   11CHL1    C3  741   1.256   6.500   9.985 -0.1201 -0.2865 -0.1501
   11CHL1    H3  742   1.230   6.604   9.955  2.1370  0.1664 -0.7784
   11CHL1    O3  743   1.218   6.454  10.113  0.1593 -0.2908 -0.3165
   11CHL1   H3'  744   1.288   6.472  10.176 -0.7257 -0.5788  0.7844
   11CHL1    C4  745   1.207   6.397   9.875  0.3351  0.0833  0.3007
   11CHL1   H4A  746   1.246   6.295   9.890 -0.1808 -0.2346 -0.4691
   11CHL1   H4B  747   1.099   6.374   9.888 -0.3961  2.3120 -1.0992
   11CHL1    C5  748   1.231   6.446   9.738  0.3867 -0.4733 -0.1370
   11CHL1    C6  749   1.128   6.480   9.655 -0.7399  0.4536  0.5196
   11CHL1    H6  750   1.025   6.466   9.691 -0.1655 -4.6290  0.9628
   11CHL1    C7  751   1.149   6.537   9.524  0.2550 -0.0176  0.4637
   11CHL1   H7A  752   1.090   6.477   9.452  1.8362 -1.7696  0.5443
   11CHL1   H7B  753   1.126   6.645   9.527  0.3973 -0.0042  1.7525
   11CHL1    C8  754   1.294   6.519   9.470 -1.1744 -0.4148  0.2627
   11CHL1    H8  755   1.308   6.420   9.422  0.8211  1.2345 -2.9134
   11CHL1   C14  756   1.307   6.614   9.358  0.1100 -0.0330  0.7285
   11CHL1   H14  757   1.296   6.719   9.390 -4.1549  0.0382 -0.4293
   11CHL1   C15  758   1.196   6.607   9.244 -0.5174 -0.1773  0.1093
   11CHL1  H15A  759   1.190   6.503   9.204  3.1616  0.1400 -1.6665
   11CHL1  H15B  760   1.099   6.644   9.285 -1.6273 -2.2151 -0.5110
   11CHL1   C16  761   1.264   6.690   9.136 -0.7893 -0.4772  0.5248
   11CHL1  H16A  762   1.259   6.626   9.045 -2.5091 -0.2162  0.4030
   11CHL1  H16B  763   1.201   6.776   9.105 -1.7219 -2.4474 -3.8104
   11CHL1   C17  764   1.413   6.722   9.172 -0.0837  0.3127 -0.3634
   11CHL1   H17  765   1.403   6.825   9.214 -1.3763 -0.2345  0.7509
   11CHL1   C13  766   1.441   6.619   9.282  0.6858 -0.2307  0.4852
   11CHL1   C18  767   1.483   6.491   9.212 -0.1736 -0.4626 -0.9575
   11CHL1  H18A  768   1.586   6.497   9.173  0.4852  1.6190  0.8926
   11CHL1  H18B  769   1.485   6.400   9.276  1.3757  0.3128  0.1609
   11CHL1  H18C  770   1.409   6.471   9.131 -3.9767  5.6100  0.3737
   11CHL1   C12  771   1.547   6.647   9.389 -0.3997  0.4031  0.2567
   11CHL1  H12A  772   1.635   6.617   9.329  0.1652  0.3072  1.1239
   11CHL1  H12B  773   1.557   6.753   9.420 -1.8416  2.0527 -4.1056
   11CHL1   C11  774   1.538   6.552   9.511 -0.7068 -0.1867  0.3804
   11CHL1  H11A  775   1.573   6.453   9.474  0.1800  1.4580 -3.7352
   11CHL1  H11B  776   1.609   6.595   9.584 -1.0849  1.1107 -0.0036
   11CHL1    C9  777   1.395   6.548   9.576 -0.3109 -0.4164  0.1188
   11CHL1    H9  778   1.380   6.656   9.601  0.6789  0.0679 -1.2704
   11CHL1   C10  779   1.378   6.467   9.704  0.0959 -0.7290  0.0266
   11CHL1   C19  780   1.437   6.326   9.696  0.4788 -0.8324  0.2504
   11CHL1  H19A  781   1.398   6.278   9.604  2.5013 -0.9349 -0.6040
   11CHL1  H19B  782   1.548   6.335   9.687  0.2641 -0.0908 -2.7089
   11CHL1  H19C  783   1.419   6.265   9.787  1.8991 -1.6152  0.0444
   11CHL1    C1  784   1.442   6.545   9.818  0.1688  0.5088 -0.2275
   11CHL1   H1A  785   1.550   6.561   9.794  0.8686 -3.4307 -0.3477
   11CHL1   H1B  786   1.412   6.652   9.810 -0.8612  0.2246 -0.2995
   11CHL1    C2  787   1.404   6.506   9.967 -0.3802 -0.0075  0.3756
   11CHL1   H2A  788   1.445   6.586  10.033  2.0810 -0.0945 -0.9335
   11CHL1   H2B  789   1.447   6.405   9.987  0.6193  0.3270 -0.0359
   11CHL1   C20  790   1.503   6.735   9.057 -0.0641 -0.2993 -0.2037
   11CHL1   H20  791   1.525   6.646   8.994 -1.1499 -1.5890  1.1708
   11CHL1   C21  792   1.638   6.769   9.112  0.2056  0.3642 -0.3869
   11CHL1  H21A  793   1.696   6.675   9.126 -0.1572 -0.0325 -1.4375
   11CHL1  H21B  794   1.626   6.820   9.210  2.2393  0.2212 -0.0160
   11CHL1  H21C  795   1.703   6.834   9.049  2.6945 -2.3200 -0.8007
   11CHL1   C22  796   1.447   6.854   8.965  0.7773  0.2835 -0.1343
   11CHL1  H22A  797   1.350   6.818   8.925  0.3913  2.7596 -1.6374
   11CHL1  H22B  798   1.432   6.951   9.017 -0.6865  1.6022 -2.8282
   11CHL1   C23  799   1.537   6.883   8.846  0.3818  0.6666 -0.1027
   11CHL1  H23A  800   1.625   6.945   8.870  0.7605  0.9484 -2.0815
   11CHL1  H23B  801   1.568   6.786   8.800  0.4661  0.4379  0.4260
   11CHL1   C24  802   1.465   6.960   8.735  0.5369  0.3378  0.0364
   11CHL1  H24A  803   1.403   7.041   8.778  0.4679 -0.2822  1.1412
   11CHL1  H24B  804   1.544   7.020   8.685  0.2809 -0.2330 -1.0932
   11CHL1   C25  805   1.388   6.891   8.618  0.1937  0.5960 -0.5508
   11CHL1   H25  806   1.457   6.821   8.566  2.1945  0.9259  1.5350
   11CHL1   C26  807   1.276   6.804   8.655  1.0214  0.5852 -0.1586
   11CHL1  H26A  808   1.195   6.851   8.714 -0.4160 -2.4312  0.4507
   11CHL1  H26B  809   1.228   6.773   8.560  4.2453  0.1269 -1.7972
   11CHL1  H26C  810   1.294   6.709   8.708  0.4810  0.2184 -0.6200
   11CHL1   C27  811   1.343   6.994   8.517 -0.7718  0.1446  0.2641
   11CHL1  H27A  812   1.280   6.944   8.440 -2.5356 -0.6646  2.1336
   11CHL1  H27B  813   1.288   7.081   8.558 -0.2860 -0.8944  3.3415
   11CHL1  H27C  814   1.435   7.033   8.468 -0.3697 -1.6861 -0.5028
   12CHL1    C3  815   4.970   3.246  10.439 -0.2779 -0.3868 -1.0523
   12CHL1    H3  816   4.963   3.135  10.449 -0.0737 -0.3780 -0.8185
   12CHL1    O3  817   4.994   3.319  10.560  0.0925  0.1387 -0.9262
   12CHL1   H3'  818   5.042   3.398  10.533 -0.4177  0.5866 -0.5403
   12CHL1    C4  819   5.082   3.274  10.339 -0.6093 -0.3847  0.2222
   12CHL1   H4A  820   5.114   3.381  10.343  0.1610 -0.6274  0.9878
   12CHL1   H4B  821   5.180   3.235  10.374  0.4791  2.5180  0.7576
   12CHL1    C5  822   5.054   3.219  10.204 -0.5650 -0.4649 -0.0821
   12CHL1    C6  823   5.138   3.130  10.148  0.4234 -0.0012 -0.2869
   12CHL1    H6  824   5.228   3.107  10.207 -1.3492  0.3274  2.7355
   12CHL1    C7  825   5.114   3.071  10.010 -0.4464 -0.1844  1.0955
   12CHL1   H7A  826   5.212   3.067   9.957 -0.2712  0.6491  1.3509
   12CHL1   H7B  827   5.057   2.975  10.013 -3.3976  1.1685 -2.9033
   12CHL1    C8  828   5.011   3.165   9.928  0.0046 -0.1463  0.7479
   12CHL1    H8  829   5.064   3.257   9.894 -0.5240 -0.1566 -0.1530
   12CHL1   C14  830   4.957   3.093   9.800 -1.1211 -0.4092 -0.2208
   12CHL1   H14  831   4.907   3.002   9.842 -2.9878  0.0120 -1.3920
   12CHL1   C15  832   5.060   3.042   9.697 -0.0480 -0.2934 -0.1947
   12CHL1  H15A  833   5.137   3.122   9.683 -1.5617  1.0305 -1.3381
   12CHL1  H15B  834   5.111   2.948   9.727  1.1077 -0.4847 -2.5810
   12CHL1   C16  835   4.978   3.033   9.565 -0.5536  0.2037  0.3303
   12CHL1  H16A  836   5.005   3.098   9.479 -0.2708  1.5057  1.3868
   12CHL1  H16B  837   4.985   2.929   9.527  0.2522  0.4130 -0.1152
   12CHL1   C17  838   4.835   3.073   9.595  0.2918 -0.0792 -0.4696
   12CHL1   H17  839   4.787   2.978   9.627 -1.1538  0.3523 -1.2378
   12CHL1   C13  840   4.845   3.165   9.722 -0.7161  0.4920  0.0627
   12CHL1   C18  841   4.888   3.297   9.673  0.3671  0.1439  0.9229
   12CHL1  H18A  842   4.794   3.349   9.646  0.8963  1.2174  1.0778
   12CHL1  H18B  843   4.933   3.367   9.747  0.0178 -1.1178  2.3776
   12CHL1  H18C  844   4.953   3.292   9.583 -0.3772  3.1243  0.0820
   12CHL1   C12  845   4.724   3.171   9.820  0.0056 -0.5061 -0.1967
   12CHL1  H12A  846   4.644   3.238   9.781  1.4046  0.3443 -1.7443
   12CHL1  H12B  847   4.699   3.066   9.848  2.6523 -0.6790  1.9174
   12CHL1   C11  848   4.768   3.250   9.944 -0.0667 -0.2353  0.0798
   12CHL1  H11A  849   4.787   3.357   9.922  2.0548 -0.0131  2.5245
   12CHL1  H11B  850   4.681   3.242  10.013  1.3378  0.1107  1.9764
   12CHL1    C9  851   4.890   3.194  10.011  0.2295  0.8535 -0.5520
   12CHL1    H9  852   4.861   3.095  10.052 -0.0661  0.3669 -1.8815
   12CHL1   C10  853   4.925   3.278  10.139 -0.1648  0.0228 -0.4393
   12CHL1   C19  854   4.957   3.425  10.106  0.2503  0.1223  0.6270
   12CHL1  H19A  855   5.054   3.439  10.055  0.2534 -0.1816  0.5456
   12CHL1  H19B  856   4.874   3.470  10.046  0.6989  0.3849  0.1961
   12CHL1  H19C  857   4.961   3.481  10.201 -1.3211 -0.1945  0.9197
   12CHL1    C1  858   4.800   3.274  10.236 -0.0003  0.2918  0.6985
   12CHL1   H1A  859   4.731   3.352  10.197  1.3184  1.0008 -0.2979
   12CHL1   H1B  860   4.744   3.180  10.219 -1.7220  1.3778  0.1427
   12CHL1    C2  861   4.829   3.298  10.387  0.0930  0.9387 -0.3784
   12CHL1   H2A  862   4.748   3.254  10.449  0.3673  3.8313  2.2873
   12CHL1   H2B  863   4.821   3.407  10.402 -1.5957  0.5470  2.0294
   12CHL1   C20  864   4.754   3.124   9.467 -0.3955  0.8259 -0.3357
   12CHL1   H20  865   4.796   3.222   9.433  2.1045  0.5416  1.6243
   12CHL1   C21  866   4.609   3.147   9.511 -0.0192  0.2556  0.3209
   12CHL1  H21A  867   4.549   3.190   9.427  2.2853 -0.6017 -1.8909
   12CHL1  H21B  868   4.610   3.217   9.598 -0.8333 -0.9127  1.3021
   12CHL1  H21C  869   4.558   3.058   9.553 -0.2113  0.3413  0.2744
   12CHL1   C22  870   4.757   3.023   9.356  0.0280 -0.3835 -0.0997
   12CHL1  H22A  871   4.863   3.002   9.330 -0.2378 -2.6578  0.4191
   12CHL1  H22B  872   4.719   2.923   9.387  0.8153 -0.7929 -0.4259
   12CHL1   C23  873   4.694   3.072   9.226 -0.0964  0.6676  0.2605
   12CHL1  H23A  874   4.583   3.061   9.229 -0.2035  1.1495 -1.0590
   12CHL1  H23B  875   4.722   3.179   9.213 -1.1914  0.9013 -0.2695
   12CHL1   C24  876   4.752   2.980   9.109 -0.3266 -0.4062 -0.4360
   12CHL1  H24A  877   4.849   3.025   9.079  0.4848  0.7811  3.3828
   12CHL1  H24B  878   4.755   2.875   9.147 -1.8577 -0.7352 -1.1332
   12CHL1   C25  879   4.669   2.971   8.989 -0.2007  0.3125  0.2469
   12CHL1   H25  880   4.657   3.065   8.931  2.1141  0.1433 -0.5976
   12CHL1   C26  881   4.746   2.871   8.893  0.7780 -0.8129 -0.3780
   12CHL1  H26A  882   4.850   2.908   8.877  0.9393 -0.9861  0.2247
   12CHL1  H26B  883   4.748   2.771   8.942 -0.1334 -1.1840 -1.0911
   12CHL1  H26C  884   4.696   2.865   8.794  0.0639  0.4711 -0.1152
   12CHL1   C27  885   4.525   2.933   9.021  0.4651  0.1491 -0.0983
   12CHL1  H27A  886   4.476   2.874   8.940 -1.8952  2.0323 -0.1638
   12CHL1  H27B  887   4.512   2.865   9.109  1.0318 -1.9334 -1.5341
   12CHL1  H27C  888   4.467   3.025   9.042  1.7356  0.3390  3.0535
   13CHL1    C3  889   3.099   5.483   9.997  0.0067  0.3598  0.2423
   13CHL1    H3  890   2.996   5.481   9.955  0.3332 -0.5490 -0.5627
   13CHL1    O3  891   3.093   5.483  10.138  0.1964 -0.2305 -0.4934
   13CHL1   H3'  892   3.182   5.487  10.171  0.9967 -1.6710 -2.2977
   13CHL1    C4  893   3.177   5.366   9.933 -0.1792 -0.0123 -0.3962
   13CHL1   H4A  894   3.279   5.375   9.975  0.6577 -2.7713 -1.5981
   13CHL1   H4B  895   3.133   5.272   9.975 -0.1185  1.4000  3.2032
   13CHL1    C5  896   3.176   5.369   9.785  0.2632  0.0914  0.4152
   13CHL1    C6  897   3.117   5.272   9.715  0.2164  0.9887 -0.5492
   13CHL1    H6  898   3.069   5.198   9.782  0.6321  2.9867  2.1394
   13CHL1    C7  899   3.106   5.265   9.564 -0.3237 -0.2330  0.5143
   13CHL1   H7A  900   3.146   5.168   9.528 -0.2861 -1.6069  3.9021
   13CHL1   H7B  901   3.005   5.280   9.519 -2.0240 -0.3966  3.9651
   13CHL1    C8  902   3.195   5.372   9.498 -0.7243 -0.4207  0.1238
   13CHL1    H8  903   3.299   5.335   9.509 -1.0311 -0.7824  2.1750
   13CHL1   C14  904   3.164   5.394   9.356  0.2489  0.3778  0.1556
   13CHL1   H14  905   3.061   5.435   9.348  0.2212  0.2944  0.0857
   13CHL1   C15  906   3.162   5.273   9.259 -0.0408  0.2431  0.4451
   13CHL1  H15A  907   3.242   5.203   9.292 -2.2413 -1.9939  1.3839
   13CHL1  H15B  908   3.077   5.203   9.274  0.6315 -0.9064 -0.9645
   13CHL1   C16  909   3.181   5.337   9.123  0.5790  0.7628  0.0210
   13CHL1  H16A  910   3.273   5.297   9.076  0.2472 -0.8050  0.6702
   13CHL1  H16B  911   3.089   5.309   9.067 -0.0731 -0.9405  1.8570
   13CHL1   C17  912   3.193   5.491   9.147 -0.5476 -0.5728 -0.8770
   13CHL1   H17  913   3.093   5.539   9.155  0.7147  2.0456  0.8079
   13CHL1   C13  914   3.246   5.508   9.291  0.2943  1.3382  0.1805
   13CHL1   C18  915   3.397   5.463   9.281  0.5931  0.2229  0.3472
   13CHL1  H18A  916   3.418   5.373   9.219 -1.8293  0.2006 -0.5540
   13CHL1  H18B  917   3.458   5.541   9.231  3.2827 -0.3266  2.5500
   13CHL1  H18C  918   3.443   5.451   9.381  0.9577 -0.6145  0.0898
   13CHL1   C12  919   3.216   5.639   9.361  0.2094  0.3297  0.1425
   13CHL1  H12A  920   3.285   5.718   9.324  0.5053  1.2356  2.4652
   13CHL1  H12B  921   3.107   5.657   9.346  0.2517 -0.5094 -1.4083
   13CHL1   C11  922   3.258   5.618   9.505  0.4397  0.8816  0.4336
   13CHL1  H11A  923   3.369   5.615   9.507  0.5430 -1.5589 -2.3137
   13CHL1  H11B  924   3.226   5.707   9.562 -1.8921  0.0381  0.5406
   13CHL1    C9  925   3.186   5.503   9.579  0.4930  0.5130  0.4433
   13CHL1    H9  926   3.080   5.537   9.581  0.8523  1.6811  0.7564
   13CHL1   C10  927   3.236   5.496   9.722  0.3068  0.3797  0.4681
   13CHL1   C19  928   3.392   5.480   9.730 -0.5266 -1.2586  0.0053
   13CHL1  H19A  929   3.425   5.459   9.834 -0.5499 -0.8445  0.0970
   13CHL1  H19B  930   3.426   5.394   9.669  0.1018 -0.5901 -0.5991
   13CHL1  H19C  931   3.449   5.570   9.700 -0.5566 -0.3714  2.3826
   13CHL1    C1  932   3.186   5.621   9.797  0.3846  0.3205 -0.6012
   13CHL1   H1A  933   3.257   5.706   9.787 -1.3700  1.7908 -1.3849
   13CHL1   H1B  934   3.089   5.651   9.751 -0.4523 -0.1201  0.8114
   13CHL1    C2  935   3.169   5.616   9.957 -0.7312  0.4779  0.5455
   13CHL1   H2A  936   3.111   5.699  10.003 -0.9107 -0.1434  1.4774
   13CHL1   H2B  937   3.272   5.599   9.996  0.1569  0.6702 -1.6128
   13CHL1   C20  938   3.258   5.565   9.028 -0.5744  0.0115  0.0159
   13CHL1   H20  939   3.366   5.535   9.028 -0.1839  1.1422  2.7575
   13CHL1   C21  940   3.254   5.720   9.048  0.4124 -1.3673 -0.2190
   13CHL1  H21A  941   3.334   5.755   9.117 -0.2785 -0.2172  0.0171
   13CHL1  H21B  942   3.157   5.755   9.089  0.5946  0.2048 -1.0632
   13CHL1  H21C  943   3.269   5.769   8.950 -2.2771  0.0126 -0.0301
   13CHL1   C22  944   3.197   5.525   8.890 -0.4861  0.4289  0.3715
   13CHL1  H22A  945   3.188   5.415   8.881 -0.8888  0.6287 -3.3200
   13CHL1  H22B  946   3.092   5.562   8.892 -0.5592  0.2891 -0.5424
   13CHL1   C23  947   3.272   5.568   8.761 -0.2140  0.1921 -0.0308
   13CHL1  H23A  948   3.284   5.678   8.747 -1.4837  0.1490 -1.8305
   13CHL1  H23B  949   3.376   5.529   8.757  0.3110  1.3526  1.3514
   13CHL1   C24  950   3.205   5.523   8.628 -0.1120 -0.0859 -0.1248
   13CHL1  H24A  951   3.204   5.413   8.642  0.2527 -0.1213 -0.3589
   13CHL1  H24B  952   3.100   5.557   8.626 -0.2167 -0.4108 -0.3182
   13CHL1   C25  953   3.282   5.551   8.499 -0.1127 -0.1971 -0.4528
   13CHL1   H25  954   3.390   5.530   8.515 -0.1486  0.5300  0.9296
   13CHL1   C26  955   3.230   5.471   8.380 -1.2390 -0.0869 -0.0053
   13CHL1  H26A  956   3.292   5.499   8.292 -0.3648  2.4435  1.3105
   13CHL1  H26B  957   3.245   5.364   8.408 -0.1835  0.7345  2.8940
   13CHL1  H26C  958   3.123   5.495   8.362 -1.3518  0.2389  1.0619
   13CHL1   C27  959   3.262   5.700   8.467 -0.0006 -0.2963  0.3938
   13CHL1  H27A  960   3.158   5.736   8.451  0.3944  1.0123  0.6437
   13CHL1  H27B  961   3.305   5.761   8.549 -0.1463  2.4799 -1.4685
   13CHL1  H27C  962   3.322   5.735   8.381  0.7682  1.8626  1.7428
   14CHL1    C3  963   2.011   0.984  10.161  0.4559  0.3891 -0.6444
   14CHL1    H3  964   1.903   0.979  10.135  0.2841  2.9661 -0.6407
   14CHL1    O3  965   2.014   0.967  10.299 -0.0953  0.1275 -0.6408
   14CHL1   H3'  966   1.963   1.040  10.336 -1.7373 -0.9289 -0.7468
   14CHL1    C4  967   2.081   0.862  10.095 -0.0220 -0.4237 -0.1878
   14CHL1   H4A  968   2.190   0.858  10.115 -0.0858 -1.0685  0.0383
   14CHL1   H4B  969   2.039   0.769  10.140 -0.2391 -0.9995 -1.5296
   14CHL1    C5  970   2.067   0.875   9.947  0.5143  0.5245 -0.9917
   14CHL1    C6  971   2.002   0.786   9.871 -0.9866  0.1476  0.0742
   14CHL1    H6  972   1.974   0.696   9.927 -1.8514  0.0678 -0.4619
   14CHL1    C7  973   2.000   0.797   9.725  0.2776  0.1467  0.2387
   14CHL1   H7A  974   2.013   0.696   9.682  1.6384  0.3327  0.1705
   14CHL1   H7B  975   1.895   0.824   9.704  0.1210  0.9802  1.8712
   14CHL1    C8  976   2.095   0.903   9.664  0.0763 -0.7390 -0.3707
   14CHL1    H8  977   2.202   0.875   9.680  0.5735  1.9115  1.4201
   14CHL1   C14  978   2.057   0.934   9.523  0.0092  0.8756  0.4301
   14CHL1   H14  979   1.955   0.977   9.533  0.1128  1.2438 -0.0980
   14CHL1   C15  980   2.040   0.818   9.429 -0.1545  0.4041 -0.1436
   14CHL1  H15A  981   2.124   0.747   9.447  0.5011  1.2032 -0.0033
   14CHL1  H15B  982   1.942   0.769   9.447  0.3341 -0.7165 -0.4178
   14CHL1   C16  983   2.049   0.875   9.292 -0.5097 -0.2640 -0.5228
   14CHL1  H16A  984   2.145   0.836   9.250  0.2414  1.6544 -0.6862
   14CHL1  H16B  985   1.971   0.855   9.216 -0.6275  0.3307 -0.5653
   14CHL1   C17  986   2.080   1.026   9.314  0.3032  0.0979  0.3409
   14CHL1   H17  987   1.984   1.080   9.319  0.2114 -0.0333  0.0555
   14CHL1   C13  988   2.137   1.035   9.453 -0.7529 -0.5271  0.5701
   14CHL1   C18  989   2.290   0.986   9.443 -0.1346 -0.2123  0.4464
   14CHL1  H18A  990   2.336   1.074   9.392  0.8986 -0.4700  0.9016
   14CHL1  H18B  991   2.327   0.982   9.547 -2.6782  1.8324  1.5445
   14CHL1  H18C  992   2.310   0.893   9.385 -0.1305 -0.4600  0.8404
   14CHL1   C12  993   2.113   1.162   9.540  0.1426 -0.7562 -0.8280
   14CHL1  H12A  994   2.150   1.253   9.488 -2.2169  0.6742 -0.1660
   14CHL1  H12B  995   2.005   1.182   9.558  0.4910 -0.6544  1.3955
   14CHL1   C11  996   2.162   1.152   9.687  0.0721  0.3649  0.3540
   14CHL1  H11A  997   2.273   1.157   9.675 -0.0246 -1.0329 -1.6221
   14CHL1  H11B  998   2.117   1.245   9.727 -2.1627  0.0882 -1.3595
   14CHL1    C9  999   2.100   1.030   9.747 -0.0226  0.3663  0.3801
   14CHL1    H9 1000   1.991   1.053   9.745  0.1595  1.4442  1.6446
   14CHL1   C10 1001   2.135   1.011   9.893  0.5507 -0.0024  0.3221
   14CHL1   C19 1002   2.288   1.006   9.906 -0.4462 -0.2978  0.1538
   14CHL1  H19A 1003   2.337   0.924   9.849  0.9602  0.6336 -0.0182
   14CHL1  H19B 1004   2.341   1.096   9.869 -2.9222  1.1733 -0.0312
   14CHL1  H19C 1005   2.318   1.003  10.013 -1.2761  1.3180  0.4508
   14CHL1    C1 1006   2.088   1.135   9.983 -1.0785  0.2684  0.1667
   14CHL1   H1A 1007   2.169   1.211   9.969  0.4906 -1.3757 -0.1003
   14CHL1   H1B 1008   1.995   1.183   9.947 -1.9009 -0.4457  1.2780
   14CHL1    C2 1009   2.080   1.112  10.134  0.0471 -0.0681  0.4464
   14CHL1   H2A 1010   2.031   1.204  10.170  2.5534  2.1770 -1.4917
   14CHL1   H2B 1011   2.180   1.113  10.183  1.7243 -0.9576 -2.6551
   14CHL1   C20 1012   2.146   1.107   9.195 -0.7028 -0.6627 -0.4040
   14CHL1   H20 1013   2.253   1.081   9.209 -0.5932 -0.3933 -0.7265
   14CHL1   C21 1014   2.124   1.259   9.209 -0.1023 -0.0794  0.5689
   14CHL1  H21A 1015   2.165   1.308   9.118  0.7444  0.0777  1.0233
   14CHL1  H21B 1016   2.181   1.298   9.296 -1.1074  0.6523  0.9110
   14CHL1  H21C 1017   2.016   1.280   9.224 -1.1641 -4.2297 -0.1144
   14CHL1   C22 1018   2.100   1.059   9.057 -0.0519 -0.4492  0.1377
   14CHL1  H22A 1019   2.088   0.948   9.054  0.2160 -0.4648 -1.7006
   14CHL1  H22B 1020   1.991   1.081   9.052  0.1372  0.5080  0.1962
   14CHL1   C23 1021   2.187   1.100   8.933 -0.2130 -0.0646 -1.0849
   14CHL1  H23A 1022   2.202   1.210   8.929  0.1359 -0.1495 -3.6291
   14CHL1  H23B 1023   2.287   1.053   8.937  0.3646  1.2017  1.0284
   14CHL1   C24 1024   2.122   1.050   8.807  0.2468  1.1154 -0.0071
   14CHL1  H24A 1025   2.117   0.940   8.813  1.0709  0.9681 -1.4756
   14CHL1  H24B 1026   2.025   1.100   8.789 -0.6558  0.0594  1.7359
   14CHL1   C25 1027   2.214   1.075   8.687 -0.7566 -0.0793  0.0745
   14CHL1   H25 1028   2.317   1.043   8.713 -0.9787 -0.0716  1.0270
   14CHL1   C26 1029   2.172   0.987   8.569  0.1666  0.4747 -0.4989
   14CHL1  H26A 1030   2.158   0.882   8.600  0.7356  0.7049  0.5762
   14CHL1  H26B 1031   2.071   1.021   8.537  0.2558  0.9519 -0.2780
   14CHL1  H26C 1032   2.251   0.997   8.491  0.3674  0.8618 -0.2491
   14CHL1   C27 1033   2.208   1.220   8.661 -0.8623 -0.0538 -0.3555
   14CHL1  H27A 1034   2.105   1.255   8.639  0.1415  1.6413 -2.7766
   14CHL1  H27B 1035   2.252   1.275   8.747 -0.1282 -0.0615 -0.7207
   14CHL1  H27C 1036   2.268   1.244   8.571  0.3938  1.0100  0.7163
   15CHL1    C3 1037   2.511   5.727  10.188 -0.4045 -0.4888 -0.7533
   15CHL1    H3 1038   2.424   5.658  10.178 -0.5584 -0.6264  1.1368
   15CHL1    O3 1039   2.520   5.783  10.319 -0.2931 -0.1346  0.1722
   15CHL1   H3' 1040   2.603   5.830  10.328  0.7502 -2.2367  2.8251
   15CHL1    C4 1041   2.634   5.636  10.162  0.1702  0.0875  0.4903
   15CHL1   H4A 1042   2.719   5.698  10.199  0.6828  0.2849 -0.9527
   15CHL1   H4B 1043   2.626   5.552  10.233  1.7439 -0.6982 -0.2250
   15CHL1    C5 1044   2.659   5.595  10.014  0.2082 -0.3562  0.5905
   15CHL1    C6 1045   2.682   5.465   9.984  0.3670  0.5398  0.4647
   15CHL1    H6 1046   2.681   5.392  10.066 -0.5143  1.2804  1.1311
   15CHL1    C7 1047   2.700   5.424   9.839 -0.0406  0.4415 -0.0989
   15CHL1   H7A 1048   2.795   5.368   9.829 -1.5284 -2.4845  1.0191
   15CHL1   H7B 1049   2.607   5.369   9.815 -0.9996  0.8346  2.3467
   15CHL1    C8 1050   2.706   5.536   9.723 -0.4719 -0.6031 -0.3367
   15CHL1    H8 1051   2.811   5.572   9.718 -0.4069  0.2198  3.5207
   15CHL1   C14 1052   2.660   5.476   9.590 -1.1297  0.3657 -0.5615
   15CHL1   H14 1053   2.550   5.462   9.605 -1.2367  1.1424 -0.5742
   15CHL1   C15 1054   2.713   5.330   9.562  0.7402  0.5209 -1.1412
   15CHL1  H15A 1055   2.823   5.321   9.573  0.8350 -1.4203 -2.9920
   15CHL1  H15B 1056   2.657   5.257   9.625  1.0843  1.0775 -0.1700
   15CHL1   C16 1057   2.697   5.325   9.414 -0.5595  0.0117 -0.1133
   15CHL1  H16A 1058   2.788   5.305   9.354 -0.2315  1.2473 -0.0491
   15CHL1  H16B 1059   2.631   5.239   9.390  1.0993 -1.7134  1.2050
   15CHL1   C17 1060   2.643   5.465   9.368 -0.1642  0.2408 -0.2010
   15CHL1   H17 1061   2.533   5.457   9.370 -0.4076  2.7493 -0.0673
   15CHL1   C13 1062   2.681   5.568   9.474  0.6901 -0.2656  0.2772
   15CHL1   C18 1063   2.825   5.624   9.464  0.0922  0.4671  0.0956
   15CHL1  H18A 1064   2.838   5.681   9.370  1.3984 -2.7467 -1.8242
   15CHL1  H18B 1065   2.857   5.692   9.546  1.1849 -1.8052  1.6530
   15CHL1  H18C 1066   2.899   5.541   9.457 -0.8468 -0.2365 -2.5073
   15CHL1   C12 1067   2.569   5.685   9.500 -0.6451  1.1835 -0.4696
   15CHL1  H12A 1068   2.561   5.758   9.417 -1.7404  0.5427 -0.9502
   15CHL1  H12B 1069   2.471   5.632   9.509 -0.5715  1.0947 -0.1718
   15CHL1   C11 1070   2.600   5.755   9.639 -0.1518  0.3425  0.1449
   15CHL1  H11A 1071   2.682   5.830   9.635 -1.0072  1.2863 -3.3199
   15CHL1  H11B 1072   2.520   5.829   9.661  1.1767  1.5359  1.1057
   15CHL1    C9 1073   2.614   5.657   9.761 -0.2248  0.3276 -0.2367
   15CHL1    H9 1074   2.512   5.614   9.767  0.1518 -0.7669 -1.2785
   15CHL1   C10 1075   2.636   5.711   9.906 -0.3175  0.0239  0.5693
   15CHL1   C19 1076   2.770   5.796   9.902  0.8811 -0.4611  0.9879
   15CHL1  H19A 1077   2.787   5.840  10.003  2.3037  0.7639  0.2430
   15CHL1  H19B 1078   2.855   5.738   9.862  0.4256 -0.2070 -0.3991
   15CHL1  H19C 1079   2.765   5.884   9.835  2.7646  0.4736  2.0077
   15CHL1    C1 1080   2.516   5.803   9.952  0.5893  0.5150  0.2739
   15CHL1   H1A 1081   2.522   5.895   9.890 -0.8945  3.2247  3.8139
   15CHL1   H1B 1082   2.417   5.756   9.939  0.7408  0.7542 -2.2271
   15CHL1    C2 1083   2.508   5.850  10.099 -0.0116 -0.7193 -0.2629
   15CHL1   H2A 1084   2.426   5.919  10.129  3.1322  1.9946  2.9200
   15CHL1   H2B 1085   2.600   5.907  10.122 -0.5930  0.0657  0.1582
   15CHL1   C20 1086   2.683   5.494   9.226 -0.0216 -0.6495  0.1815
   15CHL1   H20 1087   2.789   5.526   9.222 -0.1594 -0.1308  0.5155
   15CHL1   C21 1088   2.590   5.614   9.179 -0.3781  0.1396  0.0958
   15CHL1  H21A 1089   2.483   5.599   9.204 -0.0973  1.5612  2.4849
   15CHL1  H21B 1090   2.593   5.628   9.069 -1.0507 -2.0909 -0.2720
   15CHL1  H21C 1091   2.618   5.711   9.225  1.5965  0.1241 -0.9891
   15CHL1   C22 1092   2.682   5.374   9.127  0.6436  0.2345 -0.9286
   15CHL1  H22A 1093   2.726   5.282   9.170  0.2297 -0.1932 -1.4108
   15CHL1  H22B 1094   2.576   5.353   9.101  0.0518  0.1315  1.3829
   15CHL1   C23 1095   2.777   5.395   9.001  0.1864 -0.2113  0.0983
   15CHL1  H23A 1096   2.749   5.494   8.958  2.1022 -0.6121 -2.3098
   15CHL1  H23B 1097   2.880   5.425   9.033 -0.2629 -0.4156  1.8197
   15CHL1   C24 1098   2.760   5.295   8.884 -0.6900 -0.7859  0.4368
   15CHL1  H24A 1099   2.783   5.193   8.922 -0.3530 -0.4308  1.2060
   15CHL1  H24B 1100   2.653   5.301   8.854 -0.4390  0.2241 -0.2954
   15CHL1   C25 1101   2.847   5.315   8.755 -0.0757 -0.3660  0.1519
   15CHL1   H25 1102   2.955   5.311   8.780  0.5839  0.2192 -2.4084
   15CHL1   C26 1103   2.820   5.204   8.651  0.1227  0.3061 -0.5714
   15CHL1  H26A 1104   2.716   5.213   8.613  0.1376  1.6911 -0.3421
   15CHL1  H26B 1105   2.874   5.222   8.556  0.1904  2.3976 -0.1832
   15CHL1  H26C 1106   2.841   5.103   8.691 -0.5004  1.3282  2.5970
   15CHL1   C27 1107   2.831   5.456   8.698  0.2588  0.2577 -0.2766
   15CHL1  H27A 1108   2.833   5.541   8.770  3.6473  0.4561 -0.4515
   15CHL1  H27B 1109   2.921   5.476   8.635  1.2923  0.0922  1.1151
   15CHL1  H27C 1110   2.750   5.462   8.622  1.2884 -0.2030 -1.4469
   16CHL1    C3 1111   4.467   6.575  10.363  0.4961  0.2285 -0.3285
   16CHL1    H3 1112   4.527   6.491  10.405 -1.9942 -0.7847  1.4260
   16CHL1    O3 1113   4.428   6.666  10.464  0.1824 -0.5649  0.0915
   16CHL1   H3' 1114   4.334   6.679  10.446  0.4524  1.0803 -0.3359
   16CHL1    C4 1115   4.558   6.657  10.281  0.2439  0.3403 -1.0323
   16CHL1   H4A 1116   4.521   6.760  10.265 -0.8346  0.1403  0.0333
   16CHL1   H4B 1117   4.658   6.663  10.328  0.4683 -1.2979 -1.2201
   16CHL1    C5 1118   4.585   6.589  10.149 -0.0861  0.1142  0.5150
   16CHL1    C6 1119   4.714   6.575  10.104 -0.1460  0.9601 -0.7151
   16CHL1    H6 1120   4.796   6.596  10.174  1.6945 -2.0902 -1.7709
   16CHL1    C7 1121   4.746   6.516   9.976  0.1139 -0.1651 -0.7684
   16CHL1   H7A 1122   4.834   6.566   9.930  1.2843 -0.9871  0.5455
   16CHL1   H7B 1123   4.756   6.408   9.997 -1.7159 -0.1644  0.3695
   16CHL1    C8 1124   4.627   6.534   9.876 -0.0810  0.9588 -0.2995
   16CHL1    H8 1125   4.623   6.642   9.850 -0.5828  1.1409  0.5082
   16CHL1   C14 1126   4.654   6.449   9.758  0.2881  0.1894  0.3917
   16CHL1   H14 1127   4.654   6.345   9.795 -1.4931  0.4934  1.3686
   16CHL1   C15 1128   4.782   6.478   9.683 -0.6302 -0.5142 -0.0328
   16CHL1  H15A 1129   4.807   6.586   9.686  0.5842 -0.7563 -0.5182
   16CHL1  H15B 1130   4.870   6.438   9.738  0.0985 -0.5361 -1.1903
   16CHL1   C16 1131   4.764   6.416   9.550  0.3190  0.0121 -0.2593
   16CHL1  H16A 1132   4.802   6.470   9.461  0.1734 -1.7948 -1.4711
   16CHL1  H16B 1133   4.814   6.316   9.557 -0.9459 -0.8014 -2.0031
   16CHL1   C17 1134   4.610   6.382   9.538  0.7662 -0.1305  0.1424
   16CHL1   H17 1135   4.605   6.274   9.566  1.2870 -0.4206 -0.8562
   16CHL1   C13 1136   4.553   6.460   9.652 -0.2797 -0.6116  0.5666
   16CHL1   C18 1137   4.532   6.609   9.608 -0.6877 -0.0281 -1.0133
   16CHL1  H18A 1138   4.624   6.658   9.568  1.1929 -1.8080  0.8960
   16CHL1  H18B 1139   4.461   6.617   9.523 -1.0124  0.4305 -0.7050
   16CHL1  H18C 1140   4.487   6.666   9.692 -0.5094 -1.8726  0.3999
   16CHL1   C12 1141   4.425   6.392   9.706  0.0694 -0.2851  0.5642
   16CHL1  H12A 1142   4.343   6.432   9.643  0.3983  2.3851  1.6574
   16CHL1  H12B 1143   4.442   6.283   9.701  1.3269 -0.1020 -5.3208
   16CHL1   C11 1144   4.380   6.448   9.839 -0.4287  0.3404 -0.2045
   16CHL1  H11A 1145   4.331   6.544   9.811  2.3825  1.9218 -0.0891
   16CHL1  H11B 1146   4.300   6.388   9.886 -0.2900  0.8150  0.6532
   16CHL1    C9 1147   4.497   6.473   9.941 -0.4778 -0.1616  1.0492
   16CHL1    H9 1148   4.530   6.371   9.971  2.3117  0.0646 -0.9279
   16CHL1   C10 1149   4.461   6.549  10.061  0.1548 -0.7888  0.3020
   16CHL1   C19 1150   4.391   6.686  10.013  0.3206 -0.5476  0.0342
   16CHL1  H19A 1151   4.359   6.746  10.101 -2.5308 -0.9264 -0.6437
   16CHL1  H19B 1152   4.451   6.744   9.939  1.9769 -1.5084  0.5729
   16CHL1  H19C 1153   4.292   6.670   9.966 -0.9533  0.1754  2.3127
   16CHL1    C1 1154   4.370   6.463  10.153 -0.2383  0.1111  1.1140
   16CHL1   H1A 1155   4.281   6.459  10.087  1.4025  1.5017 -1.4058
   16CHL1   H1B 1156   4.406   6.358  10.162 -1.2535 -0.3813 -0.2111
   16CHL1    C2 1157   4.343   6.532  10.290  0.1698  0.6649 -0.5751
   16CHL1   H2A 1158   4.280   6.464  10.352  0.4884 -1.4094 -2.3976
   16CHL1   H2B 1159   4.274   6.619  10.281 -0.2175  0.2967 -1.3135
   16CHL1   C20 1160   4.548   6.389   9.401  0.5436 -0.1469  0.0233
   16CHL1   H20 1161   4.440   6.405   9.422  0.6250 -1.4914  1.6496
   16CHL1   C21 1162   4.560   6.247   9.330  0.5454 -0.6552 -0.2358
   16CHL1  H21A 1163   4.538   6.249   9.221  1.0874  3.8141 -0.4569
   16CHL1  H21B 1164   4.488   6.176   9.376  0.6188 -1.0596 -0.7410
   16CHL1  H21C 1165   4.663   6.207   9.344  0.4534 -0.0183  3.5416
   16CHL1   C22 1166   4.595   6.508   9.308  0.4808 -0.3591  0.4997
   16CHL1  H22A 1167   4.606   6.604   9.363 -0.9130 -0.0593  0.3042
   16CHL1  H22B 1168   4.684   6.477   9.249 -0.3544 -0.3488 -0.8216
   16CHL1   C23 1169   4.482   6.541   9.207 -0.2992 -0.6926  0.3595
   16CHL1  H23A 1170   4.466   6.454   9.139  0.0924 -0.8653  0.4894
   16CHL1  H23B 1171   4.388   6.560   9.262  0.1138 -1.3700  1.3230
   16CHL1   C24 1172   4.523   6.659   9.123  0.1645  0.3675  0.1180
   16CHL1  H24A 1173   4.540   6.744   9.192  0.0178 -0.3079  0.9949
   16CHL1  H24B 1174   4.622   6.646   9.074  0.5010 -0.4748  0.9949
   16CHL1   C25 1175   4.435   6.687   8.991  0.5135 -0.0691 -0.7767
   16CHL1   H25 1176   4.328   6.670   9.015  0.8993 -2.1028 -0.2674
   16CHL1   C26 1177   4.460   6.836   8.955 -0.1088  0.7468 -0.0178
   16CHL1  H26A 1178   4.568   6.861   8.969  1.6985 -5.0418 -1.1381
   16CHL1  H26B 1179   4.434   6.852   8.848  0.1066 -0.6954 -0.3054
   16CHL1  H26C 1180   4.396   6.905   9.014 -2.8300 -0.8925 -0.9060
   16CHL1   C27 1181   4.467   6.592   8.873  0.4544  0.1125 -0.3387
   16CHL1  H27A 1182   4.477   6.485   8.900  0.3396  0.2903  0.4169
   16CHL1  H27B 1183   4.388   6.607   8.797  0.4168 -0.0512 -0.3313
   16CHL1  H27C 1184   4.563   6.609   8.819  0.7599  0.3313  0.2651
   17CHL1    C3 1185   0.382   4.103  10.428  0.3351 -0.5343  0.0649
   17CHL1    H3 1186   0.308   4.185  10.412 -0.3039 -0.8265  1.4022
   17CHL1    O3 1187   0.381   4.065  10.563  0.0203 -0.1913  0.5152
   17CHL1   H3' 1188   0.314   3.997  10.564 -1.3336  0.5588 -5.1198
   17CHL1    C4 1189   0.354   3.977  10.340  0.6909 -0.0532 -0.8522
   17CHL1   H4A 1190   0.421   3.899  10.381 -1.1529 -1.1844  0.1793
   17CHL1   H4B 1191   0.252   3.943  10.369  0.8728  0.2566  0.2067
   17CHL1    C5 1192   0.377   3.989  10.188 -0.5291 -0.7389 -0.1206
   17CHL1    C6 1193   0.276   3.958  10.102  0.9792  0.5594 -0.3727
   17CHL1    H6 1194   0.174   3.939  10.137  1.2153 -0.5249 -0.2579
   17CHL1    C7 1195   0.283   3.967   9.954  0.1577 -0.1808 -0.2955
   17CHL1   H7A 1196   0.238   3.876   9.909  0.0743  0.0534 -0.6853
   17CHL1   H7B 1197   0.226   4.051   9.909  1.4282 -0.2110 -2.0337
   17CHL1    C8 1198   0.435   3.983   9.907  0.9194  0.3613  0.1044
   17CHL1    H8 1199   0.461   3.877   9.925 -3.5517 -0.7936  1.0958
   17CHL1   C14 1200   0.438   4.029   9.763  0.1529 -0.5993 -0.0584
   17CHL1   H14 1201   0.385   4.127   9.758  1.6701  0.3533  1.3004
   17CHL1   C15 1202   0.354   3.957   9.658  0.6392  0.0438  0.0812
   17CHL1  H15A 1203   0.361   3.848   9.673  1.1459  0.1282  0.5045
   17CHL1  H15B 1204   0.249   3.991   9.664  0.2118 -1.4174  1.4951
   17CHL1   C16 1205   0.414   3.989   9.523  0.3878  0.3448 -0.3036
   17CHL1  H16A 1206   0.442   3.899   9.464  3.5951 -1.4115  3.4713
   17CHL1  H16B 1207   0.349   4.057   9.464  2.6572  1.5442 -1.5500
   17CHL1   C17 1208   0.527   4.082   9.555  0.0784  1.1045  0.0806
   17CHL1   H17 1209   0.486   4.185   9.562 -0.7670  0.7119  1.2933
   17CHL1   C13 1210   0.571   4.045   9.696 -0.5902 -0.7696  0.2595
   17CHL1   C18 1211   0.657   3.916   9.702  0.0083 -0.4133 -0.0304
   17CHL1  H18A 1212   0.623   3.853   9.617  1.5800 -0.0243 -0.9944
   17CHL1  H18B 1213   0.764   3.940   9.683 -0.4690  1.9115 -0.0136
   17CHL1  H18C 1214   0.646   3.864   9.800  2.7756 -1.5399 -0.2333
   17CHL1   C12 1215   0.647   4.152   9.784 -0.5596 -0.1660 -0.5960
   17CHL1  H12A 1216   0.751   4.144   9.745  0.3676 -2.4018  2.0533
   17CHL1  H12B 1217   0.598   4.246   9.752 -1.9891 -0.4485  0.6662
   17CHL1   C11 1218   0.648   4.130   9.935 -0.4551  0.4411  0.0711
   17CHL1  H11A 1219   0.726   4.053   9.953  0.8112  1.3789 -1.2237
   17CHL1  H11B 1220   0.685   4.220   9.987  1.5120  1.5955 -3.0615
   17CHL1    C9 1221   0.514   4.089   9.991  0.4194 -0.7836 -0.3006
   17CHL1    H9 1222   0.443   4.174   9.984 -0.4031 -0.9922  3.4394
   17CHL1   C10 1223   0.515   4.053  10.146  0.2931  0.0834 -0.3447
   17CHL1   C19 1224   0.625   3.947  10.170 -0.1759 -0.4425 -0.1978
   17CHL1  H19A 1225   0.726   3.988  10.148 -0.1325 -0.8517 -0.7829
   17CHL1  H19B 1226   0.613   3.914  10.276 -0.5283 -1.7492 -0.6250
   17CHL1  H19C 1227   0.610   3.857  10.106  0.3878 -0.5651 -0.1621
   17CHL1    C1 1228   0.534   4.176  10.238 -0.3386  0.0965 -0.1145
   17CHL1   H1A 1229   0.642   4.199  10.229 -0.5442  1.2322  0.1655
   17CHL1   H1B 1230   0.474   4.262  10.202 -2.4155 -0.8382  0.9498
   17CHL1    C2 1231   0.516   4.159  10.390 -0.3218 -0.3574  0.1343
   17CHL1   H2A 1232   0.532   4.260  10.435 -1.8646 -0.7389  1.6619
   17CHL1   H2B 1233   0.595   4.094  10.433 -0.0102 -1.2370 -1.7064
   17CHL1   C20 1234   0.628   4.094   9.440 -0.3728 -0.1738  1.6715
   17CHL1   H20 1235   0.702   4.012   9.437 -0.3185 -0.0872 -0.3052
   17CHL1   C21 1236   0.720   4.214   9.457 -1.0283  0.6408  0.3194
   17CHL1  H21A 1237   0.811   4.197   9.396  0.5620  0.4060  2.6074
   17CHL1  H21B 1238   0.751   4.224   9.564 -3.4411  1.6574  0.9811
   17CHL1  H21C 1239   0.674   4.307   9.418 -2.6359  0.9275  2.6876
   17CHL1   C22 1240   0.563   4.101   9.298  0.4322  0.1587 -0.5963
   17CHL1  H22A 1241   0.496   4.014   9.279 -1.7856  0.8609  3.0975
   17CHL1  H22B 1242   0.496   4.189   9.296 -0.0942  0.1501  4.4496
   17CHL1   C23 1243   0.672   4.111   9.190  0.0312 -0.1705  0.0214
   17CHL1  H23A 1244   0.731   4.205   9.194 -1.0809  0.5122  1.0932
   17CHL1  H23B 1245   0.738   4.022   9.200 -0.3638 -0.3463  1.3054
   17CHL1   C24 1246   0.606   4.100   9.054 -0.3379  0.2404  0.0511
   17CHL1  H24A 1247   0.541   4.010   9.058  0.2968 -0.1928  0.9081
   17CHL1  H24B 1248   0.542   4.190   9.047 -1.4466 -0.3668  1.8287
   17CHL1   C25 1249   0.700   4.098   8.928 -0.6132  0.0030 -0.7675
   17CHL1   H25 1250   0.633   4.077   8.842  1.0573 -2.1084 -1.6555
   17CHL1   C26 1251   0.759   4.241   8.921  0.0003  0.6057  0.1604
   17CHL1  H26A 1252   0.808   4.279   9.013  0.9189  3.0786 -1.2687
   17CHL1  H26B 1253   0.826   4.241   8.832 -1.2210 -1.7157 -0.8388
   17CHL1  H26C 1254   0.680   4.318   8.912 -0.4705  0.0960 -0.2161
   17CHL1   C27 1255   0.806   3.985   8.929  0.3981 -0.4171  0.2745
   17CHL1  H27A 1256   0.853   3.981   9.030 -1.0737  0.9419  1.0656
   17CHL1  H27B 1257   0.766   3.887   8.897  0.1828  0.4806 -2.4174
   17CHL1  H27C 1258   0.887   4.011   8.857 -0.3138  1.5635  0.1248
   18CHL1    C3 1259   6.364   2.834  10.105  0.3106  0.0679  0.9622
   18CHL1    H3 1260   6.274   2.874  10.054  0.9072  1.0899  0.6842
   18CHL1    O3 1261   6.356   2.855  10.243 -0.1237  0.1471  0.5919
   18CHL1   H3' 1262   6.443   2.821  10.266 -0.3286  0.2534  1.5763
   18CHL1    C4 1263   6.381   2.684  10.081 -0.0677  0.1755 -0.1235
   18CHL1   H4A 1264   6.477   2.645  10.123  0.3057 -0.3437 -1.4271
   18CHL1   H4B 1265   6.301   2.626  10.132  0.1492  0.5234  0.6359
   18CHL1    C5 1266   6.374   2.658   9.927  0.1864 -0.2258  0.3696
   18CHL1    C6 1267   6.283   2.578   9.875  0.0881  0.2345  0.2590
   18CHL1    H6 1268   6.209   2.525   9.937  0.1008  0.3422  0.3672
   18CHL1    C7 1269   6.264   2.554   9.728 -0.4309 -0.0469  0.0508
   18CHL1   H7A 1270   6.239   2.449   9.702 -3.0711  0.0778  1.6733
   18CHL1   H7B 1271   6.176   2.613   9.695  0.8950  1.4073 -1.0338
   18CHL1    C8 1272   6.382   2.605   9.649 -0.2138 -0.1712 -0.1044
   18CHL1    H8 1273   6.461   2.528   9.660  0.8689  0.8834 -0.1792
   18CHL1   C14 1274   6.339   2.621   9.505 -0.1363 -0.1447  0.0835
   18CHL1   H14 1275   6.261   2.700   9.509 -0.1037 -0.1500  2.1996
   18CHL1   C15 1276   6.256   2.506   9.444 -0.1796 -0.2635 -0.2256
   18CHL1  H15A 1277   6.307   2.409   9.462 -0.9319 -0.5606  0.3717
   18CHL1  H15B 1278   6.154   2.503   9.488 -0.4188 -2.7223 -0.7977
   18CHL1   C16 1279   6.256   2.541   9.295 -0.6093  0.2972 -0.0014
   18CHL1  H16A 1280   6.298   2.453   9.241 -0.2134  0.8358 -0.5848
   18CHL1  H16B 1281   6.156   2.575   9.262  0.6916  3.2279 -1.3173
   18CHL1   C17 1282   6.355   2.662   9.273 -0.2751  0.1875  0.0008
   18CHL1   H17 1283   6.288   2.750   9.270 -0.6106 -0.0921 -1.3988
   18CHL1   C13 1284   6.441   2.668   9.404 -0.2371  0.5962  0.1177
   18CHL1   C18 1285   6.557   2.568   9.398 -0.2186 -0.4170  0.1989
   18CHL1  H18A 1286   6.640   2.599   9.330 -0.4762 -0.7255 -0.2581
   18CHL1  H18B 1287   6.604   2.546   9.496  1.7473 -0.2977 -0.6575
   18CHL1  H18C 1288   6.520   2.468   9.369  1.8988 -0.5830 -2.3633
   18CHL1   C12 1289   6.489   2.805   9.450 -0.1171 -0.9386  0.0306
   18CHL1  H12A 1290   6.565   2.848   9.380 -0.9881  1.8384  0.6966
   18CHL1  H12B 1291   6.415   2.887   9.446  1.6548  0.7270  0.1219
   18CHL1   C11 1292   6.535   2.799   9.593 -0.6925 -0.2704 -0.6677
   18CHL1  H11A 1293   6.629   2.740   9.599  0.1990  1.2381  1.7833
   18CHL1  H11B 1294   6.565   2.902   9.619 -0.0102 -0.4607 -0.6859
   18CHL1    C9 1295   6.428   2.748   9.695 -0.4082 -0.0054  0.6212
   18CHL1    H9 1296   6.340   2.814   9.684  0.3746  1.1686  1.2047
   18CHL1   C10 1297   6.471   2.751   9.844  0.3648 -0.7875 -0.0353
   18CHL1   C19 1298   6.609   2.682   9.860  0.3572 -1.7410  0.1785
   18CHL1  H19A 1299   6.610   2.584   9.808 -2.0529 -1.4996 -0.4161
   18CHL1  H19B 1300   6.692   2.740   9.812 -1.3730 -1.1070 -2.2490
   18CHL1  H19C 1301   6.634   2.677   9.968  0.0818 -1.2388  0.2677
   18CHL1    C1 1302   6.478   2.903   9.890  0.2141  0.0435 -0.2365
   18CHL1   H1A 1303   6.572   2.951   9.854  1.2111 -1.0234  0.8534
   18CHL1   H1B 1304   6.388   2.951   9.845  1.0789  1.5772 -0.4148
   18CHL1    C2 1305   6.474   2.915  10.042 -0.7899 -0.4149  0.5933
   18CHL1   H2A 1306   6.471   3.022  10.069  1.4166 -0.7684  2.5037
   18CHL1   H2B 1307   6.568   2.873  10.084  1.0311  0.2581 -2.4798
   18CHL1   C20 1308   6.431   2.654   9.135  0.5478  0.2296 -0.7998
   18CHL1   H20 1309   6.501   2.568   9.137  0.9702  0.5599 -1.0665
   18CHL1   C21 1310   6.509   2.787   9.115  0.2208 -0.4277 -0.1009
   18CHL1  H21A 1311   6.540   2.793   9.008 -1.8490  2.4840 -0.6615
   18CHL1  H21B 1312   6.601   2.783   9.177  0.5435 -0.9422 -0.6061
   18CHL1  H21C 1313   6.444   2.870   9.150 -0.2967 -0.6406 -0.5544
   18CHL1   C22 1314   6.329   2.651   9.017  0.8215 -0.7043  0.2966
   18CHL1  H22A 1315   6.389   2.664   8.925  0.0603 -1.1422 -0.2721
   18CHL1  H22B 1316   6.273   2.555   9.020  1.0647 -0.8310  0.9557
   18CHL1   C23 1317   6.225   2.769   9.007 -0.4196 -0.1205  0.2879
   18CHL1  H23A 1318   6.176   2.777   9.107 -1.3722 -3.4081  0.2098
   18CHL1  H23B 1319   6.286   2.859   8.982  0.6688 -0.7096  0.7327
   18CHL1   C24 1320   6.114   2.742   8.909 -0.0621  0.2941 -0.3369
   18CHL1  H24A 1321   6.152   2.743   8.805 -0.3230  2.1563 -0.4500
   18CHL1  H24B 1322   6.063   2.650   8.944  0.2599  0.9049  1.8954
   18CHL1   C25 1323   5.997   2.845   8.915 -0.9984  0.2527  0.3124
   18CHL1   H25 1324   5.972   2.844   9.023  1.3082 -1.9400  0.9269
   18CHL1   C26 1325   6.039   2.978   8.854  0.4658  0.0093  0.6769
   18CHL1  H26A 1326   6.128   3.015   8.909  1.0008  1.2147 -0.9065
   18CHL1  H26B 1327   6.061   2.959   8.747 -0.7053 -2.4239  0.7950
   18CHL1  H26C 1328   5.963   3.058   8.865  0.4591 -0.2328  2.9184
   18CHL1   C27 1329   5.870   2.796   8.847  0.0488 -0.8452  0.6253
   18CHL1  H27A 1330   5.880   2.792   8.737  1.0083 -0.0370  0.6696
   18CHL1  H27B 1331   5.846   2.693   8.882  0.8607 -1.1142  0.4084
   18CHL1  H27C 1332   5.787   2.864   8.874  0.1634 -1.0386  1.5127
   19CHL1    C3 1333   2.138   5.896  10.273  0.5740 -0.2657 -0.1045
   19CHL1    H3 1334   2.245   5.875  10.293  0.4302 -0.0980  0.8995
   19CHL1    O3 1335   2.062   5.892  10.396 -0.1014 -0.4458 -0.2273
   19CHL1   H3' 1336   2.061   5.983  10.427  1.9298  0.4165 -2.3673
   19CHL1    C4 1337   2.117   6.043  10.209 -0.6095  0.7827  0.6864
   19CHL1   H4A 1338   2.008   6.063  10.224 -0.9452 -1.1935  1.1539
   19CHL1   H4B 1339   2.198   6.104  10.255  3.3700 -4.0205  0.8029
   19CHL1    C5 1340   2.164   6.037  10.061 -0.4651 -0.3724  0.2473
   19CHL1    C6 1341   2.248   6.129  10.013  0.8318 -0.2985  0.0323
   19CHL1    H6 1342   2.283   6.217  10.068  2.1459 -0.9714  0.3258
   19CHL1    C7 1343   2.282   6.132   9.869  0.6982  0.2379  0.4254
   19CHL1   H7A 1344   2.276   6.235   9.829  0.5785 -0.1395 -0.5544
   19CHL1   H7B 1345   2.389   6.103   9.859  0.3132 -2.1274  2.1667
   19CHL1    C8 1346   2.198   6.043   9.773  0.5277 -1.4978 -0.3587
   19CHL1    H8 1347   2.105   6.102   9.758  1.9361  0.3333 -2.4947
   19CHL1   C14 1348   2.267   6.010   9.639  0.1154  0.0524  0.2478
   19CHL1   H14 1349   2.359   5.952   9.663 -0.8586 -2.9390 -2.5066
   19CHL1   C15 1350   2.313   6.135   9.558 -0.3732 -0.1676 -0.9613
   19CHL1  H15A 1351   2.242   6.220   9.565 -1.8386 -1.4772  1.7605
   19CHL1  H15B 1352   2.406   6.172   9.605 -0.1064 -1.3507 -0.5172
   19CHL1   C16 1353   2.324   6.084   9.414 -0.5979 -0.0682 -0.5530
   19CHL1  H16A 1354   2.271   6.157   9.350  2.9635  2.8607 -0.5110
   19CHL1  H16B 1355   2.431   6.096   9.386  0.8633 -3.0276  2.9025
   19CHL1   C17 1356   2.279   5.939   9.420  0.7216  0.0349 -0.5293
   19CHL1   H17 1357   2.367   5.875   9.441  0.0970 -0.7590 -0.2745
   19CHL1   C13 1358   2.183   5.929   9.538 -0.6894 -0.2116 -0.5447
   19CHL1   C18 1359   2.053   5.991   9.501  0.1803 -0.1471 -0.1081
   19CHL1  H18A 1360   2.000   6.019   9.595  1.0727  1.2335  0.0191
   19CHL1  H18B 1361   2.067   6.089   9.449 -2.7801  1.0658  1.1467
   19CHL1  H18C 1362   1.999   5.922   9.433  2.7754 -1.5539 -0.8847
   19CHL1   C12 1363   2.158   5.794   9.603  0.5514 -0.4117 -0.1612
   19CHL1  H12A 1364   2.101   5.727   9.535  2.0152 -2.5675  0.6266
   19CHL1  H12B 1365   2.253   5.739   9.619  0.6472 -0.0846  0.4286
   19CHL1   C11 1366   2.085   5.812   9.741 -0.4192  0.4362  0.9578
   19CHL1  H11A 1367   1.984   5.848   9.714 -0.6072  0.7093  1.9870
   19CHL1  H11B 1368   2.069   5.710   9.780 -1.9895 -0.2625 -1.2996
   19CHL1    C9 1369   2.159   5.912   9.840 -0.5904  0.5296  0.6015
   19CHL1    H9 1370   2.258   5.867   9.861  0.4090  1.6495 -1.4059
   19CHL1   C10 1371   2.097   5.931   9.976  0.3864 -0.3089 -0.3388
   19CHL1   C19 1372   1.946   5.948   9.965 -0.2449 -0.4222  0.2866
   19CHL1  H19A 1373   1.933   6.030   9.891  3.2331  1.7149  1.7963
   19CHL1  H19B 1374   1.901   5.852   9.934  1.8986 -0.6223 -2.6686
   19CHL1  H19C 1375   1.906   5.980  10.064  3.3551 -2.1033  2.5121
   19CHL1    C1 1376   2.113   5.798  10.047  0.5017 -0.1192 -0.3203
   19CHL1   H1A 1377   2.058   5.719   9.991 -3.2589  1.3006  1.1191
   19CHL1   H1B 1378   2.224   5.785  10.045  0.5483 -0.3517  1.8374
   19CHL1    C2 1379   2.066   5.792  10.194  0.0024  0.1177  0.3904
   19CHL1   H2A 1380   2.078   5.688  10.233 -2.2176 -0.9209 -1.3893
   19CHL1   H2B 1381   1.959   5.824  10.198  0.2158  0.7829  0.7573
   19CHL1   C20 1382   2.231   5.883   9.282  0.5377  0.2302 -0.0422
   19CHL1   H20 1383   2.138   5.936   9.252  0.0371 -0.4006  0.3553
   19CHL1   C21 1384   2.201   5.727   9.293 -0.6626 -0.6084 -0.3601
   19CHL1  H21A 1385   2.279   5.665   9.342 -1.0462 -1.3489 -0.6721
   19CHL1  H21B 1386   2.185   5.679   9.194 -2.5958 -1.5507  0.3649
   19CHL1  H21C 1387   2.099   5.710   9.333  0.5042 -1.1780  2.6454
   19CHL1   C22 1388   2.328   5.909   9.161  0.2479 -0.7116 -0.3485
   19CHL1  H22A 1389   2.359   6.015   9.173 -1.9429 -0.1167  0.6227
   19CHL1  H22B 1390   2.418   5.848   9.184 -0.2748 -1.4445 -0.1889
   19CHL1   C23 1391   2.284   5.866   9.022  0.2024  0.2385  0.1051
   19CHL1  H23A 1392   2.267   5.757   9.010  0.5831  0.4070 -2.6494
   19CHL1  H23B 1393   2.187   5.918   9.005  0.6776  1.5460  1.1944
   19CHL1   C24 1394   2.389   5.896   8.910  0.3066  0.1437 -0.6169
   19CHL1  H24A 1395   2.437   5.993   8.936 -0.4332 -0.2885  2.7273
   19CHL1  H24B 1396   2.468   5.818   8.919 -0.1396 -0.0890  2.4243
   19CHL1   C25 1397   2.333   5.902   8.766 -0.6172 -0.4144  0.1500
   19CHL1   H25 1398   2.260   5.986   8.767 -0.6478 -0.4414  0.7014
   19CHL1   C26 1399   2.452   5.922   8.673 -0.2833 -0.8682  0.1872
   19CHL1  H26A 1400   2.435   5.886   8.569 -0.8863 -3.8048  1.2143
   19CHL1  H26B 1401   2.476   6.030   8.657 -2.3233 -0.7670 -3.0798
   19CHL1  H26C 1402   2.538   5.861   8.709  0.1449 -1.1031 -1.1781
   19CHL1   C27 1403   2.256   5.770   8.724 -0.3432 -0.9568 -0.0174
   19CHL1  H27A 1404   2.320   5.681   8.743  0.2901 -0.5959 -0.4086
   19CHL1  H27B 1405   2.163   5.764   8.785 -0.9752 -1.2899 -0.9999
   19CHL1  H27C 1406   2.224   5.779   8.618  1.1110 -2.3618 -0.6182
   20CHL1    C3 1407   4.318   0.397  10.257  0.2447  0.1396 -0.0988
   20CHL1    H3 1408   4.428   0.384  10.252  0.3552  0.8474  0.3349
   20CHL1    O3 1409   4.292   0.404  10.397 -0.1639  0.5054 -0.5768
   20CHL1   H3' 1410   4.299   0.494  10.431 -0.1859  0.6761 -1.0175
   20CHL1    C4 1411   4.272   0.524  10.194  0.3506 -0.7367 -0.6578
   20CHL1   H4A 1412   4.161   0.529  10.197  0.3158 -1.9044  1.5579
   20CHL1   H4B 1413   4.305   0.610  10.255 -0.6906 -0.0372 -1.0428
   20CHL1    C5 1414   4.323   0.530  10.047 -0.2545  0.4710 -0.5567
   20CHL1    C6 1415   4.404   0.626  10.005  0.1790  0.7895  0.4504
   20CHL1    H6 1416   4.410   0.718  10.064 -3.2456  1.5132 -0.1635
   20CHL1    C7 1417   4.453   0.637   9.861 -0.4860 -0.8208 -0.1865
   20CHL1   H7A 1418   4.450   0.742   9.827 -0.6627 -1.0413 -0.8584
   20CHL1   H7B 1419   4.560   0.606   9.870  0.1602  1.6674  2.2976
   20CHL1    C8 1420   4.383   0.541   9.767  1.0798 -0.2201  0.0013
   20CHL1    H8 1421   4.285   0.586   9.741 -0.0992 -3.0778 -0.9523
   20CHL1   C14 1422   4.453   0.525   9.630  0.9817 -0.2164  0.5003
   20CHL1   H14 1423   4.544   0.474   9.668  1.5024  2.3767  3.1311
   20CHL1   C15 1424   4.503   0.646   9.551  0.1557  0.1037 -0.3191
   20CHL1  H15A 1425   4.430   0.730   9.546 -0.1947 -0.0902  1.0340
   20CHL1  H15B 1426   4.592   0.695   9.597  1.5818 -2.6432  0.0442
   20CHL1   C16 1427   4.547   0.588   9.418 -0.3080 -0.3989  0.0473
   20CHL1  H16A 1428   4.515   0.655   9.335 -0.4723 -0.8958 -0.2961
   20CHL1  H16B 1429   4.658   0.593   9.423 -0.0721  1.0060 -3.5568
   20CHL1   C17 1430   4.495   0.444   9.411 -0.8233  0.4795 -0.5697
   20CHL1   H17 1431   4.579   0.381   9.447 -0.5699  1.7218  1.1293
   20CHL1   C13 1432   4.395   0.425   9.524  0.0947 -0.0138 -0.2048
   20CHL1   C18 1433   4.256   0.482   9.486 -0.0661 -0.2739  0.5466
   20CHL1  H18A 1434   4.217   0.399   9.423 -1.5277 -0.1405  1.2363
   20CHL1  H18B 1435   4.187   0.503   9.571 -2.6812  0.4955 -1.6118
   20CHL1  H18C 1436   4.253   0.572   9.421 -0.1592 -0.7253 -0.0787
   20CHL1   C12 1437   4.381   0.285   9.590 -0.7371 -0.1402  0.5644
   20CHL1  H12A 1438   4.329   0.214   9.522  1.1594 -0.6008 -0.4792
   20CHL1  H12B 1439   4.483   0.243   9.606 -1.0435 -1.6707 -1.1822
   20CHL1   C11 1440   4.306   0.293   9.724  0.4423 -0.3510  0.3423
   20CHL1  H11A 1441   4.196   0.300   9.712  0.4109 -2.2929 -0.9137
   20CHL1  H11B 1442   4.313   0.194   9.774 -1.8613 -1.4078 -1.2916
   20CHL1    C9 1443   4.360   0.404   9.822  0.4485  0.6342  0.5148
   20CHL1    H9 1444   4.454   0.358   9.859  0.4396  0.3524  0.1933
   20CHL1   C10 1445   4.281   0.410   9.960 -0.3852 -0.4673  0.2764
   20CHL1   C19 1446   4.139   0.437   9.929 -0.1363 -0.3354 -0.7608
   20CHL1  H19A 1447   4.115   0.511   9.850 -0.1829 -1.7888 -2.1665
   20CHL1  H19B 1448   4.095   0.342   9.890  2.1465 -0.2837 -3.8802
   20CHL1  H19C 1449   4.078   0.461  10.019  1.1828  1.3631 -0.2805
   20CHL1    C1 1450   4.300   0.275  10.042 -0.0515 -0.1343  0.3458
   20CHL1   H1A 1451   4.236   0.189  10.013 -1.8107  0.1278  3.1272
   20CHL1   H1B 1452   4.406   0.243  10.051  1.1627  3.8485  2.7050
   20CHL1    C2 1453   4.256   0.279  10.187 -0.7532  0.6116 -0.0794
   20CHL1   H2A 1454   4.281   0.186  10.243 -1.0924  0.1528 -0.6705
   20CHL1   H2B 1455   4.145   0.280  10.194 -0.6342  0.4845  2.8753
   20CHL1   C20 1456   4.456   0.398   9.267 -0.2823 -0.7618  0.2588
   20CHL1   H20 1457   4.381   0.471   9.231  1.5986  0.8112 -0.6640
   20CHL1   C21 1458   4.406   0.257   9.267  0.2865  0.3027 -0.0192
   20CHL1  H21A 1459   4.463   0.175   9.316  0.0288 -0.3205 -0.7405
   20CHL1  H21B 1460   4.388   0.226   9.162  0.4912 -2.4110  0.6813
   20CHL1  H21C 1461   4.300   0.257   9.302  1.4313 -1.8144  4.0727
   20CHL1   C22 1462   4.580   0.407   9.176  0.1087 -0.4774 -0.3222
   20CHL1  H22A 1463   4.658   0.477   9.213 -0.6932 -0.3126  1.1507
   20CHL1  H22B 1464   4.633   0.309   9.183 -0.1289 -0.5527  0.6162
   20CHL1   C23 1465   4.545   0.428   9.024 -0.1961  0.1770 -0.5354
   20CHL1  H23A 1466   4.634   0.416   8.959  0.6191  3.1766 -0.1477
   20CHL1  H23B 1467   4.469   0.351   9.003  0.1233 -1.2858  3.0091
   20CHL1   C24 1468   4.486   0.561   8.986  0.0823  1.0502  0.2583
   20CHL1  H24A 1469   4.381   0.566   9.023  0.4870 -2.1586  2.2485
   20CHL1  H24B 1470   4.547   0.641   9.033  0.2801  0.7418  0.5335
   20CHL1   C25 1471   4.487   0.603   8.838  0.4318 -0.3541  0.2704
   20CHL1   H25 1472   4.589   0.595   8.795 -0.5101 -0.5225 -2.1032
   20CHL1   C26 1473   4.389   0.515   8.758  0.2230  0.3030  0.5109
   20CHL1  H26A 1474   4.415   0.408   8.777 -0.4479 -0.2689 -1.5301
   20CHL1  H26B 1475   4.285   0.515   8.796  0.0166 -0.5428 -0.0242
   20CHL1  H26C 1476   4.388   0.539   8.649 -1.5634  0.9301  0.6351
   20CHL1   C27 1477   4.454   0.753   8.826 -0.0843 -0.5461  0.1593
   20CHL1  H27A 1478   4.347   0.780   8.839 -0.1938 -0.1853 -1.2774
   20CHL1  H27B 1479   4.518   0.809   8.898  0.1967  1.5152 -1.5723
   20CHL1  H27C 1480   4.481   0.785   8.723  0.1919  1.5223  0.8228
   21CHL1    C3 1481   6.265   4.122  10.094 -0.4131  0.2289  0.6698
   21CHL1    H3 1482   6.234   4.019  10.067  1.1749 -0.1143  0.0358
   21CHL1    O3 1483   6.343   4.120  10.210 -0.1597  0.1915  0.1687
   21CHL1   H3' 1484   6.287   4.146  10.283 -1.1947  1.9116 -1.1755
   21CHL1    C4 1485   6.345   4.202   9.993  0.1855  1.6245 -1.2077
   21CHL1   H4A 1486   6.355   4.305  10.031  0.0148  1.0029  0.6288
   21CHL1   H4B 1487   6.446   4.158   9.983  0.0278  0.8778  0.2737
   21CHL1    C5 1488   6.274   4.205   9.862 -0.5805  0.1586  0.2455
   21CHL1    C6 1489   6.333   4.151   9.751  0.3987 -0.3067  0.0819
   21CHL1    H6 1490   6.433   4.107   9.765 -0.4625 -1.8423  1.9076
   21CHL1    C7 1491   6.271   4.152   9.616  0.2693 -0.6879 -0.3808
   21CHL1   H7A 1492   6.333   4.197   9.536  0.3981 -1.6339 -0.8212
   21CHL1   H7B 1493   6.238   4.048   9.593 -1.7153 -0.0208 -0.8160
   21CHL1    C8 1494   6.141   4.237   9.616  0.7336  0.4381  0.0561
   21CHL1    H8 1495   6.172   4.343   9.609  2.9248 -0.0812  1.0732
   21CHL1   C14 1496   6.058   4.202   9.486  0.3615 -0.2056  0.6639
   21CHL1   H14 1497   6.015   4.099   9.493  0.6601 -0.3771  0.0192
   21CHL1   C15 1498   6.130   4.200   9.349 -0.3492 -0.8264 -0.4171
   21CHL1  H15A 1499   6.211   4.277   9.346  1.1916 -2.2781  1.4617
   21CHL1  H15B 1500   6.183   4.104   9.331  2.3247  0.7951 -1.7958
   21CHL1   C16 1501   6.019   4.235   9.247  0.4575  0.0290  0.7784
   21CHL1  H16A 1502   6.042   4.337   9.209  3.0387 -0.0112  2.0207
   21CHL1  H16B 1503   6.015   4.170   9.157 -0.2531  1.1135  0.0080
   21CHL1   C17 1504   5.888   4.227   9.328  0.7170 -0.1237  0.2210
   21CHL1   H17 1505   5.860   4.120   9.340 -2.3988  0.7227  1.3803
   21CHL1   C13 1506   5.925   4.279   9.467  0.6759 -0.5096 -0.1403
   21CHL1   C18 1507   5.946   4.422   9.459  0.0891  0.2984 -0.4223
   21CHL1  H18A 1508   5.852   4.478   9.441  0.3885  0.7640 -0.5671
   21CHL1  H18B 1509   5.981   4.468   9.554 -3.9430  1.1031  0.8534
   21CHL1  H18C 1510   6.018   4.447   9.378  1.6844 -0.4019  0.7088
   21CHL1   C12 1511   5.834   4.245   9.590 -0.9256 -0.4097 -0.3024
   21CHL1  H12A 1512   5.737   4.299   9.593 -0.3351  0.6505  0.2111
   21CHL1  H12B 1513   5.828   4.135   9.579  0.5927 -0.5903  0.4411
   21CHL1   C11 1514   5.912   4.274   9.717  0.8477 -0.3459  0.0935
   21CHL1  H11A 1515   5.906   4.383   9.740 -2.6808 -0.5448  0.6862
   21CHL1  H11B 1516   5.844   4.227   9.791 -0.7718  1.2190 -0.3305
   21CHL1    C9 1517   6.054   4.215   9.740  0.6379 -0.0368 -0.1533
   21CHL1    H9 1518   6.040   4.105   9.743 -0.5777  0.1174  0.8160
   21CHL1   C10 1519   6.127   4.251   9.867 -0.5107 -0.1161  0.2135
   21CHL1   C19 1520   6.146   4.403   9.876 -0.6460 -0.0812  0.3765
   21CHL1  H19A 1521   6.048   4.452   9.891 -2.0954 -1.7652 -2.7343
   21CHL1  H19B 1522   6.197   4.440   9.968  0.0705 -0.1715  0.0300
   21CHL1  H19C 1523   6.192   4.447   9.785  1.6997 -1.0091  1.0374
   21CHL1    C1 1524   6.055   4.194   9.986 -0.1560 -0.0307 -0.2841
   21CHL1   H1A 1525   5.962   4.251  10.008 -0.3676  0.2601 -1.8630
   21CHL1   H1B 1526   6.024   4.088   9.977 -2.6288  0.4545  1.4281
   21CHL1    C2 1527   6.137   4.196  10.118 -0.1874 -0.0063 -0.2835
   21CHL1   H2A 1528   6.090   4.140  10.202 -1.0716 -0.7251 -1.2424
   21CHL1   H2B 1529   6.167   4.295  10.161  1.4027 -0.7049  0.2968
   21CHL1   C20 1530   5.773   4.287   9.252  0.3342 -0.5152  0.2226
   21CHL1   H20 1531   5.793   4.391   9.217 -0.3359  0.8003  3.4608
   21CHL1   C21 1532   5.639   4.298   9.337 -0.6319  0.2942  0.2106
   21CHL1  H21A 1533   5.642   4.199   9.388  2.6587 -0.1035 -0.4948
   21CHL1  H21B 1534   5.547   4.322   9.280 -1.0329 -0.9022  0.3104
   21CHL1  H21C 1535   5.647   4.384   9.406 -0.7248  0.1165  0.4456
   21CHL1   C22 1536   5.735   4.204   9.121 -0.2549 -0.0583  0.0097
   21CHL1  H22A 1537   5.830   4.166   9.079 -0.5186 -0.9431  0.2079
   21CHL1  H22B 1538   5.684   4.120   9.171 -0.3251 -0.2235 -0.3361
   21CHL1   C23 1539   5.681   4.296   9.010  0.2584  0.2517 -0.0631
   21CHL1  H23A 1540   5.574   4.324   9.006 -0.1207 -1.2121 -1.7622
   21CHL1  H23B 1541   5.729   4.396   9.012 -1.1304  0.9340  0.4511
   21CHL1   C24 1542   5.697   4.223   8.874 -0.1297  0.0686 -0.5021
   21CHL1  H24A 1543   5.803   4.233   8.845 -0.3444 -0.1317 -1.4109
   21CHL1  H24B 1544   5.648   4.123   8.877 -3.0206  1.3975  1.5393
   21CHL1   C25 1545   5.619   4.293   8.758 -0.2988 -0.0761 -0.8132
   21CHL1   H25 1546   5.514   4.318   8.782 -0.9154 -2.4343 -0.7438
   21CHL1   C26 1547   5.685   4.421   8.721 -0.5663  0.4605  0.1636
   21CHL1  H26A 1548   5.639   4.464   8.629 -1.1025 -1.2700 -0.4070
   21CHL1  H26B 1549   5.674   4.497   8.802 -1.4738  0.2009  0.2921
   21CHL1  H26C 1550   5.791   4.398   8.700 -0.6086  0.1034  0.3328
   21CHL1   C27 1551   5.621   4.213   8.627  0.5887  0.1730 -0.0552
   21CHL1  H27A 1552   5.546   4.256   8.558  0.7910 -0.0717 -0.4318
   21CHL1  H27B 1553   5.723   4.207   8.583  0.4631  1.1931 -0.5162
   21CHL1  H27C 1554   5.595   4.108   8.649 -0.5725 -0.0940 -2.3926
   22CHL1    C3 1555   4.373   5.550   9.956 -0.0073  0.3801 -0.1873
   22CHL1    H3 1556   4.328   5.644   9.917 -1.0848  0.3679  0.9323
   22CHL1    O3 1557   4.455   5.566  10.073 -0.4564 -0.2941 -0.0498
   22CHL1   H3' 1558   4.387   5.570  10.141 -0.5797 -0.1542 -0.1804
   22CHL1    C4 1559   4.257   5.450   9.985 -0.8845 -0.4795  0.2576
   22CHL1   H4A 1560   4.296   5.360  10.038 -0.5328 -0.1170  0.6214
   22CHL1   H4B 1561   4.203   5.513  10.059  0.4415  1.2588 -0.1814
   22CHL1    C5 1562   4.187   5.415   9.859 -0.0375  0.9198  0.2792
   22CHL1    C6 1563   4.055   5.423   9.839 -0.4163  0.4108 -0.2353
   22CHL1    H6 1564   3.990   5.462   9.919  0.5267  2.3217 -0.3568
   22CHL1    C7 1565   3.974   5.384   9.717 -0.1235 -0.0319  0.0040
   22CHL1   H7A 1566   3.878   5.334   9.742 -0.5297  0.9251  0.3955
   22CHL1   H7B 1567   3.944   5.474   9.658 -1.1541  0.1762  0.8164
   22CHL1    C8 1568   4.055   5.307   9.614  0.0791  0.2677  0.1256
   22CHL1    H8 1569   4.056   5.200   9.646 -2.2623  1.0937  3.5356
   22CHL1   C14 1570   4.002   5.320   9.474  0.2130  0.0789  0.5132
   22CHL1   H14 1571   4.024   5.423   9.437 -1.1378  0.7742  1.5377
   22CHL1   C15 1572   3.851   5.288   9.455  1.1233 -0.1855  0.5202
   22CHL1  H15A 1573   3.818   5.205   9.523  1.4701  1.7324  3.1828
   22CHL1  H15B 1574   3.787   5.374   9.484  0.5737 -0.5586  0.4408
   22CHL1   C16 1575   3.841   5.247   9.307  0.4511  0.4896  0.3376
   22CHL1  H16A 1576   3.786   5.151   9.300  1.3247  0.0351 -0.5556
   22CHL1  H16B 1577   3.785   5.330   9.258 -2.8156  0.1912  3.1575
   22CHL1   C17 1578   3.983   5.245   9.251  0.2336  0.0503 -0.9470
   22CHL1   H17 1579   3.996   5.353   9.229 -0.6886 -0.0262 -1.9345
   22CHL1   C13 1580   4.072   5.224   9.370 -0.7933 -0.3357  0.0841
   22CHL1   C18 1581   4.074   5.075   9.403  0.1827 -0.6520  0.2705
   22CHL1  H18A 1582   4.118   5.044   9.500 -1.2868 -0.6230  0.9678
   22CHL1  H18B 1583   3.970   5.038   9.408  0.7662 -2.5415 -0.7194
   22CHL1  H18C 1584   4.116   5.011   9.323 -1.6130 -2.5352  0.7495
   22CHL1   C12 1585   4.217   5.274   9.349  0.3518 -0.1032 -0.4281
   22CHL1  H12A 1586   4.276   5.203   9.288  0.4967 -1.3506  1.0893
   22CHL1  H12B 1587   4.212   5.378   9.311  3.8952  0.0545 -0.7943
   22CHL1   C11 1588   4.287   5.280   9.486  0.3488  0.8873  0.2671
   22CHL1  H11A 1589   4.307   5.174   9.514  0.5354  0.6114 -0.8672
   22CHL1  H11B 1590   4.381   5.337   9.469 -0.3071  1.5366 -1.4148
   22CHL1    C9 1591   4.209   5.352   9.601  0.0015 -0.7237  0.0693
   22CHL1    H9 1592   4.198   5.456   9.564 -1.4672 -0.4087  1.2652
   22CHL1   C10 1593   4.275   5.363   9.743 -0.0706 -0.2144 -0.0076
   22CHL1   C19 1594   4.327   5.223   9.785  0.1640  0.5528 -0.8096
   22CHL1  H19A 1595   4.373   5.224   9.886  1.8397 -0.0756 -1.5216
   22CHL1  H19B 1596   4.245   5.148   9.781  0.4060  0.2441 -0.1057
   22CHL1  H19C 1597   4.409   5.174   9.729 -0.3401 -2.1516  0.6632
   22CHL1    C1 1598   4.400   5.463   9.721 -0.4440 -0.1444  0.0595
   22CHL1   H1A 1599   4.464   5.418   9.642  0.1688 -1.1036  1.0730
   22CHL1   H1B 1600   4.350   5.557   9.691  0.6478  0.4316 -0.0310
   22CHL1    C2 1601   4.476   5.507   9.843  0.6200  0.0678 -0.5226
   22CHL1   H2A 1602   4.545   5.593   9.828  0.5192  0.9468  3.1237
   22CHL1   H2B 1603   4.544   5.422   9.867  0.5334 -0.4149 -1.9157
   22CHL1   C20 1604   4.003   5.160   9.123  0.2067 -0.7221 -0.8507
   22CHL1   H20 1605   4.011   5.051   9.144  2.0644 -1.2340 -3.6340
   22CHL1   C21 1606   4.137   5.199   9.052 -0.0871  0.6025  0.0369
   22CHL1  H21A 1607   4.229   5.162   9.101  0.8205  0.8322 -1.4182
   22CHL1  H21B 1608   4.158   5.308   9.051  1.4524  0.3521  1.0781
   22CHL1  H21C 1609   4.139   5.165   8.946  1.7658 -2.3634  0.9127
   22CHL1   C22 1610   3.889   5.177   9.015 -0.9773 -0.0791 -0.3185
   22CHL1  H22A 1611   3.922   5.105   8.937  1.3615 -1.1531  1.5098
   22CHL1  H22B 1612   3.797   5.128   9.053 -0.9614 -1.1066 -1.5580
   22CHL1   C23 1613   3.855   5.312   8.962  0.2809  0.2153 -0.1066
   22CHL1  H23A 1614   3.792   5.371   9.032  0.1358 -0.4418  0.3199
   22CHL1  H23B 1615   3.953   5.358   8.937  0.4932 -1.3375 -2.5108
   22CHL1   C24 1616   3.770   5.307   8.829 -0.5806  0.8339  0.1387
   22CHL1  H24A 1617   3.728   5.407   8.804  1.3133  1.6736  0.1911
   22CHL1  H24B 1618   3.840   5.268   8.752 -0.3949 -1.5121  1.3846
   22CHL1   C25 1619   3.649   5.203   8.842 -0.4855 -0.8797  0.1534
   22CHL1   H25 1620   3.683   5.106   8.883 -0.7913 -0.5930  1.1087
   22CHL1   C26 1621   3.544   5.267   8.939 -0.0868 -0.2912  0.1541
   22CHL1  H26A 1622   3.511   5.370   8.912  0.1075 -0.7023 -1.7684
   22CHL1  H26B 1623   3.461   5.196   8.959 -0.0887 -0.8427 -1.6657
   22CHL1  H26C 1624   3.593   5.279   9.038  2.1820  0.4161 -0.9919
   22CHL1   C27 1625   3.580   5.192   8.700 -0.0579  0.3619  0.5090
   22CHL1  H27A 1626   3.538   5.291   8.673 -0.0623  0.4396  0.7989
   22CHL1  H27B 1627   3.648   5.155   8.620 -0.1471 -0.1605  0.6740
   22CHL1  H27C 1628   3.490   5.127   8.707  1.4861 -2.5327 -2.9019
   23CHL1    C3 1629   0.673   5.675  10.063  1.1475  1.1756  0.1451
   23CHL1    H3 1630   0.707   5.781  10.052 -1.1707  1.9610  0.0370
   23CHL1    O3 1631   0.655   5.640  10.200 -0.3594  0.5588 -0.2219
   23CHL1   H3' 1632   0.582   5.578  10.207  0.0663  0.2273  1.7607
   23CHL1    C4 1633   0.540   5.660   9.991 -0.4043  0.4829 -0.4639
   23CHL1   H4A 1634   0.510   5.554  10.010  1.6654  0.0440  0.5779
   23CHL1   H4B 1635   0.474   5.725  10.052 -0.1710  0.6766 -0.4198
   23CHL1    C5 1636   0.548   5.702   9.844 -0.0385 -0.0466  0.2433
   23CHL1    C6 1637   0.460   5.789   9.800  0.2972 -0.4049  0.0767
   23CHL1    H6 1638   0.379   5.822   9.867 -0.1844  0.5042 -0.9113
   23CHL1    C7 1639   0.453   5.838   9.655  0.1228 -0.1930  0.6098
   23CHL1   H7A 1640   0.351   5.830   9.613  0.7803 -1.0789 -0.8877
   23CHL1   H7B 1641   0.493   5.941   9.645  1.0562 -0.5928 -0.0013
   23CHL1    C8 1642   0.551   5.753   9.558  0.1521 -0.8008  0.2267
   23CHL1    H8 1643   0.492   5.662   9.535 -1.4697 -0.0728  1.2761
   23CHL1   C14 1644   0.594   5.838   9.446  0.1231  0.0561  0.2764
   23CHL1   H14 1645   0.659   5.917   9.489 -1.1959  0.5863  1.3681
   23CHL1   C15 1646   0.481   5.919   9.377 -0.0498 -0.6387 -0.6344
   23CHL1  H15A 1647   0.382   5.869   9.377 -1.6712  2.1404  2.5542
   23CHL1  H15B 1648   0.459   6.013   9.433 -0.1099 -1.2959  0.4548
   23CHL1   C16 1649   0.536   5.937   9.234 -0.4479  0.5543  0.1261
   23CHL1  H16A 1650   0.472   5.879   9.165 -2.4807  2.7157  0.0673
   23CHL1  H16B 1651   0.539   6.042   9.198  1.2221 -0.2878 -2.4691
   23CHL1   C17 1652   0.678   5.879   9.227 -0.2749 -0.1412 -0.8543
   23CHL1   H17 1653   0.745   5.960   9.263  0.9273  0.1453 -3.4829
   23CHL1   C13 1654   0.677   5.764   9.335  0.7777  0.9672 -0.3509
   23CHL1   C18 1655   0.588   5.649   9.276  0.9788 -0.3496 -0.5344
   23CHL1  H18A 1656   0.495   5.696   9.238  0.5821 -0.7078 -0.0177
   23CHL1  H18B 1657   0.630   5.601   9.185 -0.0943  0.5243 -1.5134
   23CHL1  H18C 1658   0.574   5.566   9.349 -1.9234  0.7621  0.3091
   23CHL1   C12 1659   0.801   5.708   9.400 -0.3686  0.2003  0.0547
   23CHL1  H12A 1660   0.860   5.643   9.333  0.1493  1.9454 -1.2663
   23CHL1  H12B 1661   0.856   5.799   9.433  0.5225 -0.5139  0.6071
   23CHL1   C11 1662   0.770   5.634   9.530 -0.0544 -0.5853  0.4188
   23CHL1  H11A 1663   0.729   5.539   9.490  1.5247 -1.1420  0.0692
   23CHL1  H11B 1664   0.865   5.609   9.581  0.2247 -0.7622 -0.1854
   23CHL1    C9 1665   0.679   5.711   9.632 -0.5880  0.3261 -0.2688
   23CHL1    H9 1666   0.736   5.802   9.660 -0.5704  0.3238 -0.2974
   23CHL1   C10 1667   0.659   5.628   9.767 -0.0554 -0.4264  0.5191
   23CHL1   C19 1668   0.606   5.494   9.727  0.2520  0.3397 -0.2146
   23CHL1  H19A 1669   0.514   5.512   9.667  0.1222 -1.0788 -0.4723
   23CHL1  H19B 1670   0.680   5.432   9.673 -0.7319  0.5387 -1.8809
   23CHL1  H19C 1671   0.587   5.428   9.813  1.2818 -1.4633 -1.3085
   23CHL1    C1 1672   0.793   5.620   9.853 -0.5299  0.5981 -1.1958
   23CHL1   H1A 1673   0.864   5.547   9.808  1.6418  1.4041  0.6936
   23CHL1   H1B 1674   0.843   5.719   9.848  0.2222  0.2990  0.0291
   23CHL1    C2 1675   0.776   5.581  10.003  0.8632 -0.0031 -0.1493
   23CHL1   H2A 1676   0.874   5.593  10.054  0.2561  0.2909  0.9646
   23CHL1   H2B 1677   0.736   5.478  10.009 -1.2617  0.7575 -0.2752
   23CHL1   C20 1678   0.718   5.843   9.092  0.5945 -0.2921 -0.2146
   23CHL1   H20 1679   0.657   5.758   9.055 -1.1366 -0.2766  2.3504
   23CHL1   C21 1680   0.867   5.802   9.088 -0.2427 -0.2009  0.6951
   23CHL1  H21A 1681   0.930   5.878   9.138 -0.9456  0.7842  0.1204
   23CHL1  H21B 1682   0.914   5.792   8.988  1.9004 -1.5469  1.7678
   23CHL1  H21C 1683   0.890   5.707   9.142  1.7366  0.6316  1.4036
   23CHL1   C22 1684   0.707   5.958   8.979  0.3812 -0.7008 -0.2795
   23CHL1  H22A 1685   0.606   6.002   8.988  1.1344  0.6765  2.7687
   23CHL1  H22B 1686   0.778   6.041   9.005 -0.5349 -0.0955  0.3560
   23CHL1   C23 1687   0.725   5.913   8.834 -0.0146 -0.2547 -0.0962
   23CHL1  H23A 1688   0.828   5.879   8.807  0.9907  2.4708 -0.0495
   23CHL1  H23B 1689   0.651   5.836   8.804  0.5490 -0.5424 -0.7971
   23CHL1   C24 1690   0.703   6.041   8.749 -0.6777 -0.5008 -0.3931
   23CHL1  H24A 1691   0.596   6.067   8.762 -0.5690  0.4000 -1.1664
   23CHL1  H24B 1692   0.765   6.124   8.789  0.9849 -1.6700 -0.4628
   23CHL1   C25 1693   0.738   6.020   8.599 -0.1794 -0.1578 -0.7256
   23CHL1   H25 1694   0.697   6.107   8.544  1.7849  1.4568  0.2256
   23CHL1   C26 1695   0.889   6.037   8.578  0.5988  0.5946 -0.5183
   23CHL1  H26A 1696   0.949   5.972   8.646 -0.0980 -1.5226 -1.7981
   23CHL1  H26B 1697   0.904   6.008   8.472  0.6685 -0.5197 -0.2191
   23CHL1  H26C 1698   0.918   6.143   8.593 -1.9807  1.3339 -0.2883
   23CHL1   C27 1699   0.692   5.893   8.543  0.2668  0.5420  0.1545
   23CHL1  H27A 1700   0.764   5.812   8.568 -0.5037 -0.4934 -0.8735
   23CHL1  H27B 1701   0.592   5.879   8.588  0.6603 -0.0181  0.8968
   23CHL1  H27C 1702   0.679   5.897   8.433 -0.6973  2.0753  0.2998
   24CHL1    C3 1703   2.410   0.041  10.169  0.1644  0.2931 -0.7522
   24CHL1    H3 1704   2.303   0.049  10.140  0.8266 -0.4875 -3.7174
   24CHL1    O3 1705   2.420   0.040  10.314  0.1398 -0.1468 -0.2657
   24CHL1   H3' 1706   2.501  -0.005  10.339  1.0383  1.1932 -0.6997
   24CHL1    C4 1707   2.461  -0.095  10.122 -0.1754 -0.7002  0.1599
   24CHL1   H4A 1708   2.569  -0.097  10.149  0.4045  0.6902 -1.7776
   24CHL1   H4B 1709   2.415  -0.178  10.179 -1.0498 -1.0907 -1.0718
   24CHL1    C5 1710   2.431  -0.084   9.970  0.0169  0.7062  0.5307
   24CHL1    C6 1711   2.354  -0.174   9.903  0.8036  0.2560 -0.3167
   24CHL1    H6 1712   2.313  -0.256   9.963 -0.6692  0.0978 -1.4741
   24CHL1    C7 1713   2.335  -0.175   9.754  0.0103  0.0014 -0.2568
   24CHL1   H7A 1714   2.352  -0.282   9.729  0.1611  0.0089 -0.1907
   24CHL1   H7B 1715   2.230  -0.163   9.722  0.0437  1.0535 -0.0114
   24CHL1    C8 1716   2.442  -0.094   9.681 -0.3701  1.1257 -0.1857
   24CHL1    H8 1717   2.539  -0.146   9.686 -0.5365  0.6870 -1.3441
   24CHL1   C14 1718   2.396  -0.069   9.538 -0.5796 -0.3096 -0.0523
   24CHL1   H14 1719   2.301  -0.011   9.536 -0.3937 -0.0013 -2.5086
   24CHL1   C15 1720   2.374  -0.198   9.450 -0.0193 -0.1024 -0.6511
   24CHL1  H15A 1721   2.467  -0.251   9.479  0.5385  1.2899  0.2364
   24CHL1  H15B 1722   2.276  -0.247   9.469 -0.8396  0.5484 -2.9488
   24CHL1   C16 1723   2.370  -0.149   9.308  0.8068  0.5094 -0.2165
   24CHL1  H16A 1724   2.426  -0.226   9.249  0.8037 -1.3399  2.0418
   24CHL1  H16B 1725   2.263  -0.134   9.284  0.5449 -0.5557  0.2189
   24CHL1   C17 1726   2.444  -0.014   9.307 -0.0956 -0.8037  0.9518
   24CHL1   H17 1727   2.361   0.059   9.311 -1.0477 -1.6668 -1.4674
   24CHL1   C13 1728   2.506   0.009   9.449  0.3381  0.0668 -0.6682
   24CHL1   C18 1729   2.649  -0.038   9.464 -0.0865  0.3891 -0.8702
   24CHL1  H18A 1730   2.680  -0.039   9.570 -1.8862  3.1575 -0.2110
   24CHL1  H18B 1731   2.659  -0.143   9.428 -1.2982 -0.0616  0.0426
   24CHL1  H18C 1732   2.723   0.023   9.408  0.4473  1.1632  0.6257
   24CHL1   C12 1733   2.493   0.154   9.507 -0.0244 -0.2229 -0.3577
   24CHL1  H12A 1734   2.559   0.227   9.455 -0.7983  1.7131  1.2490
   24CHL1  H12B 1735   2.389   0.193   9.507 -0.3884 -1.0912  1.5425
   24CHL1   C11 1736   2.531   0.154   9.655  0.1959  0.1712 -0.4782
   24CHL1  H11A 1737   2.643   0.156   9.654  0.1905  1.7900  0.1638
   24CHL1  H11B 1738   2.508   0.258   9.686 -2.6196 -1.0964  2.1351
   24CHL1    C9 1739   2.453   0.043   9.750 -0.2988 -0.1788  0.5447
   24CHL1    H9 1740   2.347   0.078   9.751  0.3845  2.1390 -0.1899
   24CHL1   C10 1741   2.507   0.032   9.896  0.4063 -0.0126  0.1472
   24CHL1   C19 1742   2.656  -0.004   9.893  0.0427  0.0914  0.6448
   24CHL1  H19A 1743   2.708   0.075   9.835 -0.2900  0.5421  0.9560
   24CHL1  H19B 1744   2.700   0.001   9.995  1.8716  1.9016 -0.1629
   24CHL1  H19C 1745   2.674  -0.097   9.835  0.4390  1.7965 -2.1225
   24CHL1    C1 1746   2.477   0.174   9.965  0.8017 -0.0216  0.6409
   24CHL1   H1A 1747   2.543   0.260   9.940  1.5928 -0.7754  0.0849
   24CHL1   H1B 1748   2.374   0.206   9.938  0.9559  1.2943  1.4972
   24CHL1    C2 1749   2.484   0.164  10.119  0.0878 -0.1754  0.1614
   24CHL1   H2A 1750   2.459   0.263  10.162 -1.1660  0.9120 -2.8088
   24CHL1   H2B 1751   2.591   0.140  10.137 -0.0389 -2.0732 -1.3081
   24CHL1   C20 1752   2.530   0.021   9.180 -0.2260  0.3389  0.4253
   24CHL1   H20 1753   2.623  -0.040   9.182 -0.6963 -0.3795  0.6189
   24CHL1   C21 1754   2.577   0.164   9.190  0.6497 -0.3571  0.4434
   24CHL1  H21A 1755   2.598   0.204   9.088  0.8398  1.0611  1.0148
   24CHL1  H21B 1756   2.675   0.166   9.242  0.5623 -0.2165  0.6019
   24CHL1  H21C 1757   2.500   0.234   9.229 -0.5904  0.3304 -2.8836
   24CHL1   C22 1758   2.455  -0.008   9.043 -0.3224  0.0029 -0.7782
   24CHL1  H22A 1759   2.415  -0.112   9.041 -0.1467 -0.1348  1.3262
   24CHL1  H22B 1760   2.360   0.048   9.045 -0.4159 -0.1761 -0.1460
   24CHL1   C23 1761   2.540   0.020   8.912  1.1646  0.7986  0.1456
   24CHL1  H23A 1762   2.558   0.130   8.904  1.0929  0.9842  2.0444
   24CHL1  H23B 1763   2.638  -0.033   8.911  0.8617  0.1582 -2.1618
   24CHL1   C24 1764   2.456  -0.048   8.791  0.1844  0.1385 -0.5803
   24CHL1  H24A 1765   2.432  -0.150   8.828 -1.0205  0.8258  0.6200
   24CHL1  H24B 1766   2.358   0.005   8.790  0.0585 -0.0493 -2.7357
   24CHL1   C25 1767   2.516  -0.038   8.651 -1.2621 -0.4421  0.0194
   24CHL1   H25 1768   2.552   0.065   8.631  1.7146 -1.0597  1.6721
   24CHL1   C26 1769   2.636  -0.142   8.638 -0.1349  0.5245  0.5370
   24CHL1  H26A 1770   2.700  -0.136   8.728  0.9873 -2.2344  0.0191
   24CHL1  H26B 1771   2.606  -0.249   8.644 -0.1385  0.5604  1.2545
   24CHL1  H26C 1772   2.706  -0.128   8.553 -0.3795 -2.2788 -0.2574
   24CHL1   C27 1773   2.409  -0.081   8.549  0.2119 -0.6022  0.2141
   24CHL1  H27A 1774   2.458  -0.086   8.449 -2.8574  2.3096 -1.6610
   24CHL1  H27B 1775   2.359  -0.178   8.569 -0.0865 -0.3588  0.6699
   24CHL1  H27C 1776   2.327  -0.006   8.545  0.3349 -0.4537  0.4807
   25CHL1    C3 1777   3.142   0.735  10.234 -0.4582  0.1820  0.0778
   25CHL1    H3 1778   3.156   0.635  10.189 -2.2961  0.0977 -0.4024
   25CHL1    O3 1779   3.143   0.726  10.377 -0.0414  0.3370 -0.0820
   25CHL1   H3' 1780   3.120   0.811  10.415 -2.1305 -0.2866  0.1747
   25CHL1    C4 1781   3.253   0.835  10.201  0.4412 -0.5435  0.2066
   25CHL1   H4A 1782   3.229   0.928  10.257 -0.4043  0.0682 -1.1139
   25CHL1   H4B 1783   3.347   0.786  10.235  1.2999  0.8256 -0.1033
   25CHL1    C5 1784   3.263   0.864  10.049  0.5706 -0.0346 -0.2614
   25CHL1    C6 1785   3.375   0.839   9.981 -0.0820  0.2799 -0.1149
   25CHL1    H6 1786   3.455   0.802  10.046 -1.9634 -0.7544  1.7385
   25CHL1    C7 1787   3.412   0.856   9.836 -0.3176  0.6036  0.5364
   25CHL1   H7A 1788   3.506   0.911   9.813 -0.0680 -0.3341 -0.7889
   25CHL1   H7B 1789   3.416   0.760   9.781  0.4348  2.1739 -2.3541
   25CHL1    C8 1790   3.295   0.941   9.769 -0.6236  0.1417 -0.0322
   25CHL1    H8 1791   3.309   1.046   9.801 -1.1473  0.1661  0.1296
   25CHL1   C14 1792   3.316   0.928   9.617 -0.5628 -0.2348  0.1458
   25CHL1   H14 1793   3.305   0.818   9.610  3.2458 -1.3586  5.4682
   25CHL1   C15 1794   3.446   0.956   9.546 -0.3517  0.1124  0.1666
   25CHL1  H15A 1795   3.509   1.039   9.584  1.3633 -0.9146 -0.3065
   25CHL1  H15B 1796   3.518   0.873   9.562  0.1518  0.9230  2.4689
   25CHL1   C16 1797   3.404   0.986   9.402 -0.7917  0.3062 -0.6074
   25CHL1  H16A 1798   3.435   1.089   9.377 -1.8470  0.4358 -1.4141
   25CHL1  H16B 1799   3.452   0.918   9.329 -0.0322  0.4650 -0.2715
   25CHL1   C17 1800   3.252   0.975   9.392 -1.0799 -0.1212 -0.1894
   25CHL1   H17 1801   3.222   0.870   9.370  0.7444 -0.7865  0.2632
   25CHL1   C13 1802   3.204   1.003   9.542 -0.0511  0.2226  0.3991
   25CHL1   C18 1803   3.200   1.151   9.571 -0.0086  0.3852  0.3783
   25CHL1  H18A 1804   3.296   1.202   9.552  0.2066 -0.7438 -1.9242
   25CHL1  H18B 1805   3.128   1.211   9.511  1.0119  0.2402 -1.0491
   25CHL1  H18C 1806   3.185   1.169   9.679  0.1560  1.9645  0.1544
   25CHL1   C12 1807   3.075   0.932   9.574  0.0036 -0.7643 -0.0318
   25CHL1  H12A 1808   2.988   0.976   9.520 -0.5736 -1.6910  0.1034
   25CHL1  H12B 1809   3.086   0.831   9.529  0.3907 -0.0481 -1.6050
   25CHL1   C11 1810   3.050   0.938   9.721  0.3130  0.0511 -0.6178
   25CHL1  H11A 1811   3.026   1.044   9.744  2.7331  0.0739  2.4654
   25CHL1  H11B 1812   2.966   0.870   9.746 -0.6453  1.3895 -0.0781
   25CHL1    C9 1813   3.159   0.883   9.816 -0.4971 -0.1729  0.9942
   25CHL1    H9 1814   3.173   0.774   9.807  2.3633 -0.1075  3.2961
   25CHL1   C10 1815   3.133   0.901   9.968 -0.5346 -0.4743 -0.1381
   25CHL1   C19 1816   3.114   1.049  10.009 -0.0418  0.8876  0.9502
   25CHL1  H19A 1817   3.032   1.081   9.941 -0.7269 -0.7555  0.9343
   25CHL1  H19B 1818   3.099   1.063  10.118  0.6520  2.6394  0.8431
   25CHL1  H19C 1819   3.207   1.107   9.996  0.3619  0.0207 -0.2513
   25CHL1    C1 1820   3.021   0.808  10.018 -0.2305 -0.5358 -0.2331
   25CHL1   H1A 1821   2.922   0.825   9.969  0.6369  2.4451 -1.1836
   25CHL1   H1B 1822   3.047   0.709   9.977 -0.4329  0.1885 -2.2249
   25CHL1    C2 1823   3.010   0.785  10.174  0.3385 -0.1347  1.2200
   25CHL1   H2A 1824   2.944   0.696  10.176  1.9702 -1.4033  0.9466
   25CHL1   H2B 1825   2.958   0.875  10.213  1.6976  1.4257 -0.4037
   25CHL1   C20 1826   3.213   1.073   9.285 -0.3953  0.4882  0.2543
   25CHL1   H20 1827   3.238   1.177   9.313  0.0034  0.5880 -0.4543
   25CHL1   C21 1828   3.060   1.068   9.273  0.2475 -0.8241 -0.2215
   25CHL1  H21A 1829   3.008   1.097   9.366  0.9448  0.9933 -0.3518
   25CHL1  H21B 1830   3.028   0.968   9.235  2.3844 -1.8448  0.5122
   25CHL1  H21C 1831   3.026   1.147   9.202  4.2125  0.1360 -1.3190
   25CHL1   C22 1832   3.273   1.043   9.144 -0.2061  0.8303 -0.0545
   25CHL1  H22A 1833   3.231   1.121   9.077 -0.1584  0.9346  0.0392
   25CHL1  H22B 1834   3.381   1.065   9.144 -0.0137 -0.0557 -0.1595
   25CHL1   C23 1835   3.251   0.902   9.096 -0.1232 -0.0203  0.4050
   25CHL1  H23A 1836   3.261   0.818   9.169 -3.8498 -1.4312 -0.4552
   25CHL1  H23B 1837   3.144   0.898   9.066 -0.3496 -0.3924  1.2404
   25CHL1   C24 1838   3.318   0.856   8.962  0.0292  0.2062 -0.3995
   25CHL1  H24A 1839   3.426   0.870   8.979  0.9319 -4.8688 -0.3236
   25CHL1  H24B 1840   3.290   0.749   8.952 -1.1018  0.6292 -2.1198
   25CHL1   C25 1841   3.279   0.928   8.831 -0.4881 -0.0925  0.4991
   25CHL1   H25 1842   3.172   0.955   8.838 -0.8131 -1.3201  0.3978
   25CHL1   C26 1843   3.348   1.060   8.820 -0.6464 -0.0214  0.2328
   25CHL1  H26A 1844   3.300   1.132   8.890  1.1376  0.9442  0.5095
   25CHL1  H26B 1845   3.450   1.058   8.864 -1.0020 -0.1948  1.0616
   25CHL1  H26C 1846   3.341   1.102   8.717 -1.6559  1.6535  0.9313
   25CHL1   C27 1847   3.320   0.848   8.709  0.5576 -0.0927 -0.6752
   25CHL1  H27A 1848   3.274   0.883   8.614  0.3676  2.0980  0.1674
   25CHL1  H27B 1849   3.430   0.841   8.706  0.6126  0.6539 -0.7085
   25CHL1  H27C 1850   3.285   0.744   8.724 -0.7838  0.6549  2.0755
   26CHL1    C3 1851   5.455   3.412  10.158  0.3494  0.9334 -0.0124
   26CHL1    H3 1852   5.365   3.348  10.166  0.4285  0.8810  0.5056
   26CHL1    O3 1853   5.482   3.451  10.293  0.0173  0.0787 -0.2960
   26CHL1   H3' 1854   5.479   3.547  10.296 -0.3132  0.0745 -0.4651
   26CHL1    C4 1855   5.572   3.330  10.102 -0.1943  0.1346  0.2656
   26CHL1   H4A 1856   5.665   3.386  10.126  0.6887 -0.9885 -0.4790
   26CHL1   H4B 1857   5.576   3.242  10.170  0.3390  0.0400  0.1113
   26CHL1    C5 1858   5.556   3.294   9.952  0.8075 -0.3844  0.6506
   26CHL1    C6 1859   5.566   3.168   9.908  0.3447  0.1502 -0.0886
   26CHL1    H6 1860   5.590   3.083   9.973  0.0661 -0.3748 -0.6629
   26CHL1    C7 1861   5.557   3.127   9.760 -0.1195 -0.6522 -0.4547
   26CHL1   H7A 1862   5.653   3.077   9.735 -0.6230 -1.3839 -0.9395
   26CHL1   H7B 1863   5.481   3.048   9.743  1.9938 -2.7522 -0.7030
   26CHL1    C8 1864   5.543   3.246   9.660  0.0642 -0.2514 -0.2813
   26CHL1    H8 1865   5.646   3.288   9.657  0.4776 -1.2445 -0.3062
   26CHL1   C14 1866   5.512   3.198   9.523  0.2841 -0.1972 -0.3240
   26CHL1   H14 1867   5.409   3.158   9.526  0.1732  0.1320  0.2675
   26CHL1   C15 1868   5.600   3.091   9.462  0.3691 -0.0901  0.1742
   26CHL1  H15A 1869   5.704   3.128   9.470  0.4292 -0.1130 -0.4348
   26CHL1  H15B 1870   5.590   2.989   9.504 -0.3076  0.3697  1.1766
   26CHL1   C16 1871   5.567   3.111   9.313  0.4446  0.4943 -0.3202
   26CHL1  H16A 1872   5.662   3.135   9.260  0.9529  0.2475  0.4669
   26CHL1  H16B 1873   5.518   3.025   9.263  2.3497 -1.0916  0.4152
   26CHL1   C17 1874   5.478   3.241   9.299  0.3280  0.0357  0.5455
   26CHL1   H17 1875   5.369   3.220   9.302  0.3738 -0.2547  0.2202
   26CHL1   C13 1876   5.508   3.320   9.423 -0.6919 -0.1954 -0.7636
   26CHL1   C18 1877   5.643   3.393   9.398  0.0528 -0.1933 -0.3713
   26CHL1  H18A 1878   5.639   3.490   9.344 -0.2852 -0.2155 -0.3899
   26CHL1  H18B 1879   5.673   3.409   9.503  1.7720  1.1534 -1.0343
   26CHL1  H18C 1880   5.712   3.328   9.340  1.1055 -1.7167  2.4004
   26CHL1   C12 1881   5.399   3.425   9.472  0.0253 -0.4549 -0.6123
   26CHL1  H12A 1882   5.420   3.512   9.406 -0.2253 -0.5119 -0.7664
   26CHL1  H12B 1883   5.293   3.407   9.447  0.2188  0.5479 -2.3055
   26CHL1   C11 1884   5.434   3.475   9.614 -0.4070  0.2469  0.2063
   26CHL1  H11A 1885   5.527   3.535   9.602 -0.1880 -0.0971  0.1811
   26CHL1  H11B 1886   5.348   3.535   9.652  0.8904  0.3213  3.2725
   26CHL1    C9 1887   5.459   3.361   9.714 -0.0194  0.3027  0.0077
   26CHL1    H9 1888   5.362   3.312   9.740 -0.2746  1.3271  1.0882
   26CHL1   C10 1889   5.516   3.413   9.860  0.0967 -0.1828  0.0084
   26CHL1   C19 1890   5.636   3.509   9.832  0.4917  0.2559  0.3550
   26CHL1  H19A 1891   5.706   3.523   9.918  1.9930 -0.2064 -0.7375
   26CHL1  H19B 1892   5.698   3.469   9.749  0.1094  3.1148 -1.4591
   26CHL1  H19C 1893   5.597   3.610   9.807 -1.6701 -0.4434  0.7651
   26CHL1    C1 1894   5.408   3.494   9.934  0.4186  0.1591 -0.1688
   26CHL1   H1A 1895   5.392   3.587   9.876  1.2675  0.0198 -0.6382
   26CHL1   H1B 1896   5.316   3.432   9.938  1.9110 -2.1094  1.8679
   26CHL1    C2 1897   5.428   3.533  10.075 -0.1367  0.6036  0.0103
   26CHL1   H2A 1898   5.341   3.579  10.127 -1.6493  0.1896 -2.0573
   26CHL1   H2B 1899   5.515   3.600  10.092 -0.1636  0.5743  0.2769
   26CHL1   C20 1900   5.498   3.302   9.162  1.0407 -0.5669  0.0635
   26CHL1   H20 1901   5.605   3.328   9.148  1.1708 -0.8852  0.4374
   26CHL1   C21 1902   5.424   3.436   9.142 -0.4085 -0.6520 -0.2495
   26CHL1  H21A 1903   5.314   3.418   9.139 -0.4047 -1.0061  1.0916
   26CHL1  H21B 1904   5.440   3.457   9.034 -1.6764 -1.3344 -0.5941
   26CHL1  H21C 1905   5.462   3.511   9.214 -0.1804 -1.6120  0.6542
   26CHL1   C22 1906   5.445   3.209   9.049  0.0409  1.0695  0.1032
   26CHL1  H22A 1907   5.483   3.106   9.066  0.4788  1.3714  1.0081
   26CHL1  H22B 1908   5.335   3.196   9.057  0.1987  1.0419  3.4133
   26CHL1   C23 1909   5.499   3.233   8.912  0.0213  0.0578  0.2997
   26CHL1  H23A 1910   5.495   3.133   8.864  1.0572  0.7216 -1.2639
   26CHL1  H23B 1911   5.438   3.306   8.854 -0.7952  1.5163  2.8424
   26CHL1   C24 1912   5.648   3.265   8.898  0.2914  0.4238  0.0800
   26CHL1  H24A 1913   5.659   3.366   8.943  3.1921  0.3778 -0.2895
   26CHL1  H24B 1914   5.710   3.182   8.939 -1.2948 -1.4240 -1.0577
   26CHL1   C25 1915   5.703   3.279   8.748  0.2875 -0.4503 -0.3484
   26CHL1   H25 1916   5.634   3.348   8.696  0.4662 -1.2141 -1.6409
   26CHL1   C26 1917   5.843   3.329   8.751  0.1034  0.3815  0.3328
   26CHL1  H26A 1918   5.893   3.304   8.847 -0.7359  1.0621  0.9676
   26CHL1  H26B 1919   5.904   3.293   8.666  2.9073 -0.1832  2.4159
   26CHL1  H26C 1920   5.843   3.440   8.751 -0.8661  0.4091 -1.2298
   26CHL1   C27 1921   5.692   3.142   8.673 -0.6043  0.4785 -0.1588
   26CHL1  H27A 1922   5.591   3.095   8.665 -1.1947  1.7593 -0.4886
   26CHL1  H27B 1923   5.736   3.164   8.573  1.2530  0.1019  0.5385
   26CHL1  H27C 1924   5.769   3.071   8.710 -0.1521  1.7440  1.4337
   27CHL1    C3 1925   2.779   6.272  10.270 -0.1428  0.3892  0.0969
   27CHL1    H3 1926   2.870   6.211  10.253 -0.6937 -0.3975 -0.1102
   27CHL1    O3 1927   2.771   6.298  10.405 -0.6047  0.1541  0.0302
   27CHL1   H3' 1928   2.698   6.361  10.414 -0.3496  0.2833  1.2200
   27CHL1    C4 1929   2.785   6.409  10.191  0.0637 -0.2246 -0.8808
   27CHL1   H4A 1930   2.690   6.460  10.216 -0.4730 -1.7621  0.3630
   27CHL1   H4B 1931   2.862   6.469  10.244 -2.7268  0.1374  3.2618
   27CHL1    C5 1932   2.802   6.384  10.044 -0.5476  0.2100  0.2303
   27CHL1    C6 1933   2.915   6.428   9.985 -0.1027  0.3311 -0.1464
   27CHL1    H6 1934   2.980   6.486  10.051 -0.4472 -0.2493  0.7306
   27CHL1    C7 1935   2.941   6.415   9.835  0.2105  0.8708 -0.7312
   27CHL1   H7A 1936   2.966   6.517   9.800 -0.0693  1.5382  0.9016
   27CHL1   H7B 1937   3.025   6.346   9.815 -2.1906 -2.2700 -0.8169
   27CHL1    C8 1938   2.821   6.359   9.751 -1.0518  0.2648  0.4963
   27CHL1    H8 1939   2.745   6.434   9.718  1.2832  1.6324 -2.1442
   27CHL1   C14 1940   2.888   6.294   9.627  0.0986 -0.5674 -0.1422
   27CHL1   H14 1941   2.949   6.208   9.663  0.9191  0.1752  0.2931
   27CHL1   C15 1942   2.978   6.377   9.538 -0.6759  0.7317  0.3674
   27CHL1  H15A 1943   2.920   6.462   9.495  0.1085  0.6367 -0.9237
   27CHL1  H15B 1944   3.077   6.403   9.580  0.2379 -1.4892 -0.2542
   27CHL1   C16 1945   3.007   6.276   9.426  0.0779 -0.5643  0.9456
   27CHL1  H16A 1946   2.982   6.336   9.336  1.2275 -2.4690 -0.7249
   27CHL1  H16B 1947   3.112   6.242   9.418  0.5801  1.4339 -3.3070
   27CHL1   C17 1948   2.905   6.166   9.435  0.5766  0.0085  0.8134
   27CHL1   H17 1949   2.956   6.074   9.468  1.9142 -0.6052 -2.5417
   27CHL1   C13 1950   2.794   6.221   9.532 -0.4876  0.5717  0.1686
   27CHL1   C18 1951   2.691   6.316   9.461 -0.1097  0.1871  0.4998
   27CHL1  H18A 1952   2.610   6.253   9.417 -0.7869  2.2469 -1.3704
   27CHL1  H18B 1953   2.631   6.378   9.530 -2.0846 -1.0614 -0.0029
   27CHL1  H18C 1954   2.738   6.381   9.385 -1.1542  0.1575 -0.1933
   27CHL1   C12 1955   2.713   6.111   9.609 -0.1973  0.3845 -0.6411
   27CHL1  H12A 1956   2.624   6.072   9.556 -2.4047  3.7516  0.2525
   27CHL1  H12B 1957   2.781   6.029   9.640 -1.7871 -0.4714  0.7646
   27CHL1   C11 1958   2.658   6.156   9.751  0.3168 -0.3934 -0.1130
   27CHL1  H11A 1959   2.562   6.209   9.732  0.7019  0.2284 -0.3426
   27CHL1  H11B 1960   2.628   6.070   9.815 -0.5080 -0.2536 -0.2936
   27CHL1    C9 1961   2.755   6.247   9.831  0.0238 -0.0558  0.0654
   27CHL1    H9 1962   2.832   6.177   9.869 -0.3513  0.1740  1.3025
   27CHL1   C10 1963   2.694   6.294   9.974  0.5465  0.2121  0.3738
   27CHL1   C19 1964   2.567   6.380   9.964 -0.1943  0.2472  0.5450
   27CHL1  H19A 1965   2.497   6.325   9.897  2.2228 -0.6516 -1.4031
   27CHL1  H19B 1966   2.521   6.408  10.061  0.3519  1.0259  0.5867
   27CHL1  H19C 1967   2.594   6.472   9.909  0.3514 -0.2806 -0.0925
   27CHL1    C1 1968   2.667   6.169  10.067 -0.4133  0.5371 -0.7276
   27CHL1   H1A 1969   2.579   6.113  10.027  0.2710 -0.9587 -0.2112
   27CHL1   H1B 1970   2.759   6.107  10.063 -1.9686 -1.9824 -0.1537
   27CHL1    C2 1971   2.650   6.202  10.216  0.2062  0.7153  0.0165
   27CHL1   H2A 1972   2.622   6.113  10.277  1.5273 -0.8244 -1.5286
   27CHL1   H2B 1973   2.563   6.268  10.235 -0.4401  0.0165 -0.4519
   27CHL1   C20 1974   2.847   6.116   9.300  0.4189  0.2765  0.6558
   27CHL1   H20 1975   2.773   6.188   9.259  0.2452 -0.6072 -0.6573
   27CHL1   C21 1976   2.772   5.985   9.329 -0.1329  0.1557  0.3742
   27CHL1  H21A 1977   2.667   5.999   9.362 -0.3755 -0.9670  0.1477
   27CHL1  H21B 1978   2.823   5.923   9.405  1.5508  0.5514 -0.3996
   27CHL1  H21C 1979   2.765   5.927   9.234  0.9548 -1.1491  1.0688
   27CHL1   C22 1980   2.956   6.088   9.191 -0.1983  0.0403 -0.4317
   27CHL1  H22A 1981   3.003   6.183   9.157  1.6072 -0.6780 -0.0398
   27CHL1  H22B 1982   3.040   6.038   9.244  0.4110  0.6977 -0.7653
   27CHL1   C23 1983   2.901   6.020   9.058 -0.4303  0.1367  0.1580
   27CHL1  H23A 1984   2.923   5.911   9.062 -2.2054 -0.3025 -1.2309
   27CHL1  H23B 1985   2.793   6.043   9.057 -0.8007 -1.1043  2.9267
   27CHL1   C24 1986   2.971   6.067   8.931 -0.2301  0.9019 -0.2075
   27CHL1  H24A 1987   2.955   6.177   8.924  0.6692  0.9639 -2.1404
   27CHL1  H24B 1988   3.077   6.033   8.933 -0.0281  1.5703  1.0893
   27CHL1   C25 1989   2.905   6.008   8.815  0.9426  0.0186  1.1592
   27CHL1   H25 1990   2.797   6.031   8.819  0.6404 -1.4273  2.5705
   27CHL1   C26 1991   2.965   6.074   8.690 -0.4326  0.3194 -0.2095
   27CHL1  H26A 1992   3.072   6.048   8.674 -0.0726  0.8179  1.2206
   27CHL1  H26B 1993   2.907   6.045   8.600 -2.8991  1.4246  0.9329
   27CHL1  H26C 1994   2.956   6.184   8.696 -1.6535  0.1752  1.0744
   27CHL1   C27 1995   2.920   5.857   8.798 -0.7266 -0.9357 -0.0602
   27CHL1  H27A 1996   3.027   5.832   8.813 -0.0119  1.5956 -0.3936
   27CHL1  H27B 1997   2.856   5.795   8.864  0.9871 -2.2004  0.4795
   27CHL1  H27C 1998   2.884   5.841   8.694  0.4367  1.6234 -0.9492
   28CHL1    C3 1999   3.437   6.556  10.196  0.3700  0.2256 -0.5846
   28CHL1    H3 2000   3.543   6.589  10.206  0.4117  0.3868 -1.4086
   28CHL1    O3 2001   3.380   6.551  10.329  0.2668  0.1667 -0.2941
   28CHL1   H3' 2002   3.448   6.499  10.373  1.9645 -1.1197 -4.0576
   28CHL1    C4 2003   3.378   6.672  10.120  0.3670 -0.1709 -0.2899
   28CHL1   H4A 2004   3.267   6.659  10.124  0.5061 -1.1148  1.6310
   28CHL1   H4B 2005   3.393   6.754  10.193  0.0657 -0.9139  0.6204
   28CHL1    C5 2006   3.429   6.689   9.985  0.3668 -0.3672  0.1465
   28CHL1    C6 2007   3.487   6.804   9.946 -0.2491  0.4564 -0.0037
   28CHL1    H6 2008   3.490   6.893  10.010 -2.2005  0.3474  0.3000
   28CHL1    C7 2009   3.533   6.821   9.807 -0.2767 -0.0615 -0.1056
   28CHL1   H7A 2010   3.514   6.923   9.769  3.7351  0.4877 -1.1507
   28CHL1   H7B 2011   3.644   6.811   9.810 -0.2254  0.7249  1.0362
   28CHL1    C8 2012   3.469   6.715   9.710 -0.3419 -0.8468 -0.5752
   28CHL1    H8 2013   3.360   6.734   9.700 -0.1479  2.8950  2.1384
   28CHL1   C14 2014   3.524   6.737   9.574 -0.2641  0.1864  0.2910
   28CHL1   H14 2015   3.634   6.730   9.576 -0.1789 -2.1758 -3.1974
   28CHL1   C15 2016   3.492   6.868   9.505  0.3792 -0.1004  0.2841
   28CHL1  H15A 2017   3.392   6.910   9.530  0.8177 -0.5636  3.0709
   28CHL1  H15B 2018   3.564   6.942   9.546 -0.1828  0.7213 -0.1821
   28CHL1   C16 2019   3.508   6.841   9.355 -0.4887 -0.6228  0.2042
   28CHL1  H16A 2020   3.417   6.861   9.296  1.4216 -2.0290 -3.5831
   28CHL1  H16B 2021   3.601   6.885   9.313 -1.3847 -0.4798 -1.7091
   28CHL1   C17 2022   3.542   6.691   9.348 -0.9721  0.0419 -0.7981
   28CHL1   H17 2023   3.653   6.692   9.355 -0.9042 -2.2197 -0.5887
   28CHL1   C13 2024   3.485   6.628   9.478  0.3815 -0.5777  0.2201
   28CHL1   C18 2025   3.327   6.625   9.443 -0.3194  0.3995  0.5364
   28CHL1  H18A 2026   3.314   6.539   9.373 -3.8649  2.8699 -2.2010
   28CHL1  H18B 2027   3.264   6.622   9.534  2.3898  3.7228  2.7586
   28CHL1  H18C 2028   3.291   6.707   9.377 -0.7634  0.5678  0.9818
   28CHL1   C12 2029   3.537   6.490   9.528  0.3877  0.0653 -1.0916
   28CHL1  H12A 2030   3.511   6.405   9.461 -1.2187  0.2276 -0.7137
   28CHL1  H12B 2031   3.648   6.489   9.532  0.3598 -1.3554  0.3514
   28CHL1   C11 2032   3.484   6.458   9.669  1.3518  0.6007  0.1899
   28CHL1  H11A 2033   3.377   6.431   9.656  1.5337  1.0312 -3.4062
   28CHL1  H11B 2034   3.537   6.367   9.705 -1.4730 -1.4788 -0.5922
   28CHL1    C9 2035   3.501   6.580   9.768  0.6721  1.3086  0.0195
   28CHL1    H9 2036   3.606   6.576   9.803  0.3554 -1.4087  0.9387
   28CHL1   C10 2037   3.418   6.561   9.902  0.1593 -0.1674  0.0647
   28CHL1   C19 2038   3.271   6.535   9.866 -0.3472  0.5543 -0.2062
   28CHL1  H19A 2039   3.212   6.523   9.960 -2.7940  2.5613 -1.3811
   28CHL1  H19B 2040   3.225   6.623   9.817  1.4909  1.1604 -0.8972
   28CHL1  H19C 2041   3.261   6.441   9.808 -1.1190  0.7524 -0.4028
   28CHL1    C1 2042   3.483   6.444   9.982 -1.0252 -0.1987  0.0842
   28CHL1   H1A 2043   3.492   6.353   9.919  0.3335 -0.2727  0.3498
   28CHL1   H1B 2044   3.589   6.470  10.004 -1.0085 -0.6867  0.6092
   28CHL1    C2 2045   3.420   6.421  10.124  0.3330  0.2052 -0.3256
   28CHL1   H2A 2046   3.478   6.334  10.162 -0.2637  0.6201  1.6434
   28CHL1   H2B 2047   3.310   6.408  10.114  0.1776  0.9860  0.2438
   28CHL1   C20 2048   3.523   6.628   9.212  0.3556  0.0854 -0.0597
   28CHL1   H20 2049   3.424   6.657   9.172  1.1775 -0.4368 -2.7337
   28CHL1   C21 2050   3.553   6.480   9.215 -0.2371  0.1452  0.8108
   28CHL1  H21A 2051   3.555   6.431   9.115 -1.4485 -0.1840  0.9328
   28CHL1  H21B 2052   3.471   6.433   9.272 -1.7384  1.2962 -0.3144
   28CHL1  H21C 2053   3.651   6.462   9.266 -0.2724 -0.7378  0.5941
   28CHL1   C22 2054   3.612   6.697   9.104  0.8297 -0.0508  0.4515
   28CHL1  H22A 2055   3.614   6.807   9.122  1.4346  0.2744 -1.3811
   28CHL1  H22B 2056   3.716   6.661   9.095 -0.0343 -2.7505  0.3963
   28CHL1   C23 2057   3.542   6.661   8.970 -0.1661 -0.0315 -0.2351
   28CHL1  H23A 2058   3.552   6.557   8.932  2.5727 -0.3088  1.0408
   28CHL1  H23B 2059   3.434   6.683   8.983 -0.0216  0.3550  0.3331
   28CHL1   C24 2060   3.611   6.745   8.860 -0.0360 -0.0635 -0.8164
   28CHL1  H24A 2061   3.638   6.847   8.894  0.6518 -0.1652 -1.0346
   28CHL1  H24B 2062   3.707   6.698   8.831  0.5440  0.6059 -0.0239
   28CHL1   C25 2063   3.534   6.769   8.726 -0.7931  0.3704  0.4011
   28CHL1   H25 2064   3.500   6.671   8.686  0.0107 -0.1454  0.9451
   28CHL1   C26 2065   3.417   6.867   8.748 -0.2246 -0.6081  0.0117
   28CHL1  H26A 2066   3.353   6.862   8.658 -0.3421 -2.3191  0.1641
   28CHL1  H26B 2067   3.360   6.833   8.838  2.5580 -1.7967  1.4244
   28CHL1  H26C 2068   3.457   6.969   8.764 -0.1169 -0.3485 -1.7546
   28CHL1   C27 2069   3.625   6.824   8.616  0.6067  0.1562  1.0439
   28CHL1  H27A 2070   3.698   6.749   8.579 -1.2776 -1.5104  0.5450
   28CHL1  H27B 2071   3.556   6.867   8.540  1.9529  1.6401  0.5866
   28CHL1  H27C 2072   3.681   6.907   8.666 -1.2657  1.0743  1.7221
   29CHL1    C3 2073   5.604   3.933   6.610  0.0625  0.3223  0.4415
   29CHL1    H3 2074   5.698   3.882   6.642  1.2052  0.6657 -2.0724
   29CHL1    O3 2075   5.605   3.962   6.471 -0.4625 -0.5579 -0.0319
   29CHL1   H3' 2076   5.518   3.997   6.452  0.5322  3.7704  2.1162
   29CHL1    C4 2077   5.481   3.846   6.649  0.3609 -0.1159  0.0366
   29CHL1   H4A 2078   5.389   3.902   6.623 -0.0822 -1.6666 -1.9547
   29CHL1   H4B 2079   5.473   3.755   6.587  4.8796  0.9518 -2.5540
   29CHL1    C5 2080   5.481   3.815   6.795  0.2842 -0.7035  0.9215
   29CHL1    C6 2081   5.490   3.694   6.835  1.1309  0.2707  0.4756
   29CHL1    H6 2082   5.506   3.613   6.762  1.1396  1.8612 -1.3549
   29CHL1    C7 2083   5.482   3.641   6.978 -0.1856 -0.4076 -0.1291
   29CHL1   H7A 2084   5.406   3.560   6.980 -0.2438 -0.3471  0.9553
   29CHL1   H7B 2085   5.578   3.596   7.012  0.6397  1.4996  0.1448
   29CHL1    C8 2086   5.442   3.756   7.078 -1.1426 -0.1040  0.5723
   29CHL1    H8 2087   5.333   3.775   7.071 -1.0883 -0.4004 -1.8538
   29CHL1   C14 2088   5.474   3.721   7.219  0.1062 -0.1595  0.1799
   29CHL1   H14 2089   5.583   3.709   7.232 -0.0488 -0.7560  1.0234
   29CHL1   C15 2090   5.409   3.593   7.273  0.3859  0.7338  0.6035
   29CHL1  H15A 2091   5.306   3.575   7.235  0.5626  0.4021  0.2794
   29CHL1  H15B 2092   5.483   3.511   7.261 -2.0169 -1.3102 -1.3567
   29CHL1   C16 2093   5.396   3.610   7.426 -0.2757 -0.0604  0.0630
   29CHL1  H16A 2094   5.293   3.593   7.464  0.0276  1.3367  1.6338
   29CHL1  H16B 2095   5.470   3.552   7.484  0.3139 -0.4896 -1.0794
   29CHL1   C17 2096   5.444   3.762   7.452 -0.0291  0.5713  0.2212
   29CHL1   H17 2097   5.552   3.745   7.473 -0.4855 -1.6355  1.1262
   29CHL1   C13 2098   5.441   3.835   7.323 -0.2315  0.9438  0.4650
   29CHL1   C18 2099   5.295   3.879   7.315 -0.8426 -0.1032 -0.7174
   29CHL1  H18A 2100   5.278   3.959   7.390 -1.3890  0.4077 -1.3792
   29CHL1  H18B 2101   5.272   3.917   7.214 -1.2810 -0.7915 -0.8861
   29CHL1  H18C 2102   5.232   3.792   7.342 -0.0930 -0.1104  1.1735
   29CHL1   C12 2103   5.536   3.950   7.285  0.2692 -0.2816 -0.2657
   29CHL1  H12A 2104   5.519   4.044   7.340  0.1973  0.1848 -1.0640
   29CHL1  H12B 2105   5.639   3.926   7.317  0.3671  0.7178  0.2080
   29CHL1   C11 2106   5.518   3.997   7.140  0.8199 -0.0798  0.9074
   29CHL1  H11A 2107   5.426   4.060   7.141  1.2807  0.7323 -1.6840
   29CHL1  H11B 2108   5.607   4.060   7.121  1.8154 -1.2134  1.7015
   29CHL1    C9 2109   5.519   3.887   7.037  0.1783  0.1492  0.2028
   29CHL1    H9 2110   5.626   3.858   7.031  0.1382 -0.1030  0.6768
   29CHL1   C10 2111   5.484   3.935   6.892  0.2908 -0.1643 -0.3833
   29CHL1   C19 2112   5.348   4.002   6.892  0.8203 -0.0682 -0.0141
   29CHL1  H19A 2113   5.333   4.083   6.966  0.1698  1.0612 -1.3307
   29CHL1  H19B 2114   5.324   4.041   6.791  5.6635  1.7600 -0.7625
   29CHL1  H19C 2115   5.265   3.938   6.927 -0.5375  1.5432 -0.1993
   29CHL1    C1 2116   5.584   4.042   6.832 -0.0706  0.3230 -1.4165
   29CHL1   H1A 2117   5.558   4.137   6.884 -0.9689 -0.2890 -0.7057
   29CHL1   H1B 2118   5.686   4.014   6.866  1.0254  3.5002 -1.7576
   29CHL1    C2 2119   5.590   4.067   6.686  0.1384  0.1014  0.3911
   29CHL1   H2A 2120   5.680   4.130   6.667  0.8976 -0.8468  0.7319
   29CHL1   H2B 2121   5.499   4.118   6.647  1.1274  4.2345  2.8449
   29CHL1   C20 2122   5.384   3.824   7.586 -0.2825  0.5833  0.0898
   29CHL1   H20 2123   5.278   3.852   7.564 -0.0292 -0.1922 -2.4259
   29CHL1   C21 2124   5.471   3.946   7.627  0.5635  0.4040  1.2290
   29CHL1  H21A 2125   5.434   4.003   7.715  0.1863 -0.5895  1.7300
   29CHL1  H21B 2126   5.463   4.015   7.540 -0.0022  0.7805  1.5762
   29CHL1  H21C 2127   5.574   3.912   7.648  0.7804  1.7053  2.4007
   29CHL1   C22 2128   5.386   3.718   7.705  0.7887 -0.1777 -0.4513
   29CHL1  H22A 2129   5.335   3.623   7.676  0.6595 -1.0505  2.2947
   29CHL1  H22B 2130   5.492   3.696   7.730 -0.0232 -2.6469  1.3113
   29CHL1   C23 2131   5.309   3.771   7.822 -0.5129 -0.4732  0.4230
   29CHL1  H23A 2132   5.356   3.865   7.857  0.8017 -1.2556  0.8274
   29CHL1  H23B 2133   5.203   3.799   7.803  0.5171  2.7647 -1.2049
   29CHL1   C24 2134   5.316   3.674   7.947  0.3547 -0.2738  0.9013
   29CHL1  H24A 2135   5.300   3.575   7.901  0.6291  0.9083 -1.9190
   29CHL1  H24B 2136   5.416   3.674   7.995  0.5527  3.5600  0.7879
   29CHL1   C25 2137   5.213   3.697   8.055  0.2051  0.2188  0.8595
   29CHL1   H25 2138   5.108   3.698   8.017  0.2935 -0.6997  0.5580
   29CHL1   C26 2139   5.214   3.582   8.148 -0.2063  0.0608 -0.4934
   29CHL1  H26A 2140   5.310   3.578   8.204 -0.7667 -3.4443  0.4558
   29CHL1  H26B 2141   5.134   3.588   8.224  1.6115  0.1000  1.5144
   29CHL1  H26C 2142   5.204   3.488   8.090 -1.4020 -0.0125 -0.2009
   29CHL1   C27 2143   5.224   3.822   8.146 -0.8285  0.6933  0.5043
   29CHL1  H27A 2144   5.199   3.919   8.096 -1.5955 -0.4594 -1.4649
   29CHL1  H27B 2145   5.153   3.802   8.229 -0.8823 -2.0485 -0.1303
   29CHL1  H27C 2146   5.327   3.841   8.183 -0.5222  1.0055 -0.4675
   30CHL1    C3 2147   5.261   1.430   7.261 -0.0523 -0.2406 -0.8985
   30CHL1    H3 2148   5.214   1.531   7.272  1.2205  0.2016  0.9564
   30CHL1    O3 2149   5.270   1.386   7.128 -0.0482  0.7813  0.0228
   30CHL1   H3' 2150   5.233   1.299   7.114  1.3532 -0.1209  1.4997
   30CHL1    C4 2151   5.390   1.409   7.340  0.3656 -0.0802  0.8564
   30CHL1   H4A 2152   5.408   1.304   7.308 -1.7238 -0.1155 -0.4277
   30CHL1   H4B 2153   5.476   1.466   7.299 -1.5526  2.9101  0.6406
   30CHL1    C5 2154   5.378   1.421   7.485 -0.5678 -0.2818 -0.7557
   30CHL1    C6 2155   5.462   1.509   7.547  0.2725  0.0791 -0.0502
   30CHL1    H6 2156   5.539   1.561   7.488  2.3367  0.3644  2.6902
   30CHL1    C7 2157   5.444   1.543   7.695 -0.0795 -0.4608  0.3186
   30CHL1   H7A 2158   5.544   1.559   7.741  0.1781 -0.8176 -0.1069
   30CHL1   H7B 2159   5.401   1.645   7.707  0.4990 -0.5121  4.3834
   30CHL1    C8 2160   5.360   1.444   7.780 -0.0874  0.5111  0.3786
   30CHL1    H8 2161   5.423   1.353   7.785  0.9381  1.0157 -2.0659
   30CHL1   C14 2162   5.331   1.508   7.917 -0.2041 -0.4753 -0.4527
   30CHL1   H14 2163   5.272   1.598   7.890  1.0842  0.2998 -0.7677
   30CHL1   C15 2164   5.450   1.564   7.997  0.1678 -0.5374 -0.0111
   30CHL1  H15A 2165   5.540   1.501   7.980  0.0462 -1.4988  2.5518
   30CHL1  H15B 2166   5.477   1.667   7.964  2.2247 -2.0360 -3.6313
   30CHL1   C16 2167   5.396   1.555   8.144 -0.2759  0.1569 -0.1368
   30CHL1  H16A 2168   5.465   1.493   8.205 -0.4785 -0.2366 -0.2976
   30CHL1  H16B 2169   5.379   1.655   8.187  3.5368  0.6569  0.5305
   30CHL1   C17 2170   5.251   1.492   8.136  0.4641 -0.0768 -0.0071
   30CHL1   H17 2171   5.175   1.571   8.123 -1.1988 -1.5725  0.2279
   30CHL1   C13 2172   5.250   1.411   8.005 -0.3790 -0.6105 -0.6742
   30CHL1   C18 2173   5.334   1.279   8.030 -1.1893  0.8848 -0.6060
   30CHL1  H18A 2174   5.275   1.218   8.102  0.3499 -1.4796 -1.2365
   30CHL1  H18B 2175   5.358   1.215   7.942 -0.3077  0.9036 -0.3948
   30CHL1  H18C 2176   5.429   1.302   8.083 -1.1219 -1.9510  0.7103
   30CHL1   C12 2177   5.113   1.370   7.937 -0.4010 -0.5343  0.0317
   30CHL1  H12A 2178   5.042   1.312   7.999  0.3913  3.0949  4.9834
   30CHL1  H12B 2179   5.070   1.470   7.919  0.7583 -0.0109  0.0872
   30CHL1   C11 2180   5.140   1.317   7.797  0.8800  0.5357  0.0760
   30CHL1  H11A 2181   5.189   1.217   7.798 -0.8140 -0.3390  0.0552
   30CHL1  H11B 2182   5.040   1.305   7.749  1.2275  2.0893 -1.1256
   30CHL1    C9 2183   5.229   1.404   7.699 -0.0951 -0.1024 -0.3803
   30CHL1    H9 2184   5.173   1.499   7.685  2.2910  1.6797  1.1469
   30CHL1   C10 2185   5.262   1.349   7.560 -0.3420 -0.5019  0.0225
   30CHL1   C19 2186   5.314   1.202   7.569  0.2672 -0.0171  0.2747
   30CHL1  H19A 2187   5.360   1.171   7.473  2.1784  1.5617  0.6121
   30CHL1  H19B 2188   5.387   1.187   7.652  1.8191  0.1897 -1.0216
   30CHL1  H19C 2189   5.219   1.148   7.588  0.2896 -0.7023 -1.4263
   30CHL1    C1 2190   5.132   1.361   7.475 -0.2614 -0.6127 -0.8202
   30CHL1   H1A 2191   5.070   1.284   7.525 -0.1049  0.1212  0.5590
   30CHL1   H1B 2192   5.084   1.460   7.488 -0.2678 -0.9466  2.5308
   30CHL1    C2 2193   5.151   1.335   7.324 -0.2667 -0.1199  0.4866
   30CHL1   H2A 2194   5.062   1.344   7.259  0.6397  0.2988 -0.7410
   30CHL1   H2B 2195   5.190   1.232   7.311 -1.0786 -0.2936 -0.6037
   30CHL1   C20 2196   5.211   1.417   8.273  0.4041 -0.5036  0.0058
   30CHL1   H20 2197   5.269   1.322   8.271 -0.2655 -0.9111 -0.3965
   30CHL1   C21 2198   5.057   1.401   8.278  0.5613  0.1009 -0.2977
   30CHL1  H21A 2199   5.005   1.491   8.239  0.1267  0.6849  1.5652
   30CHL1  H21B 2200   5.012   1.371   8.375 -0.0749  0.1034 -0.5879
   30CHL1  H21C 2201   5.035   1.318   8.207  1.1583  0.2309 -0.6493
   30CHL1   C22 2202   5.257   1.499   8.394 -0.1417 -0.6193  0.1492
   30CHL1  H22A 2203   5.368   1.510   8.390 -0.0384 -1.6048  0.1381
   30CHL1  H22B 2204   5.210   1.599   8.403  0.0960 -0.2474 -2.1808
   30CHL1   C23 2205   5.238   1.427   8.528  0.2216 -0.5985  0.5950
   30CHL1  H23A 2206   5.128   1.427   8.547 -0.1306 -0.8749 -1.2646
   30CHL1  H23B 2207   5.272   1.322   8.513  1.5432  0.0607 -1.5643
   30CHL1   C24 2208   5.311   1.489   8.657  0.1353  0.8571 -0.5998
   30CHL1  H24A 2209   5.420   1.495   8.637  0.5645 -1.6171  0.6375
   30CHL1  H24B 2210   5.269   1.591   8.661  0.7086  1.0491  0.9295
   30CHL1   C25 2211   5.298   1.410   8.785 -0.2483 -0.0703  0.0832
   30CHL1   H25 2212   5.198   1.414   8.832 -0.9272  0.3674 -1.3278
   30CHL1   C26 2213   5.333   1.261   8.775  0.2579  0.2837  0.2641
   30CHL1  H26A 2214   5.429   1.251   8.720 -0.1109 -0.1628 -0.3174
   30CHL1  H26B 2215   5.355   1.210   8.871 -1.8312 -0.2663  0.5122
   30CHL1  H26C 2216   5.243   1.217   8.727  0.9991 -0.0301 -0.8826
   30CHL1   C27 2217   5.396   1.491   8.879 -0.2549 -0.5170  0.2719
   30CHL1  H27A 2218   5.387   1.466   8.987  1.3724 -1.5117  0.2091
   30CHL1  H27B 2219   5.502   1.463   8.859  0.4108  1.9252  0.0767
   30CHL1  H27C 2220   5.390   1.601   8.864  1.1931 -0.3225  0.9352
   31CHL1    C3 2221   3.686   3.884   6.683  0.7228 -0.1868  0.3741
   31CHL1    H3 2222   3.628   3.790   6.698 -0.1731  0.4802  1.2105
   31CHL1    O3 2223   3.717   3.881   6.544 -0.1720 -0.0526  0.4319
   31CHL1   H3' 2224   3.765   3.963   6.531 -0.2769 -0.0827 -0.1562
   31CHL1    C4 2225   3.592   3.996   6.726 -0.1492 -0.1904 -0.4376
   31CHL1   H4A 2226   3.646   4.089   6.696 -0.4329  0.6092  1.3764
   31CHL1   H4B 2227   3.501   3.996   6.662 -2.1409  0.7053  2.2237
   31CHL1    C5 2228   3.562   3.996   6.877 -0.3171 -0.2729  0.0621
   31CHL1    C6 2229   3.436   4.000   6.922 -0.2257 -0.5709  0.2789
   31CHL1    H6 2230   3.354   4.000   6.848 -0.4272 -1.4921  0.4947
   31CHL1    C7 2231   3.406   4.026   7.066 -0.6585  0.1155  0.0442
   31CHL1   H7A 2232   3.331   4.108   7.068 -1.3215 -0.3653 -2.2133
   31CHL1   H7B 2233   3.343   3.940   7.096  0.0995 -0.4115  0.1312
   31CHL1    C8 2234   3.523   4.044   7.168  0.7884 -0.2659  0.1374
   31CHL1    H8 2235   3.556   4.149   7.182  1.4493 -0.5154  0.5061
   31CHL1   C14 2236   3.478   3.981   7.300 -0.2642 -0.2952 -0.0627
   31CHL1   H14 2237   3.471   3.872   7.282 -1.3175 -0.8211  2.9046
   31CHL1   C15 2238   3.346   4.029   7.375 -0.3537  0.1400 -0.4430
   31CHL1  H15A 2239   3.340   4.138   7.397  0.7053  0.3428 -1.0821
   31CHL1  H15B 2240   3.252   4.009   7.320 -2.0580  1.5284  1.7966
   31CHL1   C16 2241   3.359   3.966   7.513 -0.2914  0.3697  0.2812
   31CHL1  H16A 2242   3.347   4.051   7.584  1.9071  1.5159 -0.6457
   31CHL1  H16B 2243   3.282   3.887   7.528  1.3353 -1.0137  1.8669
   31CHL1   C17 2244   3.502   3.909   7.521 -0.6465 -0.5272 -0.4522
   31CHL1   H17 2245   3.497   3.806   7.482 -0.9372  0.1096 -2.1850
   31CHL1   C13 2246   3.584   3.992   7.414 -0.5228  0.0743  0.1580
   31CHL1   C18 2247   3.619   4.136   7.456 -0.5163 -0.3242  0.4246
   31CHL1  H18A 2248   3.536   4.178   7.515  1.8104  4.1249  1.0008
   31CHL1  H18B 2249   3.706   4.115   7.522 -0.1744  1.3331  0.5398
   31CHL1  H18C 2250   3.658   4.191   7.367 -0.7548 -2.0411 -0.8136
   31CHL1   C12 2251   3.716   3.920   7.371  0.7185  0.6495 -0.0644
   31CHL1  H12A 2252   3.789   3.943   7.451  0.0517  1.1019  0.4250
   31CHL1  H12B 2253   3.697   3.811   7.364 -0.1858  0.8604 -1.1995
   31CHL1   C11 2254   3.761   3.970   7.233  0.5266  0.6375 -0.3234
   31CHL1  H11A 2255   3.783   4.079   7.231 -0.9066  0.9331 -1.0671
   31CHL1  H11B 2256   3.851   3.912   7.203  0.9069  1.0184  0.0578
   31CHL1    C9 2257   3.648   3.968   7.122  0.0357  0.2115  0.9448
   31CHL1    H9 2258   3.623   3.861   7.110  0.8208  0.1818 -0.6308
   31CHL1   C10 2259   3.689   4.005   6.972  0.0776  0.0225  0.0091
   31CHL1   C19 2260   3.761   4.148   6.969  0.7314  0.1729 -0.5242
   31CHL1  H19A 2261   3.798   4.166   6.866 -0.8200  0.9501 -0.9641
   31CHL1  H19B 2262   3.689   4.226   6.999 -0.4073 -1.2625  0.6649
   31CHL1  H19C 2263   3.846   4.145   7.041 -1.2762  2.7630  2.1892
   31CHL1    C1 2264   3.784   3.891   6.919  0.1793 -0.7583 -0.0573
   31CHL1   H1A 2265   3.874   3.907   6.981 -0.3283 -1.4256  0.8765
   31CHL1   H1B 2266   3.756   3.792   6.960 -0.1642 -0.8573 -0.5219
   31CHL1    C2 2267   3.818   3.885   6.766 -0.1407  0.1300 -0.6971
   31CHL1   H2A 2268   3.879   3.793   6.755 -0.4670 -0.2283  0.4254
   31CHL1   H2B 2269   3.882   3.970   6.732  0.0708  0.1183 -0.3320
   31CHL1   C20 2270   3.556   3.897   7.668  0.2362 -0.7214  0.2627
   31CHL1   H20 2271   3.605   3.993   7.693 -2.6751  0.7486  0.7854
   31CHL1   C21 2272   3.657   3.780   7.674  0.4425  0.1830 -0.3774
   31CHL1  H21A 2273   3.727   3.779   7.588 -1.9082 -1.5186 -2.4145
   31CHL1  H21B 2274   3.598   3.687   7.666  1.7219 -0.5998 -1.0138
   31CHL1  H21C 2275   3.713   3.793   7.769  1.9876  0.3116 -1.2816
   31CHL1   C22 2276   3.443   3.893   7.778 -0.2829 -0.7019 -0.4178
   31CHL1  H22A 2277   3.387   3.990   7.779 -0.1156 -0.5858  1.5498
   31CHL1  H22B 2278   3.372   3.811   7.757 -1.0116 -0.0288 -0.6279
   31CHL1   C23 2279   3.497   3.863   7.919  0.6140 -0.0914 -0.6873
   31CHL1  H23A 2280   3.540   3.761   7.915  0.5694 -0.0660 -2.2695
   31CHL1  H23B 2281   3.585   3.920   7.956 -0.9855  1.0153  1.7195
   31CHL1   C24 2282   3.395   3.879   8.035 -0.4664  0.2517  0.1583
   31CHL1  H24A 2283   3.304   3.834   7.990  0.8352 -2.0830 -0.3263
   31CHL1  H24B 2284   3.442   3.811   8.110  0.3909 -0.2836 -0.8371
   31CHL1   C25 2285   3.350   4.025   8.079 -0.0434 -0.0834 -0.0436
   31CHL1   H25 2286   3.281   4.065   8.002  0.6884 -1.2300 -1.3374
   31CHL1   C26 2287   3.254   4.024   8.200 -0.2773  0.6444  0.2073
   31CHL1  H26A 2288   3.264   4.117   8.260  0.4070  0.1747  0.8460
   31CHL1  H26B 2289   3.151   4.009   8.163  0.1235 -2.7046  0.1069
   31CHL1  H26C 2290   3.280   3.945   8.274 -0.3631  1.5052  1.1734
   31CHL1   C27 2291   3.471   4.121   8.107 -0.0675  0.0410 -0.3910
   31CHL1  H27A 2292   3.536   4.098   8.194  0.7121 -1.2628 -1.2834
   31CHL1  H27B 2293   3.439   4.227   8.118 -0.7437 -0.1632 -0.3294
   31CHL1  H27C 2294   3.542   4.115   8.022  1.2382  2.3836  0.4445
   32CHL1    C3 2295   3.415   2.882   6.888 -0.0068 -0.0533  0.3384
   32CHL1    H3 2296   3.422   2.773   6.911 -0.4683  0.6678  4.9099
   32CHL1    O3 2297   3.423   2.910   6.749  0.3458  0.2922 -0.2527
   32CHL1   H3' 2298   3.457   3.000   6.749  4.3399 -0.9163  2.7853
   32CHL1    C4 2299   3.273   2.948   6.938 -0.5661  0.1298  1.0793
   32CHL1   H4A 2300   3.288   3.056   6.920 -0.3953  0.4421  2.8841
   32CHL1   H4B 2301   3.186   2.917   6.876  1.2456 -0.8348 -1.1416
   32CHL1    C5 2302   3.257   2.910   7.082  0.3252 -0.0609 -0.2597
   32CHL1    C6 2303   3.157   2.837   7.133  0.0606  0.1401  0.5941
   32CHL1    H6 2304   3.084   2.799   7.060  2.0620  1.4981 -2.3293
   32CHL1    C7 2305   3.126   2.814   7.281 -0.3381  0.4061  0.8903
   32CHL1   H7A 2306   3.019   2.828   7.307 -0.7413 -1.0369  0.1314
   32CHL1   H7B 2307   3.149   2.709   7.307 -1.0733  0.5613  2.2312
   32CHL1    C8 2308   3.206   2.918   7.366  0.6211  0.0139 -0.1667
   32CHL1    H8 2309   3.160   3.019   7.357  3.2165  1.2054 -1.3209
   32CHL1   C14 2310   3.203   2.859   7.508  0.2559  0.5526 -0.4377
   32CHL1   H14 2311   3.264   2.767   7.510  0.5234  0.7375  0.9127
   32CHL1   C15 2312   3.065   2.819   7.569  0.1528  0.0728 -0.1076
   32CHL1  H15A 2313   2.985   2.893   7.552  0.6387  0.8565  0.8835
   32CHL1  H15B 2314   3.036   2.718   7.532 -1.1529 -0.2718  1.6896
   32CHL1   C16 2315   3.093   2.802   7.718  0.9520  0.1185  0.3152
   32CHL1  H16A 2316   3.017   2.851   7.783  0.1143 -1.7567  0.8354
   32CHL1  H16B 2317   3.101   2.695   7.747  1.8682  0.1459  0.1644
   32CHL1   C17 2318   3.230   2.864   7.745 -0.0476  0.5535 -0.8710
   32CHL1   H17 2319   3.298   2.776   7.750 -0.0299  0.6320  2.2980
   32CHL1   C13 2320   3.271   2.947   7.619 -0.5251  0.7831 -0.1513
   32CHL1   C18 2321   3.209   3.089   7.624 -0.5965  0.3282 -0.4235
   32CHL1  H18A 2322   3.244   3.159   7.546  0.2097  1.4699  0.8954
   32CHL1  H18B 2323   3.100   3.067   7.631 -0.6839  0.2485 -1.8660
   32CHL1  H18C 2324   3.249   3.150   7.708  3.2114 -2.3893  0.0199
   32CHL1   C12 2325   3.418   2.952   7.573  0.1723  0.4832 -0.5361
   32CHL1  H12A 2326   3.475   3.026   7.633 -1.6572  3.4462 -2.2088
   32CHL1  H12B 2327   3.464   2.851   7.575 -1.1979 -0.1497  0.8740
   32CHL1   C11 2328   3.434   2.997   7.425 -0.5569  0.0486  0.2707
   32CHL1  H11A 2329   3.411   3.105   7.420  0.1392  0.1793 -0.4144
   32CHL1  H11B 2330   3.544   3.001   7.412 -0.1892  0.3559  2.9319
   32CHL1    C9 2331   3.352   2.916   7.324  0.1257 -0.3778  0.2964
   32CHL1    H9 2332   3.392   2.813   7.328  1.1768 -0.1787 -2.4261
   32CHL1   C10 2333   3.368   2.968   7.176 -0.5227 -0.0900 -0.1677
   32CHL1   C19 2334   3.360   3.120   7.170  0.0138 -0.3131 -0.0583
   32CHL1  H19A 2335   3.278   3.168   7.228 -0.7015 -1.7480  0.1562
   32CHL1  H19B 2336   3.455   3.167   7.202 -0.2731  1.2566 -1.3420
   32CHL1  H19C 2337   3.356   3.165   7.068  2.2041 -2.4021 -1.1596
   32CHL1    C1 2338   3.501   2.918   7.118 -0.3502 -0.5640  0.0406
   32CHL1   H1A 2339   3.577   2.982   7.169 -1.7805  2.0416 -0.8978
   32CHL1   H1B 2340   3.522   2.811   7.140  1.6469 -0.0425  0.9829
   32CHL1    C2 2341   3.523   2.950   6.971 -0.2555  0.3172 -0.4685
   32CHL1   H2A 2342   3.618   2.912   6.929 -0.8728 -1.4177 -0.3510
   32CHL1   H2B 2343   3.524   3.060   6.953  1.0787  0.3818 -0.0973
   32CHL1   C20 2344   3.238   2.926   7.887 -0.5995 -0.5129  0.0451
   32CHL1   H20 2345   3.162   3.006   7.898  0.8159  0.7478  1.0759
   32CHL1   C21 2346   3.382   2.994   7.914  1.0908  0.6637  0.2809
   32CHL1  H21A 2347   3.387   3.083   7.847  0.2256 -0.6453 -1.6239
   32CHL1  H21B 2348   3.461   2.925   7.880  1.0355  0.5992  0.2818
   32CHL1  H21C 2349   3.397   3.026   8.019  1.0878  0.3405  0.3793
   32CHL1   C22 2350   3.201   2.821   8.002 -0.2357  0.5137  0.1626
   32CHL1  H22A 2351   3.203   2.876   8.099 -0.5818  2.2181 -0.7392
   32CHL1  H22B 2352   3.105   2.769   7.981  0.4598 -0.0334 -1.9321
   32CHL1   C23 2353   3.312   2.708   8.031  0.5211 -0.2460  0.7347
   32CHL1  H23A 2354   3.335   2.662   7.933 -0.3413  1.5238 -0.3437
   32CHL1  H23B 2355   3.401   2.768   8.062 -0.5199  1.6963  0.1597
   32CHL1   C24 2356   3.265   2.620   8.144  1.0866 -0.5130 -0.1033
   32CHL1  H24A 2357   3.252   2.678   8.238 -2.2829  0.1370 -0.8205
   32CHL1  H24B 2358   3.175   2.561   8.113  0.3892 -0.0150  0.9066
   32CHL1   C25 2359   3.368   2.523   8.189  0.5122  0.1367  0.4003
   32CHL1   H25 2360   3.406   2.471   8.098  2.4802  0.7744  0.8183
   32CHL1   C26 2361   3.485   2.580   8.257  0.4270 -0.2961 -0.1889
   32CHL1  H26A 2362   3.455   2.613   8.358  0.8609  0.6901 -0.3625
   32CHL1  H26B 2363   3.562   2.500   8.266 -0.5771 -1.0994  1.5038
   32CHL1  H26C 2364   3.527   2.665   8.198  2.1653 -0.1252  1.2114
   32CHL1   C27 2365   3.291   2.429   8.289  0.3955 -0.0843 -0.8827
   32CHL1  H27A 2366   3.203   2.389   8.235  1.4041  1.9225 -4.4021
   32CHL1  H27B 2367   3.362   2.354   8.329  1.3247  1.6637  0.9026
   32CHL1  H27C 2368   3.259   2.495   8.372 -2.5888 -2.4986  0.0684
   33CHL1    C3 2369   4.527   0.901   6.843  0.0798 -0.8747  0.4920
   33CHL1    H3 2370   4.628   0.941   6.865  0.7143 -1.5822 -0.9925
   33CHL1    O3 2371   4.507   0.898   6.707 -0.1909 -0.0841 -0.5082
   33CHL1   H3' 2372   4.415   0.876   6.692  0.5419 -1.8480 -3.1700
   33CHL1    C4 2373   4.522   0.756   6.902  0.5031 -0.9453  0.6026
   33CHL1   H4A 2374   4.427   0.703   6.878  0.6633 -0.3645 -1.5054
   33CHL1   H4B 2375   4.603   0.696   6.854  1.1410  0.6974 -0.4381
   33CHL1    C5 2376   4.543   0.770   7.054 -0.5972  0.2259 -0.4886
   33CHL1    C6 2377   4.644   0.698   7.117  0.1021 -0.4656  1.3886
   33CHL1    H6 2378   4.700   0.637   7.045 -1.8714 -0.2393 -0.4287
   33CHL1    C7 2379   4.662   0.698   7.266  0.0721 -0.0451 -0.0831
   33CHL1   H7A 2380   4.675   0.595   7.304 -0.6971 -0.2073 -0.2561
   33CHL1   H7B 2381   4.758   0.750   7.290  0.8707  1.0140 -4.7266
   33CHL1    C8 2382   4.546   0.755   7.346  0.1506  0.1671  0.0822
   33CHL1    H8 2383   4.457   0.689   7.338 -2.2435  3.1593  0.4184
   33CHL1   C14 2384   4.589   0.791   7.491 -0.9230 -0.4611  0.4508
   33CHL1   H14 2385   4.657   0.876   7.468 -1.8207 -0.3521 -2.2263
   33CHL1   C15 2386   4.669   0.692   7.573 -0.4199  0.0190 -0.1406
   33CHL1  H15A 2387   4.631   0.588   7.566 -2.6171  0.5139  2.6842
   33CHL1  H15B 2388   4.774   0.701   7.539 -0.5887  0.7320 -0.4970
   33CHL1   C16 2389   4.655   0.740   7.715 -0.3097 -0.0681 -0.3120
   33CHL1  H16A 2390   4.608   0.659   7.775 -1.5599 -0.1327 -1.3407
   33CHL1  H16B 2391   4.753   0.770   7.758  0.1598 -0.8447 -0.8204
   33CHL1   C17 2392   4.557   0.857   7.715  0.5052  0.0494  0.1458
   33CHL1   H17 2393   4.621   0.948   7.724  0.8244 -0.2501  0.9819
   33CHL1   C13 2394   4.484   0.859   7.582 -1.2335 -0.7402 -0.0864
   33CHL1   C18 2395   4.367   0.750   7.589  0.1888 -0.7143  0.1528
   33CHL1  H18A 2396   4.410   0.660   7.637  0.8223 -0.1707  0.6246
   33CHL1  H18B 2397   4.286   0.793   7.652  1.8801  2.3663  0.4136
   33CHL1  H18C 2398   4.332   0.732   7.485  1.0885  0.7323 -0.4321
   33CHL1   C12 2399   4.443   0.991   7.520  0.0815 -0.0393  0.2083
   33CHL1  H12A 2400   4.357   1.025   7.582 -0.1937 -0.7285  0.2182
   33CHL1  H12B 2401   4.530   1.059   7.522 -0.6137  0.8876 -0.3864
   33CHL1   C11 2402   4.401   0.973   7.375 -0.6508 -0.1185  0.8798
   33CHL1  H11A 2403   4.307   0.914   7.370 -0.3548 -0.6947  1.7962
   33CHL1  H11B 2404   4.400   1.068   7.318 -0.5589 -0.7425 -0.2087
   33CHL1    C9 2405   4.497   0.890   7.282  0.1285 -0.3119  0.4552
   33CHL1    H9 2406   4.585   0.956   7.266 -1.0538  1.9728  2.6820
   33CHL1   C10 2407   4.449   0.861   7.137  0.4943 -0.1965  0.4771
   33CHL1   C19 2408   4.302   0.789   7.136 -0.6236  0.2734  0.5248
   33CHL1  H19A 2409   4.278   0.771   7.029 -1.1596  1.1823  0.4890
   33CHL1  H19B 2410   4.306   0.698   7.200  1.5825  0.2635  0.4628
   33CHL1  H19C 2411   4.229   0.862   7.176 -0.6787 -0.1681  1.2489
   33CHL1    C1 2412   4.430   0.997   7.057  0.5280 -0.3554 -0.8646
   33CHL1   H1A 2413   4.339   1.046   7.097  0.5803  0.3277 -1.5613
   33CHL1   H1B 2414   4.512   1.067   7.081  0.7697  0.0388 -2.7198
   33CHL1    C2 2415   4.416   0.982   6.908  0.2899 -0.2721 -0.1433
   33CHL1   H2A 2416   4.417   1.081   6.858 -1.0661 -0.7848 -1.2725
   33CHL1   H2B 2417   4.320   0.928   6.893  0.4470 -1.4494  2.4834
   33CHL1   C20 2418   4.479   0.867   7.849  0.9141  0.0438  0.1834
   33CHL1   H20 2419   4.401   0.788   7.851  1.9098 -1.0563 -1.7228
   33CHL1   C21 2420   4.411   1.008   7.867  0.4822  0.8010 -0.0750
   33CHL1  H21A 2421   4.310   1.007   7.822  0.5801 -1.3770 -0.3480
   33CHL1  H21B 2422   4.471   1.083   7.811 -0.4815  0.7631 -1.2080
   33CHL1  H21C 2423   4.404   1.041   7.972 -3.6180  0.3001 -0.0478
   33CHL1   C22 2424   4.571   0.849   7.975 -0.1571  0.4215  0.0511
   33CHL1  H22A 2425   4.650   0.773   7.959  2.5471  3.2859 -1.3238
   33CHL1  H22B 2426   4.626   0.943   7.993  0.6893 -0.1213  0.3583
   33CHL1   C23 2427   4.509   0.817   8.108  0.4331  0.0361  0.0032
   33CHL1  H23A 2428   4.426   0.889   8.124 -1.7460 -2.6471  1.7808
   33CHL1  H23B 2429   4.462   0.717   8.118  0.7958 -0.0244  1.3412
   33CHL1   C24 2430   4.596   0.840   8.226 -0.1654 -0.1494  0.4149
   33CHL1  H24A 2431   4.695   0.793   8.204 -0.5662  0.0444 -2.1074
   33CHL1  H24B 2432   4.625   0.946   8.240  0.5641 -0.1110 -1.1258
   33CHL1   C25 2433   4.543   0.788   8.367 -0.2544  1.1187  0.6212
   33CHL1   H25 2434   4.530   0.678   8.358 -0.9852  1.2249  0.2845
   33CHL1   C26 2435   4.639   0.818   8.481  1.3665 -0.4885  0.0357
   33CHL1  H26A 2436   4.744   0.791   8.456  2.4023  2.0780  1.2719
   33CHL1  H26B 2437   4.628   0.921   8.520  0.9982 -0.3894 -0.3172
   33CHL1  H26C 2438   4.610   0.757   8.569 -1.5418  1.3546  0.5075
   33CHL1   C27 2439   4.414   0.842   8.407  0.3477 -0.6003  0.3399
   33CHL1  H27A 2440   4.375   0.804   8.504  0.0679  0.8660  0.8170
   33CHL1  H27B 2441   4.410   0.953   8.410 -2.5903 -0.6474  0.7935
   33CHL1  H27C 2442   4.331   0.828   8.335  0.1882  0.1046  0.3823
   34CHL1    C3 2443   5.746   1.727   6.980 -0.2601  0.1130 -0.1161
   34CHL1    H3 2444   5.725   1.835   6.966  0.4924  0.3194  0.2978
   34CHL1    O3 2445   5.741   1.661   6.858  0.0726  0.0633  0.4169
   34CHL1   H3' 2446   5.791   1.580   6.868  0.5459  0.0610 -1.5312
   34CHL1    C4 2447   5.885   1.686   7.033 -0.8233 -0.5478  0.4364
   34CHL1   H4A 2448   5.887   1.575   7.029  0.4782 -0.6387  2.4048
   34CHL1   H4B 2449   5.969   1.720   6.969  2.2020  1.7611  5.1202
   34CHL1    C5 2450   5.902   1.748   7.175 -0.6219 -0.6997  0.0252
   34CHL1    C6 2451   5.998   1.840   7.212  0.2419 -0.3219 -0.6299
   34CHL1    H6 2452   6.063   1.888   7.138 -1.4814  1.7984 -0.8533
   34CHL1    C7 2453   6.016   1.902   7.352 -0.3349  1.3065  0.1247
   34CHL1   H7A 2454   6.121   1.885   7.386  0.0627  1.2987 -1.0759
   34CHL1   H7B 2455   6.000   2.012   7.345 -0.2450  1.4231  1.4371
   34CHL1    C8 2456   5.936   1.826   7.462  0.7235  0.0931  0.1973
   34CHL1    H8 2457   5.981   1.726   7.482 -2.1062 -1.1490  0.8592
   34CHL1   C14 2458   5.930   1.915   7.588  0.2833  0.2636  0.8432
   34CHL1   H14 2459   5.879   2.007   7.553  0.1580 -0.0477  0.1926
   34CHL1   C15 2460   6.061   1.960   7.648  0.1825  0.4627  0.2126
   34CHL1  H15A 2461   6.123   1.869   7.658  2.5398  2.0377  1.0218
   34CHL1  H15B 2462   6.112   2.041   7.591  1.9665 -1.1365 -0.5637
   34CHL1   C16 2463   6.022   2.003   7.788  0.0616 -0.3155  0.5113
   34CHL1  H16A 2464   6.080   1.938   7.857  0.1351 -1.1013 -0.2745
   34CHL1  H16B 2465   6.036   2.112   7.805 -0.0987 -0.4160  1.3165
   34CHL1   C17 2466   5.874   1.965   7.800 -0.2854 -0.0568 -0.1320
   34CHL1   H17 2467   5.814   2.057   7.784 -1.5738 -0.9150 -0.4398
   34CHL1   C13 2468   5.841   1.858   7.691  0.6650  0.5419 -0.1463
   34CHL1   C18 2469   5.890   1.719   7.740  0.6714 -0.7077 -0.3390
   34CHL1  H18A 2470   5.885   1.640   7.662  0.4079 -0.2735 -0.7657
   34CHL1  H18B 2471   5.996   1.718   7.772  0.6241 -1.3753 -0.1764
   34CHL1  H18C 2472   5.828   1.685   7.827  1.3394 -0.5683  0.2028
   34CHL1   C12 2473   5.701   1.840   7.644  0.5239 -0.0665 -0.0231
   34CHL1  H12A 2474   5.641   1.792   7.724 -1.6127  2.6285  0.1800
   34CHL1  H12B 2475   5.642   1.934   7.633 -1.0659 -1.1448 -1.3433
   34CHL1   C11 2476   5.691   1.754   7.514 -0.3252  0.1263 -0.7928
   34CHL1  H11A 2477   5.709   1.649   7.544 -1.1754 -0.5032 -2.3716
   34CHL1  H11B 2478   5.585   1.761   7.479 -0.7480 -0.9651  0.2040
   34CHL1    C9 2479   5.790   1.803   7.405  0.0723 -0.7412  0.6637
   34CHL1    H9 2480   5.755   1.900   7.364  3.3553  0.2431 -0.0968
   34CHL1   C10 2481   5.792   1.709   7.276 -0.1439  0.3068 -0.2406
   34CHL1   C19 2482   5.817   1.554   7.315 -0.1649  0.7375 -0.0818
   34CHL1  H19A 2483   5.894   1.555   7.395 -0.7786  0.6060  0.5196
   34CHL1  H19B 2484   5.718   1.518   7.347 -0.7552  1.8661 -0.5812
   34CHL1  H19C 2485   5.839   1.487   7.229  0.1222  0.2758  0.3414
   34CHL1    C1 2486   5.656   1.722   7.216  0.3320  0.6807 -0.2461
   34CHL1   H1A 2487   5.582   1.660   7.272  0.9473  0.5378  0.4202
   34CHL1   H1B 2488   5.627   1.829   7.222 -1.9217  0.1510 -0.7244
   34CHL1    C2 2489   5.637   1.674   7.073 -0.0755 -0.2943 -0.3117
   34CHL1   H2A 2490   5.537   1.697   7.028 -0.6280  0.6840  1.3230
   34CHL1   H2B 2491   5.643   1.563   7.063 -1.1850 -0.4656  0.7184
   34CHL1   C20 2492   5.835   1.934   7.948 -0.8004  0.4072  0.2987
   34CHL1   H20 2493   5.889   1.843   7.982 -0.2210  1.0953  1.2375
   34CHL1   C21 2494   5.685   1.906   7.969  0.2349  0.3333  0.4671
   34CHL1  H21A 2495   5.652   1.895   8.075 -0.6891  0.0808  0.1620
   34CHL1  H21B 2496   5.647   1.814   7.920 -1.3043  0.8883  0.5555
   34CHL1  H21C 2497   5.630   1.995   7.932  1.1093  0.9024  0.5225
   34CHL1   C22 2498   5.872   2.052   8.045 -0.1866 -0.3051 -0.5665
   34CHL1  H22A 2499   5.968   2.098   8.014 -0.2277  0.3233  0.2094
   34CHL1  H22B 2500   5.786   2.121   8.031 -0.3669 -0.7062 -1.5100
   34CHL1   C23 2501   5.894   1.995   8.187  0.2317 -1.0224 -0.7366
   34CHL1  H23A 2502   5.816   1.916   8.187 -0.0276 -0.8552 -3.1105
   34CHL1  H23B 2503   5.995   1.949   8.200  1.2701  1.3474  0.0996
   34CHL1   C24 2504   5.870   2.112   8.290  0.2342  0.4484  0.0700
   34CHL1  H24A 2505   5.940   2.193   8.262  0.2972 -0.5299 -2.9960
   34CHL1  H24B 2506   5.767   2.150   8.270  0.1425  0.0902 -0.1505
   34CHL1   C25 2507   5.887   2.081   8.442 -0.1339 -0.2144 -0.0888
   34CHL1   H25 2508   5.806   2.011   8.470  0.8655 -1.7487 -0.8821
   34CHL1   C26 2509   6.012   2.001   8.474  0.1022  0.0297  0.7155
   34CHL1  H26A 2510   6.095   2.048   8.419  0.0474 -0.5446  0.1310
   34CHL1  H26B 2511   6.038   1.999   8.582  1.4065  0.9230  0.4409
   34CHL1  H26C 2512   5.979   1.899   8.445 -0.1379  0.3628 -0.2192
   34CHL1   C27 2513   5.882   2.208   8.534  0.2982 -0.6471  0.2362
   34CHL1  H27A 2514   5.967   2.272   8.501  0.0286  1.5190  3.3405
   34CHL1  H27B 2515   5.781   2.249   8.515  0.7982  0.7052  0.3539
   34CHL1  H27C 2516   5.898   2.170   8.637 -0.2192 -0.3886  0.4121
   35CHL1    C3 2517   2.675   2.671   7.143 -1.0204  0.7588 -0.6752
   35CHL1    H3 2518   2.785   2.660   7.133 -1.3430 -1.9912 -2.3220
   35CHL1    O3 2519   2.622   2.676   7.014  0.4579 -0.2477 -0.7418
   35CHL1   H3' 2520   2.590   2.587   7.000 -0.0449 -0.3710  0.9398
   35CHL1    C4 2521   2.634   2.555   7.232  0.1789  0.1313  0.6447
   35CHL1   H4A 2522   2.525   2.540   7.216  0.1580  0.0176  0.8966
   35CHL1   H4B 2523   2.665   2.456   7.192  0.2155  0.4226 -0.0729
   35CHL1    C5 2524   2.685   2.558   7.374 -0.1160 -0.2908 -0.3681
   35CHL1    C6 2525   2.731   2.451   7.447 -0.4229 -0.3235 -0.0664
   35CHL1    H6 2526   2.757   2.355   7.399 -0.7582 -0.8037  0.6911
   35CHL1    C7 2527   2.766   2.455   7.589 -0.4592  0.1060  0.4699
   35CHL1   H7A 2528   2.722   2.364   7.636 -1.4462  0.5495  0.4296
   35CHL1   H7B 2529   2.876   2.447   7.603 -0.6170 -3.5330  0.6405
   35CHL1    C8 2530   2.703   2.569   7.666 -0.4398  0.2741  0.0069
   35CHL1    H8 2531   2.597   2.547   7.694  0.5122 -1.8289  2.3450
   35CHL1   C14 2532   2.779   2.594   7.796  0.7398 -1.0051  0.0154
   35CHL1   H14 2533   2.880   2.636   7.779 -0.2203  1.7226  0.5804
   35CHL1   C15 2534   2.816   2.476   7.889  0.2791  0.3934 -0.4589
   35CHL1  H15A 2535   2.725   2.415   7.906  0.1586  0.5596 -0.5008
   35CHL1  H15B 2536   2.890   2.401   7.854 -0.3503  0.0570 -1.0970
   35CHL1   C16 2537   2.857   2.544   8.018 -0.2172 -0.1926  0.2501
   35CHL1  H16A 2538   2.811   2.496   8.107 -0.9672  1.3717  0.7400
   35CHL1  H16B 2539   2.968   2.544   8.029 -0.1667  0.5768 -0.2271
   35CHL1   C17 2540   2.814   2.699   8.005 -0.1204  0.1802  0.0701
   35CHL1   H17 2541   2.907   2.741   7.960 -0.9694  1.4263 -0.5902
   35CHL1   C13 2542   2.716   2.704   7.886  1.0363  0.8929 -0.6834
   35CHL1   C18 2543   2.573   2.659   7.944  0.1055  0.3571  0.3066
   35CHL1  H18A 2544   2.547   2.731   8.025 -0.3026 -1.6228  2.0061
   35CHL1  H18B 2545   2.484   2.652   7.878  0.5681 -1.4966 -0.1691
   35CHL1  H18C 2546   2.589   2.559   7.991  1.7501  0.6590  0.4713
   35CHL1   C12 2547   2.707   2.834   7.808 -0.0606  0.2321 -0.0104
   35CHL1  H12A 2548   2.645   2.903   7.870 -1.6993 -1.2486  0.0548
   35CHL1  H12B 2549   2.814   2.863   7.812  0.5484 -1.6342 -1.4269
   35CHL1   C11 2550   2.646   2.827   7.666  0.6143  0.0138  0.6808
   35CHL1  H11A 2551   2.540   2.805   7.692  0.8019  2.3130  4.0777
   35CHL1  H11B 2552   2.661   2.919   7.605 -1.6733 -1.0203 -1.6269
   35CHL1    C9 2553   2.710   2.704   7.588  0.6325 -0.3216  0.1432
   35CHL1    H9 2554   2.817   2.728   7.566  0.4859  1.6210  1.2941
   35CHL1   C10 2555   2.650   2.686   7.446 -0.3021 -0.3990 -0.5449
   35CHL1   C19 2556   2.497   2.689   7.464 -0.5419  0.4092 -0.0343
   35CHL1  H19A 2557   2.468   2.619   7.546  2.4284 -0.6174  0.2942
   35CHL1  H19B 2558   2.460   2.788   7.498 -3.4430 -0.3784 -0.6423
   35CHL1  H19C 2559   2.449   2.659   7.369  0.6935  2.4940 -1.3892
   35CHL1    C1 2560   2.697   2.799   7.353 -0.7784 -0.4042  0.1376
   35CHL1   H1A 2561   2.659   2.890   7.404  1.2302 -0.1378  1.2407
   35CHL1   H1B 2562   2.808   2.803   7.349 -0.6874  1.8748  2.1473
   35CHL1    C2 2563   2.638   2.798   7.215 -0.5208 -0.9748 -0.2451
   35CHL1   H2A 2564   2.695   2.870   7.152  0.5884 -2.9885 -1.6775
   35CHL1   H2B 2565   2.532   2.831   7.215 -0.2208  0.1092  1.7483
   35CHL1   C20 2566   2.801   2.775   8.142 -0.8545  0.7232 -0.3013
   35CHL1   H20 2567   2.724   2.717   8.198  0.0201  0.1691  0.3584
   35CHL1   C21 2568   2.769   2.918   8.117 -0.4308 -0.1273  0.3435
   35CHL1  H21A 2569   2.676   2.934   8.058 -0.3043  0.9374  0.4104
   35CHL1  H21B 2570   2.847   2.968   8.055 -0.2754  1.5897  1.8517
   35CHL1  H21C 2571   2.756   2.976   8.210  0.6718 -0.4521  0.7197
   35CHL1   C22 2572   2.929   2.758   8.233 -0.6591  0.0426  0.3071
   35CHL1  H22A 2573   2.959   2.651   8.229  0.5050  0.3841 -1.9077
   35CHL1  H22B 2574   3.016   2.807   8.184 -0.4491 -0.7840 -0.1649
   35CHL1   C23 2575   2.912   2.804   8.375 -0.7491  0.0622 -0.3089
   35CHL1  H23A 2576   2.863   2.903   8.387 -0.7273  0.3561 -2.3181
   35CHL1  H23B 2577   2.863   2.725   8.436  3.0639 -0.3425  2.5989
   35CHL1   C24 2578   3.053   2.818   8.439  0.5418  0.2440  0.0165
   35CHL1  H24A 2579   3.105   2.722   8.422  1.6959  0.5194  1.6819
   35CHL1  H24B 2580   3.101   2.904   8.386 -2.4918  0.1601 -3.2666
   35CHL1   C25 2581   3.059   2.848   8.593  0.1233  0.3982  0.7761
   35CHL1   H25 2582   3.000   2.782   8.660 -0.4032  0.0922  0.0233
   35CHL1   C26 2583   3.206   2.841   8.633  0.2529  0.1525 -0.1939
   35CHL1  H26A 2584   3.210   2.881   8.736 -2.7863 -0.7803  0.3858
   35CHL1  H26B 2585   3.250   2.739   8.635  0.8796  0.3547 -1.9096
   35CHL1  H26C 2586   3.266   2.891   8.554  1.0670 -0.4763  0.0184
   35CHL1   C27 2587   3.007   2.989   8.622 -0.2384  0.1602 -0.6913
   35CHL1  H27A 2588   2.899   2.987   8.647 -0.0409  1.7105  0.4506
   35CHL1  H27B 2589   3.023   3.064   8.541  1.0559  2.7110  1.7496
   35CHL1  H27C 2590   3.056   3.036   8.710  0.2220  0.3824 -1.0580
   36CHL1    C3 2591   4.643   2.438   7.039 -0.0080 -0.2189 -0.5703
   36CHL1    H3 2592   4.632   2.545   7.068  0.4025 -0.3150 -0.0354
   36CHL1    O3 2593   4.623   2.422   6.898 -0.1915 -0.0966 -1.0098
   36CHL1   H3' 2594   4.528   2.435   6.898 -0.1281  0.4011 -1.8196
   36CHL1    C4 2595   4.783   2.393   7.072  0.7964 -0.3538 -0.5845
   36CHL1   H4A 2596   4.798   2.289   7.037 -1.0169 -0.8967  0.1404
   36CHL1   H4B 2597   4.858   2.453   7.015  0.5498 -0.8462 -1.4499
   36CHL1    C5 2598   4.803   2.404   7.221 -0.7038  0.1228  0.0825
   36CHL1    C6 2599   4.922   2.444   7.278 -0.2401 -0.4218  0.0539
   36CHL1    H6 2600   5.004   2.478   7.214 -1.1531  0.1262 -0.8569
   36CHL1    C7 2601   4.942   2.426   7.425  0.2057 -0.6377 -0.3349
   36CHL1   H7A 2602   5.044   2.389   7.449  0.5566  0.2154 -0.4651
   36CHL1   H7B 2603   4.942   2.526   7.472 -1.7986 -0.5406 -0.4816
   36CHL1    C8 2604   4.844   2.334   7.505  1.3677  0.0018  0.1944
   36CHL1    H8 2605   4.867   2.226   7.489 -1.5445 -0.9301  1.4855
   36CHL1   C14 2606   4.857   2.364   7.653 -0.5316  0.4471 -0.4825
   36CHL1   H14 2607   4.825   2.468   7.677 -2.1493 -0.1391 -0.0039
   36CHL1   C15 2608   4.998   2.338   7.724 -0.4827 -0.4259  0.4374
   36CHL1  H15A 2609   5.050   2.247   7.689 -0.4000 -0.6266  1.0711
   36CHL1  H15B 2610   5.072   2.418   7.699  0.4323 -1.6545 -0.9167
   36CHL1   C16 2611   4.964   2.339   7.872  0.6346 -0.2170  0.7074
   36CHL1  H16A 2612   5.024   2.264   7.929 -0.4482 -0.1243  2.0222
   36CHL1  H16B 2613   4.989   2.437   7.919 -0.5246 -0.1694  1.2544
   36CHL1   C17 2614   4.802   2.323   7.882  0.2414 -0.4072  0.1327
   36CHL1   H17 2615   4.763   2.424   7.905 -1.7535 -1.5742  2.3214
   36CHL1   C13 2616   4.761   2.276   7.742 -0.2187 -0.0736  0.8841
   36CHL1   C18 2617   4.796   2.123   7.731 -0.3758 -0.4857 -0.2996
   36CHL1  H18A 2618   4.773   2.090   7.627  1.4266 -0.1332 -0.8523
   36CHL1  H18B 2619   4.903   2.104   7.754  0.2359  2.1939 -0.6180
   36CHL1  H18C 2620   4.730   2.071   7.803 -0.0311  0.4596  0.7232
   36CHL1   C12 2621   4.618   2.307   7.701  0.3563 -0.4438  0.2727
   36CHL1  H12A 2622   4.550   2.233   7.747  1.4298 -0.7181  1.5003
   36CHL1  H12B 2623   4.589   2.414   7.716 -1.1818 -0.8397  0.2679
   36CHL1   C11 2624   4.595   2.284   7.547 -0.2517 -0.0451  0.1438
   36CHL1  H11A 2625   4.604   2.175   7.527  1.9119 -0.1161  1.2020
   36CHL1  H11B 2626   4.492   2.319   7.524  0.6631  1.1593 -2.5511
   36CHL1    C9 2627   4.706   2.361   7.456  0.3340  0.3632  0.7861
   36CHL1    H9 2628   4.691   2.468   7.480  1.2708  0.3084  1.7196
   36CHL1   C10 2629   4.694   2.330   7.311  0.1434  0.8894  0.0862
   36CHL1   C19 2630   4.715   2.176   7.283  0.4855 -0.3420  0.2326
   36CHL1  H19A 2631   4.825   2.163   7.281  0.6810  1.3471 -1.3556
   36CHL1  H19B 2632   4.657   2.113   7.355  1.0416  0.3294  1.3018
   36CHL1  H19C 2633   4.686   2.158   7.178  0.8636  1.0858 -0.1365
   36CHL1    C1 2634   4.547   2.361   7.257  0.4685  0.1253  0.4624
   36CHL1   H1A 2635   4.481   2.281   7.297 -0.7144  0.2873 -1.0586
   36CHL1   H1B 2636   4.506   2.455   7.299  0.0115  0.1542 -0.0349
   36CHL1    C2 2637   4.532   2.364   7.109 -0.3006  0.4240  0.8715
   36CHL1   H2A 2638   4.440   2.420   7.081  0.8101  1.7681 -0.2754
   36CHL1   H2B 2639   4.527   2.259   7.074  1.8225  0.3794  0.5298
   36CHL1   C20 2640   4.757   2.249   8.007  0.0228 -0.4462 -0.4564
   36CHL1   H20 2641   4.783   2.141   7.999 -0.9104 -0.6245 -1.4206
   36CHL1   C21 2642   4.599   2.253   8.019 -0.5845 -0.1071  0.3517
   36CHL1  H21A 2643   4.567   2.172   7.950  0.6320  0.2348 -0.6367
   36CHL1  H21B 2644   4.552   2.340   7.970 -1.4056 -0.5918  0.2537
   36CHL1  H21C 2645   4.564   2.252   8.124  0.4145 -0.8041  0.6930
   36CHL1   C22 2646   4.823   2.306   8.141 -0.3867  0.5470  0.4697
   36CHL1  H22A 2647   4.934   2.309   8.129 -0.5670 -0.2722 -2.2238
   36CHL1  H22B 2648   4.784   2.410   8.153 -0.6290  0.8625 -2.2262
   36CHL1   C23 2649   4.794   2.228   8.268 -0.0951 -0.5672 -0.0745
   36CHL1  H23A 2650   4.692   2.250   8.307 -0.5335  0.2600 -1.5985
   36CHL1  H23B 2651   4.799   2.120   8.241  0.0844 -0.2703 -1.3177
   36CHL1   C24 2652   4.898   2.254   8.384  0.0816 -0.4823  0.2702
   36CHL1  H24A 2653   5.002   2.248   8.345  0.6926 -0.4011  1.8042
   36CHL1  H24B 2654   4.885   2.356   8.426  0.6039 -0.6070  0.7525
   36CHL1   C25 2655   4.883   2.157   8.506 -0.3888 -0.4279  0.3697
   36CHL1   H25 2656   4.885   2.050   8.477 -0.3265 -0.3191 -0.0358
   36CHL1   C26 2657   5.012   2.187   8.588  0.0401 -0.4334  0.1752
   36CHL1  H26A 2658   5.011   2.130   8.684 -1.1748 -1.2327 -0.2889
   36CHL1  H26B 2659   5.097   2.155   8.524 -0.2679 -3.4823  1.1008
   36CHL1  H26C 2660   5.009   2.293   8.621  1.8964 -0.8398  1.8766
   36CHL1   C27 2661   4.756   2.187   8.584 -1.0062 -0.1175  0.2471
   36CHL1  H27A 2662   4.755   2.287   8.633 -1.5425  0.2214 -0.4482
   36CHL1  H27B 2663   4.665   2.172   8.522 -0.3527  0.1409 -0.7896
   36CHL1  H27C 2664   4.760   2.113   8.667  2.0507 -0.7383 -0.3557
   37CHL1    C3 2665   6.252   4.606   6.913 -0.4451 -0.7206  0.1978
   37CHL1    H3 2666   6.224   4.511   6.964  0.4004  0.7851  3.7167
   37CHL1    O3 2667   6.257   4.598   6.771 -0.0684 -0.1842  0.4782
   37CHL1   H3' 2668   6.197   4.664   6.735 -0.0094 -1.6563 -2.7102
   37CHL1    C4 2669   6.130   4.704   6.946 -0.6128 -0.3500 -0.1014
   37CHL1   H4A 2670   6.160   4.800   6.898  2.6962 -1.3181 -0.2229
   37CHL1   H4B 2671   6.039   4.659   6.902 -1.5889 -1.2927  2.6812
   37CHL1    C5 2672   6.115   4.735   7.098 -0.1229 -0.3062  0.9656
   37CHL1    C6 2673   5.998   4.727   7.169 -0.4763 -0.9238 -0.0468
   37CHL1    H6 2674   5.906   4.691   7.121 -1.5711  0.0915  1.2086
   37CHL1    C7 2675   5.995   4.750   7.311  0.7127 -0.7786  0.3801
   37CHL1   H7A 2676   5.898   4.795   7.343  1.1192 -0.0170  0.5483
   37CHL1   H7B 2677   6.004   4.649   7.357  3.3837 -1.3360 -1.1863
   37CHL1    C8 2678   6.106   4.831   7.368 -0.0169 -0.0411 -0.3213
   37CHL1    H8 2679   6.098   4.939   7.342 -0.0151  0.2338  0.7746
   37CHL1   C14 2680   6.103   4.814   7.518  0.5196  0.4905  0.8101
   37CHL1   H14 2681   6.137   4.709   7.528 -1.6991 -0.1571  2.0262
   37CHL1   C15 2682   5.974   4.810   7.601  0.6287 -0.0443  0.1185
   37CHL1  H15A 2683   5.917   4.903   7.580  0.0991  0.0890  1.9550
   37CHL1  H15B 2684   5.911   4.722   7.579 -1.5175  1.3816  0.2718
   37CHL1   C16 2685   6.025   4.824   7.742  0.8803 -0.0015  0.8570
   37CHL1  H16A 2686   5.979   4.903   7.805 -1.4940  0.2978 -1.0995
   37CHL1  H16B 2687   6.002   4.723   7.783  2.3296 -0.0266  1.6871
   37CHL1   C17 2688   6.176   4.835   7.745  0.2242 -0.6631  0.4907
   37CHL1   H17 2689   6.205   4.728   7.742  0.0310 -0.7032 -0.5129
   37CHL1   C13 2690   6.206   4.892   7.602  0.3484 -0.4317  0.5564
   37CHL1   C18 2691   6.191   5.042   7.584  0.0197 -0.1850 -0.0818
   37CHL1  H18A 2692   6.100   5.088   7.629  1.4869  1.5737  1.2564
   37CHL1  H18B 2693   6.270   5.107   7.627 -0.5478  1.1116 -0.9401
   37CHL1  H18C 2694   6.205   5.063   7.476 -1.8515  0.2189 -0.2903
   37CHL1   C12 2695   6.343   4.850   7.548 -0.3573  0.1619 -0.4408
   37CHL1  H12A 2696   6.422   4.915   7.591 -0.1970  0.9470 -1.8486
   37CHL1  H12B 2697   6.367   4.744   7.570 -2.0878 -0.1624  0.0099
   37CHL1   C11 2698   6.352   4.865   7.393 -0.1510 -0.0798 -0.9097
   37CHL1  H11A 2699   6.341   4.973   7.371  0.3116 -0.3870 -2.9240
   37CHL1  H11B 2700   6.452   4.832   7.355  0.9705  2.6332 -0.5288
   37CHL1    C9 2701   6.240   4.786   7.314 -0.7389  0.1347 -0.2467
   37CHL1    H9 2702   6.255   4.680   7.345 -0.2409  0.3535  0.2764
   37CHL1   C10 2703   6.251   4.783   7.158 -0.6357  0.4161 -0.2791
   37CHL1   C19 2704   6.280   4.923   7.107  0.0947 -0.2018  0.2153
   37CHL1  H19A 2705   6.196   4.990   7.138  0.7447  0.5643  0.3592
   37CHL1  H19B 2706   6.375   4.961   7.149 -1.4132  0.4747  3.3932
   37CHL1  H19C 2707   6.299   4.923   6.998  1.3636 -0.4670  0.4240
   37CHL1    C1 2708   6.372   4.697   7.125  0.1311 -0.2792  0.2772
   37CHL1   H1A 2709   6.458   4.757   7.163 -0.6910  0.1965  1.4698
   37CHL1   H1B 2710   6.370   4.601   7.180  0.5648  0.2277  1.2072
   37CHL1    C2 2711   6.383   4.664   6.974  0.5741  0.2646  0.1987
   37CHL1   H2A 2712   6.457   4.582   6.962  0.2388  0.2583 -2.2894
   37CHL1   H2B 2713   6.414   4.758   6.924  1.5818 -0.6703 -1.0113
   37CHL1   C20 2714   6.227   4.908   7.869 -0.0121 -0.2167 -0.1557
   37CHL1   H20 2715   6.176   5.006   7.860 -1.7535 -1.0168  0.3966
   37CHL1   C21 2716   6.379   4.932   7.866 -0.0225 -0.7481  0.4383
   37CHL1  H21A 2717   6.422   4.961   7.964 -0.7949  0.4956  0.4242
   37CHL1  H21B 2718   6.401   5.017   7.798  1.1425 -0.8261  0.6991
   37CHL1  H21C 2719   6.442   4.848   7.828  1.0389 -0.7497  2.1034
   37CHL1   C22 2720   6.175   4.863   8.009 -0.1448  0.2366 -0.2710
   37CHL1  H22A 2721   6.064   4.860   8.008 -0.2183 -1.9832  2.5635
   37CHL1  H22B 2722   6.216   4.761   8.021  0.2279  0.2982 -0.9506
   37CHL1   C23 2723   6.210   4.946   8.131  0.0755 -0.3066  0.2521
   37CHL1  H23A 2724   6.321   4.948   8.144  0.4513  0.6947 -2.4948
   37CHL1  H23B 2725   6.176   5.052   8.127  1.5207  0.2313  1.2131
   37CHL1   C24 2726   6.149   4.881   8.262 -0.0064  0.2789  0.1749
   37CHL1  H24A 2727   6.048   4.846   8.231  1.2455 -4.1633  0.5008
   37CHL1  H24B 2728   6.206   4.787   8.275 -0.6597 -0.6510 -2.9408
   37CHL1   C25 2729   6.149   4.964   8.385 -0.4801 -0.5339 -0.7394
   37CHL1   H25 2730   6.104   4.910   8.471  0.7655 -0.4606 -0.0166
   37CHL1   C26 2731   6.289   4.997   8.451  0.3182  0.2674  0.1459
   37CHL1  H26A 2732   6.277   5.075   8.530 -2.1237 -0.2781  0.3717
   37CHL1  H26B 2733   6.346   4.907   8.482 -2.7864 -1.4518  1.2362
   37CHL1  H26C 2734   6.354   5.039   8.371 -0.1326  0.9007  0.0971
   37CHL1   C27 2735   6.057   5.086   8.377 -0.3409  0.1768  0.0468
   37CHL1  H27A 2736   6.094   5.175   8.322 -0.2878  0.6367  0.8065
   37CHL1  H27B 2737   5.958   5.075   8.329 -0.2823  1.5400 -0.4016
   37CHL1  H27C 2738   6.046   5.129   8.479 -0.6847 -0.6992  0.3877
   38CHL1    C3 2739   3.408   4.670   6.646  0.9952 -0.4289 -0.2710
   38CHL1    H3 2740   3.516   4.651   6.662  0.8593 -2.5663 -1.6212
   38CHL1    O3 2741   3.372   4.666   6.510 -0.6244 -0.0615  0.2687
   38CHL1   H3' 2742   3.429   4.728   6.463 -0.7483 -0.3499 -0.2700
   38CHL1    C4 2743   3.323   4.567   6.718 -0.4755 -0.2201 -0.2493
   38CHL1   H4A 2744   3.212   4.573   6.715 -0.4718  0.7118  0.7807
   38CHL1   H4B 2745   3.345   4.464   6.685  0.2011 -0.5780  1.2188
   38CHL1    C5 2746   3.365   4.581   6.863 -0.0839 -0.0564 -1.0452
   38CHL1    C6 2747   3.430   4.479   6.931 -0.6748  0.9541  0.3189
   38CHL1    H6 2748   3.462   4.387   6.880  0.7536  1.5132  0.1564
   38CHL1    C7 2749   3.471   4.480   7.071  0.0866 -1.2359  0.2655
   38CHL1   H7A 2750   3.445   4.378   7.108  0.2630 -1.4774 -0.2717
   38CHL1   H7B 2751   3.579   4.499   7.086 -0.3100  3.5005 -1.1529
   38CHL1    C8 2752   3.402   4.597   7.153  0.3094 -0.8497 -0.2657
   38CHL1    H8 2753   3.300   4.563   7.179  0.3065 -0.0643  0.7965
   38CHL1   C14 2754   3.476   4.624   7.286 -0.2665  0.3742  0.6506
   38CHL1   H14 2755   3.580   4.650   7.256 -1.0746  0.1086 -2.7382
   38CHL1   C15 2756   3.480   4.497   7.372  0.3007  0.0465  0.0440
   38CHL1  H15A 2757   3.382   4.447   7.383 -0.1997  0.4500 -2.1893
   38CHL1  H15B 2758   3.557   4.430   7.328 -0.5947 -1.4714  0.7127
   38CHL1   C16 2759   3.531   4.553   7.509  0.7732 -0.2195  0.3441
   38CHL1  H16A 2760   3.457   4.514   7.582 -0.2883 -0.4619 -0.8232
   38CHL1  H16B 2761   3.635   4.529   7.539  0.9010  0.9526  0.8812
   38CHL1   C17 2762   3.510   4.709   7.506  0.8014  0.2098  0.1046
   38CHL1   H17 2763   3.611   4.753   7.494  1.7440 -1.6618  0.7845
   38CHL1   C13 2764   3.423   4.731   7.379 -0.6038  0.0946 -0.7218
   38CHL1   C18 2765   3.274   4.699   7.408 -1.1653  0.0084  0.0408
   38CHL1  H18A 2766   3.215   4.708   7.314 -2.6145 -0.8985  0.8299
   38CHL1  H18B 2767   3.262   4.601   7.460 -1.0775  0.2298  0.4802
   38CHL1  H18C 2768   3.236   4.777   7.477 -2.2492 -0.8188  0.4193
   38CHL1   C12 2769   3.436   4.867   7.300  0.6644  0.1414 -0.3328
   38CHL1  H12A 2770   3.387   4.944   7.364 -1.0503 -1.7854  0.8098
   38CHL1  H12B 2771   3.545   4.888   7.291  1.1846 -2.0484  0.1561
   38CHL1   C11 2772   3.380   4.862   7.157  0.1493  0.1091  1.0834
   38CHL1  H11A 2773   3.269   4.869   7.163 -0.0427 -1.7019  0.3481
   38CHL1  H11B 2774   3.426   4.943   7.097  3.1790 -1.0930  1.6053
   38CHL1    C9 2775   3.411   4.732   7.072 -0.1568  0.3536 -0.2778
   38CHL1    H9 2776   3.520   4.737   7.052  0.1304 -2.3888  0.2752
   38CHL1   C10 2777   3.336   4.715   6.933  0.0747 -0.8011  0.2238
   38CHL1   C19 2778   3.183   4.725   6.949  0.1291  0.2936  0.1673
   38CHL1  H19A 2779   3.145   4.641   7.010  0.2365 -0.4297 -0.7486
   38CHL1  H19B 2780   3.154   4.819   7.002  0.8051  0.1253  0.8499
   38CHL1  H19C 2781   3.125   4.728   6.854 -0.0359 -1.6639  0.1798
   38CHL1    C1 2782   3.396   4.833   6.845  0.5647 -0.0626  0.4061
   38CHL1   H1A 2783   3.360   4.937   6.862  3.3128  1.4346 -1.9718
   38CHL1   H1B 2784   3.507   4.832   6.854  0.6656  0.4031 -0.6236
   38CHL1    C2 2785   3.367   4.811   6.698  0.3115 -0.7695  0.4802
   38CHL1   H2A 2786   3.433   4.878   6.638 -0.1820 -0.8819 -0.1994
   38CHL1   H2B 2787   3.264   4.833   6.663  0.8698 -1.3484 -1.6484
   38CHL1   C20 2788   3.466   4.771   7.645  0.5025 -0.0942 -0.4075
   38CHL1   H20 2789   3.362   4.745   7.673  0.3402  1.9066  1.0690
   38CHL1   C21 2790   3.459   4.928   7.646  0.3112  0.3278  0.0148
   38CHL1  H21A 2791   3.374   4.960   7.582 -0.5530  0.8960  1.3973
   38CHL1  H21B 2792   3.558   4.956   7.603 -0.1474  1.3358 -0.4186
   38CHL1  H21C 2793   3.442   4.975   7.745 -0.6535 -0.7948  0.4047
   38CHL1   C22 2794   3.568   4.728   7.760  0.1379  0.0366  1.0502
   38CHL1  H22A 2795   3.633   4.644   7.728  1.2160  0.6415  1.5762
   38CHL1  H22B 2796   3.635   4.815   7.777  1.2469 -0.1668 -1.7589
   38CHL1   C23 2797   3.493   4.685   7.893  0.0687  0.3377  0.3938
   38CHL1  H23A 2798   3.418   4.765   7.911 -0.9521 -0.0882 -1.6747
   38CHL1  H23B 2799   3.441   4.588   7.881  2.5291 -1.0521  0.1894
   38CHL1   C24 2800   3.591   4.669   8.015  0.2681  0.2352  0.2028
   38CHL1  H24A 2801   3.677   4.616   7.967  0.6429  2.4936 -1.8574
   38CHL1  H24B 2802   3.631   4.769   8.042  1.5327 -0.5622  1.4391
   38CHL1   C25 2803   3.527   4.612   8.148  0.2217  0.2814  0.5101
   38CHL1   H25 2804   3.448   4.675   8.193 -3.0232 -2.6364 -0.6646
   38CHL1   C26 2805   3.437   4.487   8.127 -0.1822 -0.1459 -0.0343
   38CHL1  H26A 2806   3.412   4.435   8.222 -1.1245 -0.0538 -0.2199
   38CHL1  H26B 2807   3.337   4.509   8.083 -0.4104 -0.3867  0.3525
   38CHL1  H26C 2808   3.485   4.408   8.066 -0.5194 -1.9983  1.9838
   38CHL1   C27 2809   3.636   4.594   8.251  0.1254  0.2818  0.3226
   38CHL1  H27A 2810   3.706   4.519   8.209 -0.6685 -1.1845  1.5531
   38CHL1  H27B 2811   3.689   4.685   8.288 -0.1761  1.2195 -1.4249
   38CHL1  H27C 2812   3.588   4.543   8.337 -0.4752  1.2575  0.5873
   39CHL1    C3 2813   2.342   3.350   6.861  0.7542 -0.2565 -0.1728
   39CHL1    H3 2814   2.265   3.270   6.869  2.3928 -1.9240 -0.4849
   39CHL1    O3 2815   2.380   3.359   6.726 -1.0773 -0.3623 -0.0503
   39CHL1   H3' 2816   2.472   3.386   6.726 -1.2110  0.1074  0.4125
   39CHL1    C4 2817   2.300   3.485   6.910  0.2038 -0.3162  0.0494
   39CHL1   H4A 2818   2.384   3.554   6.889 -0.2518  0.5513  0.9719
   39CHL1   H4B 2819   2.212   3.530   6.858  1.0269  2.3292  0.7834
   39CHL1    C5 2820   2.284   3.511   7.054  0.1473  0.3684 -0.0368
   39CHL1    C6 2821   2.169   3.554   7.109 -0.3864 -0.6859 -0.1017
   39CHL1    H6 2822   2.082   3.576   7.045 -0.0132 -1.5177 -0.9209
   39CHL1    C7 2823   2.152   3.593   7.254 -0.3341  0.1460 -0.3885
   39CHL1   H7A 2824   2.092   3.686   7.264 -0.9577 -0.3048  0.1800
   39CHL1   H7B 2825   2.097   3.508   7.301 -0.6104  0.3665 -0.3099
   39CHL1    C8 2826   2.286   3.604   7.330 -0.3707  0.6714  0.1899
   39CHL1    H8 2827   2.335   3.695   7.289  2.2087 -1.4885 -1.8736
   39CHL1   C14 2828   2.261   3.606   7.477  0.3603 -0.0530 -0.6147
   39CHL1   H14 2829   2.215   3.508   7.499 -0.9467  0.6960  0.1536
   39CHL1   C15 2830   2.155   3.712   7.525  0.6669 -0.1972 -0.1027
   39CHL1  H15A 2831   2.166   3.809   7.472  1.5675  0.8020  1.7951
   39CHL1  H15B 2832   2.054   3.680   7.495  1.4132 -3.0996  0.2145
   39CHL1   C16 2833   2.178   3.711   7.679  0.3110  0.3901  0.5598
   39CHL1  H16A 2834   2.202   3.813   7.714  1.1855 -0.3948  2.3503
   39CHL1  H16B 2835   2.089   3.678   7.737 -0.9299  2.6960  0.0858
   39CHL1   C17 2836   2.315   3.632   7.697 -0.0325  0.5333  0.0094
   39CHL1   H17 2837   2.281   3.526   7.709 -0.2587  0.2521 -2.6050
   39CHL1   C13 2838   2.386   3.616   7.562  0.4889 -0.0339 -0.5053
   39CHL1   C18 2839   2.466   3.736   7.524  0.6477 -0.0698  0.4519
   39CHL1  H18A 2840   2.413   3.832   7.540  3.3761  1.4672  0.8977
   39CHL1  H18B 2841   2.554   3.759   7.588  0.4419  2.4236 -0.0497
   39CHL1  H18C 2842   2.505   3.730   7.420  0.9703  0.6105  0.5300
   39CHL1   C12 2843   2.466   3.491   7.545 -0.4234 -0.0756  0.0344
   39CHL1  H12A 2844   2.571   3.502   7.581 -0.2708 -0.2545 -0.3435
   39CHL1  H12B 2845   2.416   3.403   7.589 -0.8759  0.2737  0.2345
   39CHL1   C11 2846   2.489   3.464   7.395 -0.1424  0.9331  0.1915
   39CHL1  H11A 2847   2.574   3.528   7.364 -1.2800  2.2531 -0.3443
   39CHL1  H11B 2848   2.534   3.364   7.376 -2.3735 -0.2358  0.7396
   39CHL1    C9 2849   2.370   3.477   7.294  0.4589 -0.2659  0.5079
   39CHL1    H9 2850   2.310   3.388   7.321  1.0479 -0.1803  2.2123
   39CHL1   C10 2851   2.404   3.475   7.143  0.7363  0.2929 -1.3870
   39CHL1   C19 2852   2.532   3.558   7.127 -0.4188  0.3948  0.3285
   39CHL1  H19A 2853   2.611   3.496   7.175 -0.0075 -0.1430 -1.0029
   39CHL1  H19B 2854   2.578   3.580   7.028  1.5033  1.4187  1.3844
   39CHL1  H19C 2855   2.529   3.661   7.168  3.0988  0.1979  1.4701
   39CHL1    C1 2856   2.432   3.323   7.103  0.3547  0.3687  0.9139
   39CHL1   H1A 2857   2.524   3.300   7.161  0.1455 -2.4654  0.2940
   39CHL1   H1B 2858   2.347   3.266   7.146  0.3275 -1.3349 -1.1926
   39CHL1    C2 2859   2.452   3.293   6.950 -0.3325  0.3115 -0.1386
   39CHL1   H2A 2860   2.451   3.184   6.928 -0.1816  0.7607 -2.7515
   39CHL1   H2B 2861   2.548   3.335   6.912 -0.4250  0.3225 -0.3671
   39CHL1   C20 2862   2.390   3.666   7.819  0.9331  0.0547 -0.0227
   39CHL1   H20 2863   2.430   3.770   7.825  0.7636  0.1826 -0.9311
   39CHL1   C21 2864   2.507   3.579   7.830 -0.1922 -0.1109 -0.0779
   39CHL1  H21A 2865   2.558   3.593   7.928 -2.3743  0.8557  0.9927
   39CHL1  H21B 2866   2.580   3.602   7.749 -0.8524 -1.1172 -0.9728
   39CHL1  H21C 2867   2.474   3.473   7.840  0.5063 -0.6316 -2.5456
   39CHL1   C22 2868   2.295   3.654   7.953 -0.5554 -0.1757 -0.3972
   39CHL1  H22A 2869   2.216   3.732   7.946 -1.4426 -1.0021  0.1768
   39CHL1  H22B 2870   2.237   3.559   7.960 -2.3416  0.9855  3.4176
   39CHL1   C23 2871   2.365   3.673   8.085  0.1966 -0.1064  0.0122
   39CHL1  H23A 2872   2.452   3.604   8.093  1.9999  1.5520 -3.3648
   39CHL1  H23B 2873   2.410   3.775   8.093 -0.0463 -0.1327  5.0775
   39CHL1   C24 2874   2.261   3.664   8.201  0.5604 -0.3668  0.3251
   39CHL1  H24A 2875   2.183   3.738   8.176  2.6381  1.8869  0.0998
   39CHL1  H24B 2876   2.223   3.562   8.219 -0.8272 -0.3190 -2.0347
   39CHL1   C25 2877   2.331   3.699   8.336  1.0124  0.1763  0.4822
   39CHL1   H25 2878   2.380   3.798   8.326  0.8028  0.1260 -1.3939
   39CHL1   C26 2879   2.231   3.705   8.450  0.5966  0.1255 -0.6872
   39CHL1  H26A 2880   2.291   3.731   8.540 -0.1321 -0.8952  0.1099
   39CHL1  H26B 2881   2.154   3.785   8.445  0.6404  0.1003 -2.6262
   39CHL1  H26C 2882   2.180   3.610   8.474 -0.8259  0.1769 -3.1381
   39CHL1   C27 2883   2.440   3.590   8.374  0.0061 -1.1068  0.6113
   39CHL1  H27A 2884   2.409   3.485   8.351  0.9393 -1.5126  1.1667
   39CHL1  H27B 2885   2.535   3.603   8.319 -0.6582  0.3846 -0.2548
   39CHL1  H27C 2886   2.464   3.592   8.482 -1.6754  1.0290  1.0259
   40CHL1    C3 2887   4.858   2.791   6.938  0.6932  0.5058  0.6328
   40CHL1    H3 2888   4.867   2.680   6.938  1.7732  0.5759  0.9491
   40CHL1    O3 2889   4.849   2.832   6.805 -0.0024 -0.3831 -0.0772
   40CHL1   H3' 2890   4.938   2.838   6.769 -0.0419 -2.2055 -0.5476
   40CHL1    C4 2891   4.726   2.845   7.011 -0.1151  0.1872 -0.6272
   40CHL1   H4A 2892   4.712   2.952   6.987 -0.8139  0.6376  1.5517
   40CHL1   H4B 2893   4.640   2.794   6.962 -0.6239  1.0920 -0.6910
   40CHL1    C5 2894   4.719   2.830   7.164 -0.7760  0.1249  0.5181
   40CHL1    C6 2895   4.611   2.778   7.226 -0.4989  0.0409 -0.1565
   40CHL1    H6 2896   4.521   2.745   7.172  0.2143  0.7236 -1.8351
   40CHL1    C7 2897   4.607   2.758   7.380  0.3123  0.6082  0.6395
   40CHL1   H7A 2898   4.513   2.797   7.425  0.0949 -0.3096  1.0136
   40CHL1   H7B 2899   4.622   2.649   7.395 -1.4323  0.0725 -1.1182
   40CHL1    C8 2900   4.719   2.834   7.457  0.7375  0.7354 -0.2465
   40CHL1    H8 2901   4.698   2.943   7.455 -0.9216  0.4164 -1.4376
   40CHL1   C14 2902   4.734   2.771   7.595  0.2875  0.5708 -0.6980
   40CHL1   H14 2903   4.768   2.667   7.574 -2.1781 -0.4380 -0.0571
   40CHL1   C15 2904   4.599   2.745   7.670 -0.0950 -0.4367  0.2556
   40CHL1  H15A 2905   4.526   2.828   7.660  0.8001  0.3837  0.3320
   40CHL1  H15B 2906   4.533   2.661   7.638 -1.6071  1.3695 -1.7071
   40CHL1   C16 2907   4.652   2.722   7.812 -0.8854  0.3901 -0.2140
   40CHL1  H16A 2908   4.590   2.794   7.870  0.6594  1.1710  0.5439
   40CHL1  H16B 2909   4.631   2.620   7.850  1.5963  0.1452  0.6544
   40CHL1   C17 2910   4.806   2.752   7.813  0.4435  0.4861  0.3168
   40CHL1   H17 2911   4.861   2.658   7.792  0.4861  0.5610  0.0911
   40CHL1   C13 2912   4.830   2.838   7.685  0.2534 -0.2582 -0.3432
   40CHL1   C18 2913   4.778   2.979   7.714 -0.5600  0.2031  0.4371
   40CHL1  H18A 2914   4.674   2.997   7.747 -0.3905  0.6288  0.7414
   40CHL1  H18B 2915   4.849   3.041   7.773  0.3494  0.6501 -1.0462
   40CHL1  H18C 2916   4.776   3.024   7.612 -0.4557 -0.6671  0.0357
   40CHL1   C12 2917   4.967   2.828   7.618 -0.0089 -1.0744  0.8757
   40CHL1  H12A 2918   5.046   2.880   7.677  0.5910 -0.8319 -0.1254
   40CHL1  H12B 2919   5.007   2.724   7.614 -0.2994 -1.1435 -0.7507
   40CHL1   C11 2920   4.973   2.872   7.471 -0.3398 -0.4169  0.6997
   40CHL1  H11A 2921   4.971   2.983   7.471  1.5284 -0.3232 -0.8691
   40CHL1  H11B 2922   5.068   2.830   7.430 -1.0972 -1.3826 -0.1548
   40CHL1    C9 2923   4.847   2.822   7.385 -0.3428  0.6024 -0.3616
   40CHL1    H9 2924   4.866   2.713   7.380  2.5048  1.0433 -0.6075
   40CHL1   C10 2925   4.848   2.873   7.237 -0.1566 -0.6629 -0.2458
   40CHL1   C19 2926   4.862   3.032   7.241  0.1405 -0.1547  0.6147
   40CHL1  H19A 2927   4.780   3.057   7.311  0.2567 -0.9372  1.0467
   40CHL1  H19B 2928   4.964   3.059   7.276  0.7994 -1.6326 -0.0174
   40CHL1  H19C 2929   4.835   3.073   7.141  1.2574 -1.3450 -0.2247
   40CHL1    C1 2930   4.965   2.808   7.150 -0.3144 -0.0910  0.5885
   40CHL1   H1A 2931   5.061   2.839   7.197  0.4069  0.9761 -1.4590
   40CHL1   H1B 2932   4.966   2.697   7.154  0.1770 -0.2448 -1.9532
   40CHL1    C2 2933   4.980   2.853   7.001  0.4139  0.5968  0.2727
   40CHL1   H2A 2934   5.082   2.826   6.967  1.0099  0.7093  1.8779
   40CHL1   H2B 2935   4.973   2.963   6.992  1.1109  0.7546  1.4765
   40CHL1   C20 2936   4.852   2.795   7.947 -0.5327  0.0809  0.1467
   40CHL1   H20 2937   4.792   2.887   7.966  0.3391  0.9305 -1.0936
   40CHL1   C21 2938   5.004   2.833   7.937 -0.1063 -0.2704  0.2740
   40CHL1  H21A 2939   5.042   2.890   8.025  0.7751 -1.4413  0.6767
   40CHL1  H21B 2940   5.000   2.915   7.862 -3.3277  0.7978  1.4376
   40CHL1  H21C 2941   5.079   2.761   7.900  0.9831  2.0074 -2.2468
   40CHL1   C22 2942   4.825   2.697   8.068  0.4117 -0.4178  0.2163
   40CHL1  H22A 2943   4.715   2.680   8.060  0.6521 -1.7422 -0.5201
   40CHL1  H22B 2944   4.872   2.602   8.035  0.3184 -0.8708  1.3225
   40CHL1   C23 2945   4.884   2.754   8.197 -0.4466  0.1098 -0.7496
   40CHL1  H23A 2946   4.994   2.738   8.200 -0.3887  0.5805 -0.1119
   40CHL1  H23B 2947   4.868   2.864   8.190  3.7500  1.1294  2.0732
   40CHL1   C24 2948   4.831   2.677   8.325 -0.0353 -0.3551  0.4130
   40CHL1  H24A 2949   4.720   2.681   8.318  0.0705  0.0531 -3.1044
   40CHL1  H24B 2950   4.863   2.571   8.321  3.8811  0.6963 -1.0936
   40CHL1   C25 2951   4.889   2.758   8.446  0.6900  0.1314  0.1655
   40CHL1   H25 2952   4.999   2.769   8.437  0.4695  1.8647 -0.8182
   40CHL1   C26 2953   4.813   2.893   8.463  0.3861 -0.1054 -0.4114
   40CHL1  H26A 2954   4.702   2.884   8.457  0.2882  1.5697 -2.3290
   40CHL1  H26B 2955   4.838   2.950   8.556 -1.3168  0.6946 -0.4007
   40CHL1  H26C 2956   4.836   2.967   8.383 -2.0114  0.2938 -0.8141
   40CHL1   C27 2957   4.858   2.664   8.568  0.5553  0.3933 -0.5784
   40CHL1  H27A 2958   4.895   2.560   8.556  1.1229  0.4974  0.1759
   40CHL1  H27B 2959   4.880   2.719   8.662  0.5208  2.0969 -1.5383
   40CHL1  H27C 2960   4.747   2.663   8.567  0.5236  1.5623 -1.9762
   41CHL1    C3 2961   5.820   3.069   6.978  0.0825  0.1582 -0.2074
   41CHL1    H3 2962   5.826   2.968   7.026 -1.3903  0.4063  0.5530
   41CHL1    O3 2963   5.814   3.045   6.838 -0.0887 -0.7612 -0.0982
   41CHL1   H3' 2964   5.861   3.118   6.798 -1.8761  0.4864 -0.0225
   41CHL1    C4 2965   5.701   3.157   7.022 -0.4662  0.2520 -0.4563
   41CHL1   H4A 2966   5.695   3.251   6.963 -0.2661  1.1086  0.8485
   41CHL1   H4B 2967   5.606   3.102   7.004  0.0340 -0.8912  0.2454
   41CHL1    C5 2968   5.709   3.201   7.164 -0.0842  0.3618  0.2495
   41CHL1    C6 2969   5.623   3.162   7.257  0.7016  0.2674  0.0685
   41CHL1    H6 2970   5.542   3.094   7.226  0.7736  0.0666  0.3113
   41CHL1    C7 2971   5.623   3.209   7.398 -0.1028 -0.7208 -0.2281
   41CHL1   H7A 2972   5.521   3.244   7.422  0.1961 -0.3686  0.5652
   41CHL1   H7B 2973   5.640   3.122   7.465 -0.8747 -3.4761 -3.3502
   41CHL1    C8 2974   5.730   3.319   7.426  0.0168 -0.6110  0.9282
   41CHL1    H8 2975   5.683   3.417   7.401 -1.2798 -1.7971 -1.6216
   41CHL1   C14 2976   5.763   3.336   7.572  0.3761 -0.3389  0.0437
   41CHL1   H14 2977   5.807   3.239   7.605  1.2352 -0.3813 -1.1292
   41CHL1   C15 2978   5.648   3.352   7.660 -0.5285  0.1559 -0.4249
   41CHL1  H15A 2979   5.570   3.423   7.625  0.7815  0.4863 -2.9681
   41CHL1  H15B 2980   5.587   3.259   7.665  2.4230 -1.8589  2.0402
   41CHL1   C16 2981   5.710   3.394   7.798 -0.7546  0.2098 -0.7275
   41CHL1  H16A 2982   5.645   3.477   7.832  0.9611  0.4413  2.2934
   41CHL1  H16B 2983   5.700   3.313   7.874  0.0565 -0.5343 -1.3960
   41CHL1   C17 2984   5.860   3.416   7.771  0.3171 -0.0239  0.1502
   41CHL1   H17 2985   5.920   3.323   7.781  1.2506  0.3901 -1.1543
   41CHL1   C13 2986   5.867   3.437   7.611 -0.3902  0.1110  0.3581
   41CHL1   C18 2987   5.816   3.578   7.577  0.1682  0.1795 -0.5064
   41CHL1  H18A 2988   5.900   3.651   7.583 -1.1287  1.7628 -1.1014
   41CHL1  H18B 2989   5.778   3.581   7.473  0.8229 -2.7753 -0.9189
   41CHL1  H18C 2990   5.741   3.625   7.644 -0.3400 -0.9772 -0.2378
   41CHL1   C12 2991   6.001   3.395   7.553  0.1635 -0.7738  0.7176
   41CHL1  H12A 2992   6.076   3.471   7.583  0.2098 -0.4538 -0.1884
   41CHL1  H12B 2993   6.044   3.306   7.604  0.7201 -1.8205 -1.4578
   41CHL1   C11 2994   5.975   3.386   7.400 -0.4483  0.2957 -0.4334
   41CHL1  H11A 2995   5.954   3.490   7.366  0.0502  1.1092  1.6044
   41CHL1  H11B 2996   6.069   3.355   7.350 -0.2215  1.1464 -0.5502
   41CHL1    C9 2997   5.855   3.286   7.355 -0.0548  0.5650 -0.1126
   41CHL1    H9 2998   5.891   3.187   7.391  0.4911 -0.0759 -2.2674
   41CHL1   C10 2999   5.834   3.278   7.204  0.2190  0.4307 -0.3210
   41CHL1   C19 3000   5.816   3.421   7.147  0.5114 -0.6053  0.2695
   41CHL1  H19A 3001   5.906   3.486   7.150  0.2541 -0.2604  0.6684
   41CHL1  H19B 3002   5.782   3.421   7.042  0.9058 -1.4610  0.1396
   41CHL1  H19C 3003   5.737   3.485   7.194  0.3071 -0.5175 -0.1924
   41CHL1    C1 3004   5.966   3.207   7.143  0.3621 -0.9416 -0.3163
   41CHL1   H1A 3005   6.048   3.282   7.139 -0.5383  0.0246 -1.7148
   41CHL1   H1B 3006   6.002   3.121   7.202  1.2989  0.4874  1.2820
   41CHL1    C2 3007   5.951   3.149   7.002 -0.2731 -0.0268  0.7981
   41CHL1   H2A 3008   6.032   3.076   6.981 -0.4224 -0.2965  1.1568
   41CHL1   H2B 3009   5.962   3.234   6.931  0.5097 -0.7962 -0.0402
   41CHL1   C20 3010   5.935   3.505   7.872  0.4620  0.7414  0.3484
   41CHL1   H20 3011   5.916   3.609   7.836  1.8929  1.3088  1.1538
   41CHL1   C21 3012   6.091   3.489   7.857  0.5192 -0.2515 -0.1789
   41CHL1  H21A 3013   6.136   3.548   7.941  0.3438  0.4708 -0.5780
   41CHL1  H21B 3014   6.121   3.532   7.759 -1.2747 -1.2304 -1.1987
   41CHL1  H21C 3015   6.136   3.388   7.863 -0.3654 -0.6318  0.0464
   41CHL1   C22 3016   5.880   3.481   8.013 -0.2732 -0.1260 -0.0594
   41CHL1  H22A 3017   5.770   3.498   8.007 -0.2338  0.1930  0.0771
   41CHL1  H22B 3018   5.896   3.375   8.042 -1.1211 -0.7579 -1.7826
   41CHL1   C23 3019   5.939   3.562   8.125  0.0719 -0.7256 -0.4672
   41CHL1  H23A 3020   6.045   3.535   8.144  0.4801  0.9798 -0.1680
   41CHL1  H23B 3021   5.938   3.669   8.095 -0.5180 -0.8900 -1.0797
   41CHL1   C24 3022   5.858   3.542   8.253 -0.6778 -0.8910 -0.0874
   41CHL1  H24A 3023   5.748   3.539   8.237 -0.7075 -2.5997  0.2284
   41CHL1  H24B 3024   5.890   3.444   8.294  2.6096  0.0129 -0.2249
   41CHL1   C25 3025   5.898   3.653   8.360 -0.7053 -0.2200 -0.2375
   41CHL1   H25 3026   5.938   3.746   8.314  0.1041  0.2371  1.3229
   41CHL1   C26 3027   5.782   3.688   8.446  0.7416 -0.9149 -0.7189
   41CHL1  H26A 3028   5.747   3.613   8.520  0.7288 -0.8334 -0.6401
   41CHL1  H26B 3029   5.819   3.772   8.509 -3.4869  0.0329  0.8771
   41CHL1  H26C 3030   5.700   3.734   8.386  1.3206  0.8983 -0.1791
   41CHL1   C27 3031   6.015   3.601   8.441  0.1728  0.4039 -0.3123
   41CHL1  H27A 3032   5.992   3.530   8.523  1.6652  0.0480 -0.1722
   41CHL1  H27B 3033   6.082   3.543   8.375 -0.1865  0.0174 -0.3440
   41CHL1  H27C 3034   6.064   3.692   8.481  1.0854  0.5766 -1.7535
   42CHL1    C3 3035   6.644   0.062   6.876 -0.1274 -0.1684 -0.2062
   42CHL1    H3 3036   6.751   0.078   6.897 -0.2774  1.1281 -0.3473
   42CHL1    O3 3037   6.614   0.091   6.740 -0.4346  0.2358  0.5202
   42CHL1   H3' 3038   6.669   0.030   6.689 -1.7432 -0.5257 -0.0158
   42CHL1    C4 3039   6.587  -0.067   6.914 -0.6704 -0.3909  0.2143
   42CHL1   H4A 3040   6.479  -0.050   6.893 -0.3961  0.3879 -0.6375
   42CHL1   H4B 3041   6.622  -0.153   6.852 -0.7545 -0.7951  0.7221
   42CHL1    C5 3042   6.607  -0.098   7.060  0.2544  0.3621  0.5215
   42CHL1    C6 3043   6.683  -0.205   7.100  0.4379  0.6177  0.1193
   42CHL1    H6 3044   6.726  -0.272   7.024  0.5125  1.6174 -0.7428
   42CHL1    C7 3045   6.694  -0.251   7.242 -0.3397  0.1309 -0.4686
   42CHL1   H7A 3046   6.679  -0.361   7.252  1.1566  0.0138  0.9104
   42CHL1   H7B 3047   6.802  -0.242   7.267 -0.5724  1.6411  0.1203
   42CHL1    C8 3048   6.602  -0.179   7.341  0.1789 -0.0974 -0.1808
   42CHL1    H8 3049   6.501  -0.224   7.329  0.5472 -0.9136 -0.2796
   42CHL1   C14 3050   6.647  -0.198   7.489  0.1678 -0.3062  0.4010
   42CHL1   H14 3051   6.744  -0.144   7.479  0.2257 -0.7534 -2.2845
   42CHL1   C15 3052   6.664  -0.341   7.530  0.0218 -0.2089  0.1484
   42CHL1  H15A 3053   6.580  -0.409   7.504 -0.0503  0.1738 -0.6224
   42CHL1  H15B 3054   6.764  -0.373   7.493  0.0619  0.3443 -0.2343
   42CHL1   C16 3055   6.670  -0.329   7.686  0.4681 -0.1720  0.3283
   42CHL1  H16A 3056   6.611  -0.416   7.720 -0.2342  0.3631  0.5094
   42CHL1  H16B 3057   6.773  -0.345   7.725  0.5989  0.0792  0.0949
   42CHL1   C17 3058   6.626  -0.179   7.720  0.4762  0.8871 -0.7058
   42CHL1   H17 3059   6.722  -0.126   7.739  1.2680 -0.9528  0.7212
   42CHL1   C13 3060   6.555  -0.133   7.583  1.1164 -0.3819 -0.3788
   42CHL1   C18 3061   6.406  -0.178   7.568  0.0286 -0.9288 -0.5407
   42CHL1  H18A 3062   6.361  -0.150   7.471 -0.9092 -1.5453 -0.2992
   42CHL1  H18B 3063   6.398  -0.287   7.591  2.7232 -0.8487  1.3266
   42CHL1  H18C 3064   6.351  -0.120   7.645 -1.8755  0.5633 -2.8854
   42CHL1   C12 3065   6.566   0.015   7.551  0.3234  0.3054 -0.3716
   42CHL1  H12A 3066   6.517   0.069   7.635 -0.1052 -2.5373  1.3726
   42CHL1  H12B 3067   6.674   0.040   7.558  0.3005  0.1533  0.7284
   42CHL1   C11 3068   6.516   0.060   7.417  0.3597 -0.8052  0.2646
   42CHL1  H11A 3069   6.405   0.056   7.410  0.1946  0.3006  1.8206
   42CHL1  H11B 3070   6.540   0.166   7.392 -0.1945 -0.1953  2.1598
   42CHL1    C9 3071   6.589  -0.028   7.304 -0.6723  0.4100  0.0849
   42CHL1    H9 3072   6.695   0.004   7.300 -0.3191 -0.7819 -2.9940
   42CHL1   C10 3073   6.547  -0.004   7.159  0.7567  0.7121 -0.3890
   42CHL1   C19 3074   6.390  -0.017   7.157  0.6768  0.5940  0.3653
   42CHL1  H19A 3075   6.371  -0.126   7.167  1.8581  0.4060  0.6961
   42CHL1  H19B 3076   6.336   0.040   7.235 -0.3192 -1.2756  1.0967
   42CHL1  H19C 3077   6.346   0.014   7.059  1.1092  0.0744 -0.0013
   42CHL1    C1 3078   6.587   0.134   7.110  0.2201 -0.0933  0.6578
   42CHL1   H1A 3079   6.534   0.208   7.173 -0.5746 -1.2955  1.4417
   42CHL1   H1B 3080   6.696   0.143   7.132  0.6813 -0.4179 -1.2826
   42CHL1    C2 3081   6.565   0.168   6.959  0.2302 -0.0505  0.2823
   42CHL1   H2A 3082   6.599   0.272   6.942  3.3313 -1.2399 -1.7572
   42CHL1   H2B 3083   6.459   0.164   6.927 -0.1641  0.3001  1.4957
   42CHL1   C20 3084   6.551  -0.161   7.851  0.1965  0.9060  0.5103
   42CHL1   H20 3085   6.469  -0.235   7.851 -1.0729  2.2474 -1.2313
   42CHL1   C21 3086   6.494  -0.022   7.867 -0.1808 -0.2334 -0.3674
   42CHL1  H21A 3087   6.575   0.052   7.855 -0.7021  0.2912 -0.7027
   42CHL1  H21B 3088   6.443  -0.010   7.965 -0.1406 -2.9772  0.0817
   42CHL1  H21C 3089   6.416   0.002   7.791 -0.4058 -0.9321 -0.3721
   42CHL1   C22 3090   6.632  -0.192   7.978 -0.8900  0.6548  0.1591
   42CHL1  H22A 3091   6.668  -0.295   7.957 -2.4552 -0.4452  2.4195
   42CHL1  H22B 3092   6.715  -0.121   7.994 -0.5028  0.2696 -0.1268
   42CHL1   C23 3093   6.559  -0.199   8.113 -0.7348 -0.1057  0.3678
   42CHL1  H23A 3094   6.503  -0.103   8.121  0.9677  1.0102 -0.5281
   42CHL1  H23B 3095   6.496  -0.287   8.138  2.3822 -2.4379  0.4996
   42CHL1   C24 3096   6.671  -0.186   8.220  0.2982  0.0983 -0.6502
   42CHL1  H24A 3097   6.740  -0.271   8.205 -0.7408 -0.9724  0.4534
   42CHL1  H24B 3098   6.721  -0.089   8.199  2.8008 -1.0849 -0.5359
   42CHL1   C25 3099   6.625  -0.192   8.367 -0.1907  0.3784 -0.8346
   42CHL1   H25 3100   6.538  -0.123   8.378 -1.6126 -1.4929  0.2652
   42CHL1   C26 3101   6.579  -0.331   8.414 -0.8815  0.3224  0.9297
   42CHL1  H26A 3102   6.502  -0.365   8.342  2.0008 -1.1628 -1.6618
   42CHL1  H26B 3103   6.660  -0.405   8.402 -1.4690 -0.0802 -0.8244
   42CHL1  H26C 3104   6.552  -0.335   8.522 -0.9052 -0.6825  0.8884
   42CHL1   C27 3105   6.744  -0.146   8.451 -0.8898 -0.1548  0.4793
   42CHL1  H27A 3106   6.735  -0.142   8.562 -0.5086 -0.0750  0.5092
   42CHL1  H27B 3107   6.761  -0.041   8.420 -3.5010  0.1860  0.0005
   42CHL1  H27C 3108   6.832  -0.209   8.426 -1.3889 -0.9943  0.8144
   43CHL1    C3 3109   0.038   3.683   6.915 -0.2236  0.5067 -0.4561
   43CHL1    H3 3110  -0.053   3.734   6.955  0.2412  0.3378  0.8562
   43CHL1    O3 3111   0.020   3.688   6.770 -0.1041  0.0175 -0.3589
   43CHL1   H3' 3112   0.111   3.691   6.738 -0.7779  0.4290 -2.3821
   43CHL1    C4 3113   0.167   3.750   6.963 -0.6380  0.1160  0.4179
   43CHL1   H4A 3114   0.251   3.685   6.932 -0.1816  0.4665  0.8969
   43CHL1   H4B 3115   0.197   3.843   6.911  2.5981 -1.7318 -1.3131
   43CHL1    C5 3116   0.163   3.758   7.122  0.4449  0.1714 -0.1878
   43CHL1    C6 3117   0.178   3.873   7.186 -0.0727 -0.3320 -0.3122
   43CHL1    H6 3118   0.201   3.964   7.129  4.0793 -1.9143 -1.5047
   43CHL1    C7 3119   0.181   3.893   7.333 -0.6709  0.5651  1.5299
   43CHL1   H7A 3120   0.274   3.943   7.368  0.1573  0.8818 -0.9551
   43CHL1   H7B 3121   0.090   3.951   7.360 -0.9914  0.1900  1.2654
   43CHL1    C8 3122   0.186   3.752   7.404  0.6272  0.0749  0.1042
   43CHL1    H8 3123   0.295   3.728   7.403  0.9147  1.2119 -1.3443
   43CHL1   C14 3124   0.150   3.768   7.552  0.5903 -0.1461  0.6968
   43CHL1   H14 3125   0.040   3.786   7.555  1.0808  3.5762  0.3483
   43CHL1   C15 3126   0.198   3.896   7.633 -0.5363  0.5550  0.4133
   43CHL1  H15A 3127   0.300   3.926   7.601 -0.5266 -0.6624 -0.8352
   43CHL1  H15B 3128   0.126   3.973   7.600 -1.8791  0.2559  2.4917
   43CHL1   C16 3129   0.195   3.850   7.778  0.5965 -0.3808 -0.3171
   43CHL1  H16A 3130   0.299   3.836   7.817  0.2573 -1.5747  0.2331
   43CHL1  H16B 3131   0.143   3.921   7.845  0.0887 -0.9279 -0.1210
   43CHL1   C17 3132   0.126   3.704   7.773 -0.3989 -0.2769 -0.0163
   43CHL1   H17 3133   0.018   3.727   7.761 -0.7261 -1.5315  0.3606
   43CHL1   C13 3134   0.171   3.643   7.635  0.7396 -0.5508 -0.6568
   43CHL1   C18 3135   0.317   3.601   7.645 -0.0551  0.5703  0.7763
   43CHL1  H18A 3136   0.377   3.689   7.678 -2.7827  2.4879  1.0353
   43CHL1  H18B 3137   0.332   3.515   7.713 -0.5429 -2.3884 -2.6061
   43CHL1  H18C 3138   0.357   3.572   7.546 -0.6918  0.0097  0.6797
   43CHL1   C12 3139   0.086   3.529   7.577 -0.0805  0.3915 -0.9682
   43CHL1  H12A 3140   0.116   3.429   7.618  0.4818  0.7913 -0.3799
   43CHL1  H12B 3141  -0.021   3.547   7.601 -0.9985 -1.9962 -2.8153
   43CHL1   C11 3142   0.092   3.514   7.427  0.2672  0.0895  0.8762
   43CHL1  H11A 3143   0.161   3.432   7.397  0.0773 -0.0345  0.7701
   43CHL1  H11B 3144  -0.008   3.471   7.404  0.2153  0.1752  0.9424
   43CHL1    C9 3145   0.100   3.645   7.336 -0.5373 -0.4822  0.5873
   43CHL1    H9 3146   0.001   3.694   7.338 -0.8062 -0.8364 -1.4038
   43CHL1   C10 3147   0.134   3.620   7.189 -0.3629  0.5744  0.1805
   43CHL1   C19 3148   0.262   3.528   7.187  0.4185  0.2717  0.2439
   43CHL1  H19A 3149   0.228   3.423   7.194  1.2870  0.0209  0.8941
   43CHL1  H19B 3150   0.319   3.538   7.092 -0.5631 -0.8223 -0.4803
   43CHL1  H19C 3151   0.324   3.562   7.273 -1.5583 -1.4857  2.4710
   43CHL1    C1 3152   0.016   3.547   7.120 -0.0793  0.0244  0.4629
   43CHL1   H1A 3153   0.008   3.444   7.160  0.3613 -0.4965 -0.7477
   43CHL1   H1B 3154  -0.074   3.609   7.141  1.3447  2.7427 -0.8414
   43CHL1    C2 3155   0.018   3.539   6.964  0.0936 -0.2481 -0.0928
   43CHL1   H2A 3156  -0.074   3.495   6.920  0.2068 -0.1651 -0.4118
   43CHL1   H2B 3157   0.101   3.478   6.922 -0.7925 -0.6206 -1.3807
   43CHL1   C20 3158   0.152   3.627   7.903 -0.1704 -0.3834 -0.4254
   43CHL1   H20 3159   0.261   3.609   7.915 -0.2260 -0.0807  0.6717
   43CHL1   C21 3160   0.086   3.488   7.890 -0.9341 -0.2387  0.0047
   43CHL1  H21A 3161  -0.011   3.477   7.839 -2.2441 -1.4762  2.5583
   43CHL1  H21B 3162   0.085   3.436   7.989 -1.1359 -1.3127 -0.5486
   43CHL1  H21C 3163   0.149   3.419   7.830 -2.6674 -1.0037 -0.9967
   43CHL1   C22 3164   0.101   3.705   8.030 -0.3040  0.6001  0.8248
   43CHL1  H22A 3165   0.141   3.809   8.030 -0.3184  0.6131 -0.1101
   43CHL1  H22B 3166  -0.009   3.713   8.022 -0.3070 -0.1821 -0.0545
   43CHL1   C23 3167   0.139   3.647   8.162 -0.4525  0.4405  0.3500
   43CHL1  H23A 3168   0.095   3.548   8.186 -2.1818  0.6712 -1.5566
   43CHL1  H23B 3169   0.248   3.625   8.165 -0.0378  2.0658  4.5547
   43CHL1   C24 3170   0.109   3.729   8.294 -1.0018  0.5556 -0.2625
   43CHL1  H24A 3171   0.005   3.729   8.333 -0.2267 -1.2456  2.0342
   43CHL1  H24B 3172   0.160   3.680   8.381 -1.5187  2.2921  1.0677
   43CHL1   C25 3173   0.161   3.877   8.288 -1.0294  0.2007 -0.5176
   43CHL1   H25 3174   0.105   3.921   8.203 -1.3631  0.4751 -0.1585
   43CHL1   C26 3175   0.124   3.955   8.412 -0.2219  0.0810 -0.6543
   43CHL1  H26A 3176   0.184   4.049   8.402  1.6002 -0.8408  0.9573
   43CHL1  H26B 3177   0.018   3.982   8.432  0.1105 -0.2570  1.8188
   43CHL1  H26C 3178   0.161   3.905   8.504 -1.5756  0.0931 -0.0837
   43CHL1   C27 3179   0.318   3.890   8.265  0.1250  0.0906 -0.4362
   43CHL1  H27A 3180   0.368   3.856   8.358  1.3377 -0.9433 -1.4186
   43CHL1  H27B 3181   0.354   3.843   8.171 -0.1462  1.5159 -1.2812
   43CHL1  H27C 3182   0.346   3.997   8.262 -2.4297  0.9528  2.1254
   44CHL1    C3 3183   0.190   2.436   6.658  0.2549  0.3321  0.0488
   44CHL1    H3 3184   0.188   2.325   6.663  0.1105  0.2808 -1.0296
   44CHL1    O3 3185   0.225   2.473   6.525 -0.1785 -0.5202 -0.8701
   44CHL1   H3' 3186   0.223   2.569   6.532 -0.8646 -0.6438  1.6542
   44CHL1    C4 3187   0.056   2.503   6.700 -0.1588  0.1856 -0.1750
   44CHL1   H4A 3188   0.066   2.610   6.672  0.6075 -0.3817 -2.2182
   44CHL1   H4B 3189  -0.020   2.456   6.633 -2.4677  1.2741  1.5342
   44CHL1    C5 3190   0.027   2.481   6.844  0.2609 -0.3577  0.2732
   44CHL1    C6 3191  -0.097   2.432   6.876 -0.7418 -0.1962 -0.5881
   44CHL1    H6 3192  -0.168   2.409   6.795  1.1424 -1.3133 -2.0238
   44CHL1    C7 3193  -0.140   2.412   7.023 -0.6614 -0.0753  0.0680
   44CHL1   H7A 3194  -0.247   2.433   7.044 -0.4189  0.8264  0.4823
   44CHL1   H7B 3195  -0.122   2.311   7.064 -1.9481  0.4924  2.2055
   44CHL1    C8 3196  -0.049   2.497   7.121 -0.2247  0.2600  0.2439
   44CHL1    H8 3197  -0.087   2.601   7.110  0.8161  0.5296 -1.0604
   44CHL1   C14 3198  -0.062   2.460   7.259 -0.3196 -0.4591  0.7147
   44CHL1   H14 3199  -0.016   2.359   7.268 -0.1753 -0.4298  0.3386
   44CHL1   C15 3200  -0.209   2.443   7.310  0.6715 -0.3253 -0.1579
   44CHL1  H15A 3201  -0.269   2.527   7.269  0.7953 -0.7730 -1.2830
   44CHL1  H15B 3202  -0.247   2.344   7.277 -0.4773  0.2357 -0.5768
   44CHL1   C16 3203  -0.202   2.442   7.461 -0.9454 -0.2513  0.1546
   44CHL1  H16A 3204  -0.278   2.503   7.514 -1.9629 -2.6052  1.5968
   44CHL1  H16B 3205  -0.231   2.344   7.506 -0.2439 -0.3389  0.4310
   44CHL1   C17 3206  -0.048   2.475   7.490  1.2027 -0.3488 -0.0958
   44CHL1   H17 3207   0.001   2.376   7.499 -0.3343 -1.0238  1.5147
   44CHL1   C13 3208   0.013   2.538   7.364 -0.3733  0.3349 -0.1984
   44CHL1   C18 3209  -0.030   2.693   7.352  0.4873 -0.0419 -0.1903
   44CHL1  H18A 3210   0.010   2.742   7.260  2.4713 -1.8192 -0.3547
   44CHL1  H18B 3211  -0.141   2.689   7.342  0.4519  1.4305 -0.6174
   44CHL1  H18C 3212   0.009   2.744   7.442 -0.2737  0.4792 -0.1504
   44CHL1   C12 3213   0.166   2.505   7.348  0.4198 -0.1134  0.2412
   44CHL1  H12A 3214   0.241   2.555   7.413  1.8466 -1.5870 -0.1994
   44CHL1  H12B 3215   0.182   2.395   7.350  0.9329 -0.0823 -1.0608
   44CHL1   C11 3216   0.200   2.539   7.199  1.1092  0.1750 -0.6550
   44CHL1  H11A 3217   0.211   2.647   7.180  0.9147  0.4532  0.7223
   44CHL1  H11B 3218   0.295   2.484   7.182  1.3337  0.0312  0.9064
   44CHL1    C9 3219   0.099   2.484   7.086  0.9957 -0.1716  0.0047
   44CHL1    H9 3220   0.119   2.375   7.093 -1.7007 -0.7485 -0.3121
   44CHL1   C10 3221   0.132   2.522   6.937 -0.6766  0.1923 -0.0501
   44CHL1   C19 3222   0.153   2.672   6.930 -0.0333 -0.1939 -0.4049
   44CHL1  H19A 3223   0.064   2.724   6.972 -1.2240 -1.2385 -1.5364
   44CHL1  H19B 3224   0.246   2.696   6.986 -1.6143  0.8548  1.9467
   44CHL1  H19C 3225   0.164   2.708   6.825  2.2559 -1.7818 -0.7704
   44CHL1    C1 3226   0.279   2.461   6.891 -0.5585 -0.0177  0.2092
   44CHL1   H1A 3227   0.360   2.490   6.961 -1.4082  1.5226  0.5985
   44CHL1   H1B 3228   0.260   2.352   6.889  1.1113 -0.3164 -0.8872
   44CHL1    C2 3229   0.307   2.490   6.743  0.4774  0.2402  0.7666
   44CHL1   H2A 3230   0.399   2.452   6.695 -0.1081 -0.7672  0.4146
   44CHL1   H2B 3231   0.321   2.600   6.728  0.4797  0.1198 -0.1747
   44CHL1   C20 3232  -0.037   2.546   7.625 -0.6645  0.2885 -0.1456
   44CHL1   H20 3233  -0.095   2.641   7.626  2.8026  2.5872  0.2585
   44CHL1   C21 3234   0.106   2.588   7.658 -0.3948 -0.0705 -0.1815
   44CHL1  H21A 3235   0.146   2.668   7.592  0.1657  2.2042  2.7057
   44CHL1  H21B 3236   0.188   2.516   7.640  0.8902  1.4002 -0.4152
   44CHL1  H21C 3237   0.104   2.633   7.759  0.8132 -0.6486  0.1225
   44CHL1   C22 3238  -0.087   2.453   7.739 -0.1238 -0.8280 -0.5319
   44CHL1  H22A 3239  -0.093   2.507   7.836  1.5701 -1.8639  0.1903
   44CHL1  H22B 3240  -0.187   2.418   7.705 -1.1456  0.7336  0.7266
   44CHL1   C23 3241  -0.016   2.317   7.762  0.7893 -0.1415 -0.7298
   44CHL1  H23A 3242  -0.034   2.256   7.670  1.6437  0.5708 -1.3850
   44CHL1  H23B 3243   0.093   2.334   7.770  0.7957  0.7561 -2.3475
   44CHL1   C24 3244  -0.084   2.246   7.878 -0.7015  0.0337  0.6939
   44CHL1  H24A 3245  -0.192   2.236   7.851 -0.6989  1.8413 -0.0933
   44CHL1  H24B 3246  -0.034   2.147   7.883 -1.2769 -0.3158 -0.1552
   44CHL1   C25 3247  -0.069   2.312   8.019  0.0759 -0.3210 -0.2994
   44CHL1   H25 3248  -0.111   2.414   8.009  0.8877  0.1747  1.1166
   44CHL1   C26 3249  -0.139   2.245   8.134  0.0667  0.4822 -0.6795
   44CHL1  H26A 3250  -0.097   2.144   8.155  4.8088  2.3633  0.1743
   44CHL1  H26B 3251  -0.113   2.298   8.228 -1.9251 -1.0788  0.8366
   44CHL1  H26C 3252  -0.249   2.241   8.119  0.1580 -0.6278 -1.2209
   44CHL1   C27 3253   0.076   2.333   8.063  0.7269  0.4249  0.3260
   44CHL1  H27A 3254   0.080   2.354   8.172  0.8464 -1.1036  0.6386
   44CHL1  H27B 3255   0.137   2.240   8.057  1.9486  1.1792  0.7528
   44CHL1  H27C 3256   0.129   2.401   7.993 -1.6568  1.0612 -0.9681
   45CHL1    C3 3257   0.199   0.422   6.719 -0.5085 -0.0430  0.6217
   45CHL1    H3 3258   0.101   0.475   6.720  0.4823  1.8890  0.7619
   45CHL1    O3 3259   0.239   0.420   6.584  0.6680 -0.6115 -0.0983
   45CHL1   H3' 3260   0.302   0.348   6.576  0.5100 -0.5554 -2.4080
   45CHL1    C4 3261   0.293   0.497   6.818 -0.1090  0.1769  0.3700
   45CHL1   H4A 3262   0.392   0.449   6.799  0.1087  0.2707  1.2216
   45CHL1   H4B 3263   0.303   0.600   6.777  1.3402 -0.6906 -1.5981
   45CHL1    C5 3264   0.242   0.495   6.960  0.0303  0.5163  0.4785
   45CHL1    C6 3265   0.205   0.601   7.027  0.6152 -0.1937  0.0550
   45CHL1    H6 3266   0.213   0.703   6.985 -1.4594 -0.2281 -0.5272
   45CHL1    C7 3267   0.161   0.607   7.170 -0.3149 -0.1443 -0.2806
   45CHL1   H7A 3268   0.225   0.675   7.230  0.9446 -0.6547 -1.0132
   45CHL1   H7B 3269   0.058   0.646   7.181 -0.2318 -0.1529  0.6194
   45CHL1    C8 3270   0.192   0.476   7.248  0.2918 -0.1454 -0.1264
   45CHL1    H8 3271   0.302   0.478   7.261  0.2303 -0.2216  0.4362
   45CHL1   C14 3272   0.114   0.470   7.380  0.0567  0.5573 -0.3974
   45CHL1   H14 3273   0.005   0.463   7.358 -0.4240  2.2324  1.1766
   45CHL1   C15 3274   0.118   0.590   7.478  0.4298  0.0845  0.0845
   45CHL1  H15A 3275   0.219   0.635   7.483 -0.1482  1.6895 -1.4905
   45CHL1  H15B 3276   0.060   0.681   7.452 -0.0280  0.3274  1.7948
   45CHL1   C16 3277   0.080   0.536   7.615  0.2391 -0.1082 -0.0120
   45CHL1  H16A 3278   0.151   0.576   7.689 -0.8861  0.0017  1.0386
   45CHL1  H16B 3279  -0.016   0.587   7.638  1.2994  2.2052 -0.4356
   45CHL1   C17 3280   0.073   0.381   7.596  0.3155 -0.6419 -0.7117
   45CHL1   H17 3281  -0.033   0.356   7.574  0.2032  0.0371 -0.9603
   45CHL1   C13 3282   0.142   0.345   7.462  0.0224  0.1619  0.2108
   45CHL1   C18 3283   0.296   0.335   7.494  0.1470  0.4961  0.6411
   45CHL1  H18A 3284   0.356   0.304   7.406 -2.6639 -4.8029  0.2328
   45CHL1  H18B 3285   0.338   0.424   7.546  5.0171 -1.8414  1.2173
   45CHL1  H18C 3286   0.309   0.237   7.545 -0.3787  0.3502  0.5021
   45CHL1   C12 3287   0.098   0.220   7.378 -0.4355  0.2632 -0.1803
   45CHL1  H12A 3288   0.109   0.131   7.442  1.7402  0.0383 -0.8067
   45CHL1  H12B 3289  -0.011   0.242   7.372 -0.2490  1.6979  0.9833
   45CHL1   C11 3290   0.171   0.214   7.244  1.0399  0.4116  0.6534
   45CHL1  H11A 3291   0.279   0.191   7.259  1.0223 -0.2334 -0.1359
   45CHL1  H11B 3292   0.136   0.123   7.191 -1.1691  0.7765  1.3804
   45CHL1    C9 3293   0.158   0.351   7.162  0.5677  0.8827  0.4427
   45CHL1    H9 3294   0.051   0.366   7.135  1.2969  1.0206 -2.8255
   45CHL1   C10 3295   0.228   0.358   7.026  0.0600  0.0378  0.5415
   45CHL1   C19 3296   0.366   0.301   7.045 -0.5000 -0.5339 -0.4096
   45CHL1  H19A 3297   0.431   0.345   7.123  1.2348 -1.3747 -1.3195
   45CHL1  H19B 3298   0.370   0.191   7.060  0.7664 -0.7211 -1.8482
   45CHL1  H19C 3299   0.431   0.321   6.957 -0.8663 -1.4912 -0.9167
   45CHL1    C1 3300   0.149   0.265   6.923 -0.2853  0.0273  0.0629
   45CHL1   H1A 3301   0.155   0.158   6.952 -0.3384  0.5087  1.9975
   45CHL1   H1B 3302   0.041   0.290   6.929 -0.5780 -1.3753  1.0181
   45CHL1    C2 3303   0.192   0.269   6.766  0.5096 -0.6118  0.0426
   45CHL1   H2A 3304   0.115   0.215   6.707 -0.3090  1.1469 -0.5589
   45CHL1   H2B 3305   0.298   0.234   6.761  0.2420 -1.3978 -0.3115
   45CHL1   C20 3306   0.113   0.314   7.731 -0.7254 -0.2267 -0.5205
   45CHL1   H20 3307   0.222   0.332   7.745 -0.7515 -1.6744  2.1421
   45CHL1   C21 3308   0.086   0.162   7.728 -0.7724  0.0952 -0.4750
   45CHL1  H21A 3309  -0.023   0.144   7.714 -0.7960 -0.2106  0.1051
   45CHL1  H21B 3310   0.121   0.119   7.824  2.9034  1.9689 -0.8023
   45CHL1  H21C 3311   0.143   0.110   7.648  0.1803 -0.5208  0.5813
   45CHL1   C22 3312   0.045   0.378   7.855 -1.1716  0.3803  0.4312
   45CHL1  H22A 3313   0.082   0.480   7.880 -1.4170  0.7932 -0.7859
   45CHL1  H22B 3314  -0.064   0.381   7.833 -1.0116 -1.8533 -0.9720
   45CHL1   C23 3315   0.058   0.305   7.992  0.2903 -0.6161  0.5129
   45CHL1  H23A 3316   0.012   0.204   7.995 -1.8158  0.1637 -2.0493
   45CHL1  H23B 3317   0.168   0.299   8.010  0.1103 -1.8825  1.3387
   45CHL1   C24 3318  -0.005   0.391   8.104 -0.1455 -0.1731  0.5171
   45CHL1  H24A 3319   0.038   0.493   8.096 -0.1461 -0.0243  2.0148
   45CHL1  H24B 3320  -0.111   0.408   8.077 -0.4724 -3.5837 -0.8217
   45CHL1   C25 3321   0.021   0.348   8.246  0.9440  0.5084  0.3881
   45CHL1   H25 3322   0.129   0.329   8.262  0.9020  0.5268  0.7115
   45CHL1   C26 3323  -0.010   0.462   8.345 -0.1256 -0.0772  0.8359
   45CHL1  H26A 3324  -0.116   0.475   8.312  1.4242  2.8306 -3.9956
   45CHL1  H26B 3325   0.006   0.431   8.451  0.1005 -0.5548  0.6638
   45CHL1  H26C 3326   0.046   0.552   8.312  0.7454 -0.8910  0.0813
   45CHL1   C27 3327  -0.060   0.222   8.267  0.1173  0.0057  0.1125
   45CHL1  H27A 3328  -0.168   0.241   8.278  0.4665  1.3549  1.6466
   45CHL1  H27B 3329  -0.049   0.149   8.183 -3.5870 -2.1620  1.3082
   45CHL1  H27C 3330  -0.020   0.179   8.361  1.8038  1.8400  0.3113
   46CHL1    C3 3331   1.726   1.420   6.976  0.1780  0.1254  0.8386
   46CHL1    H3 3332   1.620   1.391   6.991  0.2756  0.8516  3.5645
   46CHL1    O3 3333   1.783   1.381   6.852 -0.1972 -0.2432 -0.4127
   46CHL1   H3' 3334   1.871   1.413   6.872  0.2359 -1.2265 -0.6501
   46CHL1    C4 3335   1.743   1.574   6.985 -0.0426  0.3026 -0.7081
   46CHL1   H4A 3336   1.851   1.599   6.982  0.3658 -1.0846  0.7441
   46CHL1   H4B 3337   1.689   1.610   6.895 -3.7511 -0.5777  0.9899
   46CHL1    C5 3338   1.679   1.636   7.110 -0.0227 -0.1096  0.3578
   46CHL1    C6 3339   1.572   1.729   7.101 -0.9738  0.0467 -0.1020
   46CHL1    H6 3340   1.523   1.746   7.003  0.2608 -2.3683 -1.2233
   46CHL1    C7 3341   1.523   1.791   7.224 -0.2406  0.2416  0.3539
   46CHL1   H7A 3342   1.524   1.898   7.193  1.0637  0.4370  0.9959
   46CHL1   H7B 3343   1.418   1.758   7.234 -0.2892 -0.4093 -1.8438
   46CHL1    C8 3344   1.612   1.776   7.339  0.1624 -1.3332 -1.1262
   46CHL1    H8 3345   1.697   1.846   7.324 -0.2702 -0.5588 -0.0866
   46CHL1   C14 3346   1.537   1.812   7.469 -0.0288  0.3396 -0.3374
   46CHL1   H14 3347   1.448   1.746   7.467  0.6724 -0.6318 -0.7131
   46CHL1   C15 3348   1.484   1.955   7.474 -0.0702  0.1887 -0.1162
   46CHL1  H15A 3349   1.563   2.027   7.447  0.9337  0.1283  2.4415
   46CHL1  H15B 3350   1.391   1.961   7.412 -0.6178 -1.2615  0.5099
   46CHL1   C16 3351   1.455   1.972   7.629  0.0218  0.4086 -0.0689
   46CHL1  H16A 3352   1.503   2.064   7.670  0.5834  0.2842 -0.4377
   46CHL1  H16B 3353   1.346   1.986   7.649  0.0884 -0.7934  1.2493
   46CHL1   C17 3354   1.490   1.836   7.698  0.4294  0.4536 -0.5987
   46CHL1   H17 3355   1.404   1.771   7.672 -1.0855  1.7405  0.9711
   46CHL1   C13 3356   1.601   1.780   7.605  0.6164 -0.2131 -0.4654
   46CHL1   C18 3357   1.728   1.863   7.626 -0.7891 -0.0589 -0.1523
   46CHL1  H18A 3358   1.801   1.844   7.545  1.1656  2.5576  0.8779
   46CHL1  H18B 3359   1.710   1.973   7.626 -2.1313 -0.0888 -4.2427
   46CHL1  H18C 3360   1.777   1.812   7.712  1.1927  0.3270 -1.0172
   46CHL1   C12 3361   1.629   1.628   7.610  0.0859 -0.2582  0.1755
   46CHL1  H12A 3362   1.668   1.602   7.711 -1.9400  1.1544  1.4078
   46CHL1  H12B 3363   1.526   1.596   7.586 -0.7730  2.4229 -0.1197
   46CHL1   C11 3364   1.724   1.600   7.495 -0.3823 -0.7742 -0.0694
   46CHL1  H11A 3365   1.824   1.647   7.505 -1.3989  1.7354 -0.9713
   46CHL1  H11B 3366   1.745   1.492   7.483  1.7870 -0.1693 -3.0337
   46CHL1    C9 3367   1.662   1.635   7.356  0.4944 -0.3706  1.3192
   46CHL1    H9 3368   1.571   1.571   7.358  0.4539 -0.3724  0.2498
   46CHL1   C10 3369   1.746   1.587   7.236  0.2284 -0.0712 -0.1579
   46CHL1   C19 3370   1.887   1.646   7.248 -0.1475  0.0512 -0.5695
   46CHL1  H19A 3371   1.895   1.755   7.269  3.4202 -0.4324  1.3149
   46CHL1  H19B 3372   1.944   1.588   7.324  2.1212  0.4866 -1.8632
   46CHL1  H19C 3373   1.941   1.631   7.152 -1.4317 -1.4330 -1.0984
   46CHL1    C1 3374   1.750   1.425   7.230  0.2725 -0.0622  0.0097
   46CHL1   H1A 3375   1.807   1.378   7.312  0.8357 -0.7607 -0.7619
   46CHL1   H1B 3376   1.644   1.394   7.247 -1.0635  2.4999 -2.6834
   46CHL1    C2 3377   1.799   1.362   7.097 -0.5289 -0.6522  0.0846
   46CHL1   H2A 3378   1.788   1.252   7.092 -0.0875 -0.6328 -1.8022
   46CHL1   H2B 3379   1.906   1.393   7.094 -0.7252 -0.0499 -1.3742
   46CHL1   C20 3380   1.499   1.828   7.850  0.3785 -0.4784 -0.7787
   46CHL1   H20 3381   1.605   1.826   7.884  0.2837 -0.9829 -0.5021
   46CHL1   C21 3382   1.440   1.689   7.890  1.0389 -0.2938  0.5561
   46CHL1  H21A 3383   1.460   1.673   7.998  2.3301 -0.9049  0.2403
   46CHL1  H21B 3384   1.503   1.620   7.831 -0.8986  0.3569 -2.5060
   46CHL1  H21C 3385   1.334   1.678   7.858  1.5674 -0.6594 -1.1826
   46CHL1   C22 3386   1.428   1.946   7.924  0.2148  0.1175  0.5308
   46CHL1  H22A 3387   1.456   2.043   7.877  1.2582  0.0602  1.0105
   46CHL1  H22B 3388   1.319   1.929   7.907  0.2173  0.4840  0.1352
   46CHL1   C23 3389   1.446   1.959   8.078  0.1840 -0.0489  0.4774
   46CHL1  H23A 3390   1.381   1.892   8.138  1.3549 -0.1071  1.7481
   46CHL1  H23B 3391   1.554   1.952   8.107 -0.0199 -0.5574  1.1515
   46CHL1   C24 3392   1.393   2.097   8.130 -0.5276 -0.2725  0.4876
   46CHL1  H24A 3393   1.448   2.174   8.073  1.5012 -2.3608 -0.5423
   46CHL1  H24B 3394   1.287   2.116   8.104 -0.3110  1.5913  0.8137
   46CHL1   C25 3395   1.416   2.112   8.278 -0.5126  0.2230  0.3296
   46CHL1   H25 3396   1.417   2.010   8.322  0.5260  1.0175  2.2539
   46CHL1   C26 3397   1.550   2.192   8.314 -0.0504  0.6444  0.7616
   46CHL1  H26A 3398   1.630   2.135   8.262 -1.2029 -0.1018 -0.2599
   46CHL1  H26B 3399   1.538   2.297   8.280  1.0497  0.5007 -0.1144
   46CHL1  H26C 3400   1.568   2.185   8.423 -3.8528 -0.4384  1.4437
   46CHL1   C27 3401   1.296   2.184   8.339 -0.0421  0.3244 -0.2632
   46CHL1  H27A 3402   1.298   2.291   8.311 -0.8599  0.9153  1.7574
   46CHL1  H27B 3403   1.195   2.148   8.310  0.6080 -1.6634 -0.2705
   46CHL1  H27C 3404   1.300   2.175   8.450  2.0923 -2.4395 -0.4485
   47CHL1    C3 3405   0.771   2.248   6.628  0.4336  0.4114  0.1366
   47CHL1    H3 3406   0.853   2.173   6.636 -0.7663 -1.3243 -2.4862
   47CHL1    O3 3407   0.739   2.248   6.485  0.1506 -0.2339  0.7609
   47CHL1   H3' 3408   0.813   2.299   6.450 -0.3238 -1.0473 -1.5455
   47CHL1    C4 3409   0.647   2.215   6.709  0.2641 -0.0784  0.1171
   47CHL1   H4A 3410   0.580   2.299   6.679  0.1549  0.9421  2.8950
   47CHL1   H4B 3411   0.596   2.120   6.680 -1.7370  1.4035 -1.5253
   47CHL1    C5 3412   0.665   2.223   6.858 -0.4189 -0.6477  0.6626
   47CHL1    C6 3413   0.645   2.126   6.951 -0.3817 -0.3547 -0.0968
   47CHL1    H6 3414   0.587   2.035   6.929 -2.2094  0.0756  2.4820
   47CHL1    C7 3415   0.668   2.134   7.101  0.6248  0.5541 -0.1407
   47CHL1   H7A 3416   0.580   2.096   7.157 -0.0038 -1.1330 -2.1187
   47CHL1   H7B 3417   0.748   2.062   7.129 -0.0727 -0.3704 -0.4733
   47CHL1    C8 3418   0.699   2.282   7.147 -0.5830  0.5215 -0.0549
   47CHL1    H8 3419   0.601   2.334   7.133 -0.5113  0.7409  0.2491
   47CHL1   C14 3420   0.735   2.283   7.296 -0.4169 -0.1542 -0.4302
   47CHL1   H14 3421   0.828   2.222   7.301 -0.1077  0.2974 -0.6090
   47CHL1   C15 3422   0.637   2.233   7.398  0.0018  0.1298 -0.8744
   47CHL1  H15A 3423   0.538   2.276   7.374 -0.9364 -1.7105 -0.5154
   47CHL1  H15B 3424   0.625   2.123   7.412 -0.2942  0.3515  0.9535
   47CHL1   C16 3425   0.691   2.297   7.535  0.1534  1.0085  0.0874
   47CHL1  H16A 3426   0.614   2.360   7.585  2.9300  2.4718  2.8822
   47CHL1  H16B 3427   0.720   2.223   7.613  0.8310  0.5762 -0.5624
   47CHL1   C17 3428   0.808   2.393   7.501 -0.5408 -0.3086 -0.5562
   47CHL1   H17 3429   0.907   2.343   7.496  1.1248  2.6492  0.4951
   47CHL1   C13 3430   0.781   2.422   7.347 -0.4891  0.0466 -1.2660
   47CHL1   C18 3431   0.669   2.523   7.335 -0.4514 -0.3585 -0.0844
   47CHL1  H18A 3432   0.606   2.511   7.244  1.8608 -2.5834 -1.5354
   47CHL1  H18B 3433   0.589   2.507   7.409 -0.6677  1.7351  0.1924
   47CHL1  H18C 3434   0.697   2.630   7.343 -0.6953 -0.4421  2.4791
   47CHL1   C12 3435   0.898   2.475   7.261 -0.4740 -0.3658 -0.2934
   47CHL1  H12A 3436   0.919   2.582   7.284 -1.4810 -0.2900  0.3371
   47CHL1  H12B 3437   0.987   2.409   7.267 -0.4096 -0.2278  0.3382
   47CHL1   C11 3438   0.852   2.482   7.115 -0.2303 -0.4171 -0.0087
   47CHL1  H11A 3439   0.769   2.555   7.113 -1.4616 -1.6612  2.1055
   47CHL1  H11B 3440   0.929   2.522   7.046 -1.2554 -2.2248 -2.3566
   47CHL1    C9 3441   0.800   2.345   7.054 -0.4188  0.4563  0.0589
   47CHL1    H9 3442   0.894   2.287   7.050 -0.2460  0.7097  0.4304
   47CHL1   C10 3443   0.746   2.350   6.907  0.7841 -0.3956 -0.0768
   47CHL1   C19 3444   0.642   2.464   6.904 -0.7125  0.2487  0.6787
   47CHL1  H19A 3445   0.690   2.562   6.923  0.1437  0.1336 -0.7114
   47CHL1  H19B 3446   0.616   2.475   6.796  1.2468 -0.3443  0.0867
   47CHL1  H19C 3447   0.556   2.434   6.967  0.5329 -2.0739  1.4026
   47CHL1    C1 3448   0.867   2.375   6.816  0.0175  0.1147  0.3562
   47CHL1   H1A 3449   0.908   2.477   6.834 -2.5869  1.7132 -1.9907
   47CHL1   H1B 3450   0.949   2.301   6.829  2.9596  3.1379  0.4023
   47CHL1    C2 3451   0.833   2.386   6.667  0.4055  1.0616 -0.3940
   47CHL1   H2A 3452   0.929   2.396   6.612  0.9007 -1.3361 -0.0592
   47CHL1   H2B 3453   0.766   2.471   6.641  1.5717  1.5765 -1.9041
   47CHL1   C20 3454   0.839   2.516   7.598  0.1707  0.2384  0.1590
   47CHL1   H20 3455   0.757   2.591   7.596 -1.3445 -1.2547  2.2456
   47CHL1   C21 3456   0.969   2.589   7.563 -0.4717  0.0481 -0.4901
   47CHL1  H21A 3457   1.041   2.505   7.550 -1.4219 -0.5365 -2.2086
   47CHL1  H21B 3458   1.004   2.655   7.646  3.6920 -0.0970 -1.8846
   47CHL1  H21C 3459   0.979   2.643   7.467  0.1917  0.6412 -0.1043
   47CHL1   C22 3460   0.847   2.486   7.746  0.2986 -0.2441  0.0509
   47CHL1  H22A 3461   0.839   2.580   7.804  1.4024 -0.5969  0.7866
   47CHL1  H22B 3462   0.751   2.435   7.771 -1.0215  1.7963 -0.5521
   47CHL1   C23 3463   0.971   2.397   7.785  0.7640 -0.5428 -0.2855
   47CHL1  H23A 3464   0.952   2.303   7.727 -0.6555 -0.9451  0.7653
   47CHL1  H23B 3465   1.074   2.435   7.770  0.9403 -0.5179  0.8912
   47CHL1   C24 3466   0.970   2.368   7.936  0.6458 -0.0076  0.4069
   47CHL1  H24A 3467   0.866   2.370   7.977  1.1103 -0.7161  1.6660
   47CHL1  H24B 3468   0.991   2.261   7.955  0.5165  0.1586  1.6019
   47CHL1   C25 3469   1.048   2.459   8.022 -0.7307  0.5398 -0.5897
   47CHL1   H25 3470   1.152   2.439   7.989  0.2673  2.0043  1.4162
   47CHL1   C26 3471   1.034   2.612   8.005  0.0161  0.6920  0.5393
   47CHL1  H26A 3472   0.928   2.643   8.013 -0.7119 -1.5432  0.4284
   47CHL1  H26B 3473   1.091   2.652   8.091  0.3019  1.0327  0.1929
   47CHL1  H26C 3474   1.077   2.646   7.908 -1.4124 -0.0918 -0.4142
   47CHL1   C27 3475   1.027   2.426   8.171 -0.2336 -0.0704 -0.0842
   47CHL1  H27A 3476   1.067   2.326   8.198 -0.3900 -0.4180 -1.1140
   47CHL1  H27B 3477   1.068   2.510   8.231 -3.5331  2.6557 -1.3461
   47CHL1  H27C 3478   0.918   2.430   8.193 -0.0726 -0.0435  0.7539
   48CHL1    C3 3479   4.045   4.739   6.452  0.2264  0.0003  0.1060
   48CHL1    H3 3480   4.115   4.819   6.486  0.3290 -0.2400  0.4607
   48CHL1    O3 3481   4.041   4.745   6.308 -0.7875  0.2526 -0.6723
   48CHL1   H3' 3482   3.975   4.681   6.282 -0.8278  0.9348 -2.3747
   48CHL1    C4 3483   4.094   4.605   6.503 -0.2960  0.2948  0.9867
   48CHL1   H4A 3484   4.029   4.527   6.458 -0.4047  0.1985  1.3096
   48CHL1   H4B 3485   4.196   4.589   6.463  0.2854  1.9122  1.7424
   48CHL1    C5 3486   4.088   4.599   6.652  0.0149 -0.5892  0.2920
   48CHL1    C6 3487   4.203   4.574   6.721 -0.8188  0.2751 -0.5517
   48CHL1    H6 3488   4.299   4.555   6.672  0.4517 -1.8308  2.4159
   48CHL1    C7 3489   4.211   4.573   6.875 -0.2630 -0.0499 -0.4498
   48CHL1   H7A 3490   4.284   4.503   6.920 -1.0517 -0.2423  0.5721
   48CHL1   H7B 3491   4.249   4.673   6.901 -3.4380  1.4631 -1.0878
   48CHL1    C8 3492   4.071   4.553   6.941 -0.5476  0.5736  0.6857
   48CHL1    H8 3493   4.036   4.447   6.941  0.6616  0.1570  1.4562
   48CHL1   C14 3494   4.078   4.585   7.092  0.1624 -0.1073 -1.3007
   48CHL1   H14 3495   4.099   4.694   7.087 -3.0226  0.7526  1.0045
   48CHL1   C15 3496   4.190   4.516   7.167  0.5376 -0.4610  0.1694
   48CHL1  H15A 3497   4.192   4.408   7.144  0.3883  0.0877 -2.7525
   48CHL1  H15B 3498   4.289   4.559   7.139 -0.1539  2.0857  1.3319
   48CHL1   C16 3499   4.157   4.543   7.318  0.2731  0.0105 -0.8991
   48CHL1  H16A 3500   4.163   4.450   7.378  1.0702  0.4351 -0.3082
   48CHL1  H16B 3501   4.241   4.610   7.344  0.4128 -0.2331 -0.7293
   48CHL1   C17 3502   4.013   4.617   7.314  0.4659 -0.1390  0.0151
   48CHL1   H17 3503   4.035   4.726   7.310 -1.4714  0.6342  4.5988
   48CHL1   C13 3504   3.952   4.584   7.177  0.2653  0.4156  0.1227
   48CHL1   C18 3505   3.897   4.435   7.184  0.0864 -0.0180  0.1664
   48CHL1  H18A 3506   3.866   4.403   7.082 -0.8208  0.7700  0.1815
   48CHL1  H18B 3507   3.963   4.364   7.238 -0.8987 -2.3131 -1.5069
   48CHL1  H18C 3508   3.802   4.443   7.241 -0.6529  0.3550 -1.0894
   48CHL1   C12 3509   3.849   4.678   7.110  0.0393  0.3323 -0.0717
   48CHL1  H12A 3510   3.754   4.671   7.168 -1.5887  0.1645 -2.6039
   48CHL1  H12B 3511   3.885   4.783   7.118  0.4818  0.1698  0.1129
   48CHL1   C11 3512   3.826   4.640   6.958  0.3591  0.4499 -0.0876
   48CHL1  H11A 3513   3.774   4.542   6.945  1.5898 -0.3135  0.6097
   48CHL1  H11B 3514   3.769   4.714   6.898  3.2770  2.4044 -0.6182
   48CHL1    C9 3515   3.961   4.640   6.874 -0.4147  0.6176 -0.5598
   48CHL1    H9 3516   4.001   4.743   6.887  1.1742 -0.1773  1.5185
   48CHL1   C10 3517   3.949   4.617   6.721 -0.1218 -0.3818  0.0709
   48CHL1   C19 3518   3.854   4.492   6.687  0.0257 -1.3634  0.6607
   48CHL1  H19A 3519   3.888   4.400   6.738  0.0582 -2.0726 -0.6058
   48CHL1  H19B 3520   3.755   4.527   6.725 -1.2360 -2.7716 -1.1913
   48CHL1  H19C 3521   3.861   4.473   6.578  2.6745 -3.3683  1.1023
   48CHL1    C1 3522   3.888   4.748   6.654 -0.0623  0.5588 -0.3413
   48CHL1   H1A 3523   3.784   4.769   6.685 -0.7450 -1.3557 -1.1994
   48CHL1   H1B 3524   3.944   4.833   6.699  1.3011 -0.3488 -0.2528
   48CHL1    C2 3525   3.901   4.760   6.498 -0.1935 -0.5500  0.2134
   48CHL1   H2A 3526   3.865   4.859   6.463 -1.5504 -1.4284 -0.9594
   48CHL1   H2B 3527   3.844   4.682   6.443 -0.8159  1.0016 -1.4436
   48CHL1   C20 3528   3.928   4.600   7.438 -0.6304  0.7887 -0.3802
   48CHL1   H20 3529   3.844   4.528   7.421 -0.6779  0.9897 -1.0418
   48CHL1   C21 3530   3.869   4.735   7.466 -0.0869 -0.0989 -0.6878
   48CHL1  H21A 3531   3.944   4.814   7.485 -0.7873  0.6284 -0.9099
   48CHL1  H21B 3532   3.805   4.725   7.556  1.2529  0.9256  0.4165
   48CHL1  H21C 3533   3.799   4.766   7.386  0.1705 -0.6562 -1.1420
   48CHL1   C22 3534   4.013   4.546   7.555 -0.4268  0.1752 -0.6447
   48CHL1  H22A 3535   4.057   4.446   7.532  0.2694  0.5929 -1.1769
   48CHL1  H22B 3536   4.105   4.607   7.570 -0.9226  0.4768  1.3852
   48CHL1   C23 3537   3.942   4.525   7.690  0.6963  0.5169 -0.4539
   48CHL1  H23A 3538   4.010   4.533   7.777  0.2685  1.1419 -0.1700
   48CHL1  H23B 3539   3.869   4.608   7.705 -2.2138 -1.8245 -0.6603
   48CHL1   C24 3540   3.876   4.390   7.696 -0.1505 -0.2095 -0.3794
   48CHL1  H24A 3541   3.799   4.386   7.615  0.6015  0.6477 -1.1615
   48CHL1  H24B 3542   3.949   4.308   7.678  1.0210  0.6169  0.5661
   48CHL1   C25 3543   3.796   4.356   7.820 -0.0702  0.6721  0.1891
   48CHL1   H25 3544   3.736   4.448   7.836  1.5083  1.9085 -0.6389
   48CHL1   C26 3545   3.697   4.236   7.795 -0.6135  0.3476  0.7364
   48CHL1  H26A 3546   3.614   4.260   7.724 -1.8740 -1.8094  1.3686
   48CHL1  H26B 3547   3.747   4.144   7.756 -0.3794  0.1396  1.5217
   48CHL1  H26C 3548   3.649   4.211   7.892 -2.0646  1.8810  0.4634
   48CHL1   C27 3549   3.892   4.325   7.938  0.8060 -0.0733  0.1727
   48CHL1  H27A 3550   3.955   4.240   7.902  0.9653  0.2443 -0.3119
   48CHL1  H27B 3551   3.958   4.413   7.954  2.0001 -0.7851 -0.6660
   48CHL1  H27C 3552   3.831   4.284   8.021  1.2228 -1.2722 -0.0835
   49CHL1    C3 3553   3.372   5.607   6.888 -0.8085  0.6292 -0.5253
   49CHL1    H3 3554   3.363   5.497   6.896  0.5000  0.4545 -1.2194
   49CHL1    O3 3555   3.403   5.633   6.756 -0.4921  0.3467  0.2313
   49CHL1   H3' 3556   3.430   5.725   6.764  1.6786 -0.3636  1.8355
   49CHL1    C4 3557   3.240   5.674   6.920  0.0351  0.2159  0.7196
   49CHL1   H4A 3558   3.245   5.782   6.892 -0.6447  0.0974  0.1000
   49CHL1   H4B 3559   3.170   5.617   6.855  0.0009  1.7954 -0.6933
   49CHL1    C5 3560   3.204   5.652   7.064  0.8125  0.7761 -1.2362
   49CHL1    C6 3561   3.091   5.580   7.101  0.2086  0.8072 -0.5843
   49CHL1    H6 3562   3.025   5.543   7.021  0.8668 -0.1778 -0.6950
   49CHL1    C7 3563   3.053   5.569   7.243  0.5087  1.1369  0.0753
   49CHL1   H7A 3564   2.943   5.582   7.251  0.4016  0.0076  0.5739
   49CHL1   H7B 3565   3.072   5.463   7.271 -0.8815  0.7710 -0.2465
   49CHL1    C8 3566   3.126   5.664   7.332 -0.3789  0.3928 -0.3927
   49CHL1    H8 3567   3.091   5.768   7.318  0.1602  0.9664  2.0867
   49CHL1   C14 3568   3.093   5.641   7.477 -0.7819 -0.0553  0.2692
   49CHL1   H14 3569   3.108   5.533   7.502 -1.3562  0.2394  2.0567
   49CHL1   C15 3570   2.946   5.668   7.514 -0.0055 -0.5265 -0.1776
   49CHL1  H15A 3571   2.919   5.772   7.485 -0.2061 -0.2405  0.9769
   49CHL1  H15B 3572   2.878   5.592   7.472 -0.8236 -0.3434  0.7675
   49CHL1   C16 3573   2.951   5.679   7.664  0.1429 -0.4480 -0.0767
   49CHL1  H16A 3574   2.876   5.755   7.693 -1.8252 -2.2009 -0.3204
   49CHL1  H16B 3575   2.916   5.582   7.705  2.7896 -1.4528 -0.0232
   49CHL1   C17 3576   3.096   5.697   7.711 -0.0089 -0.1735 -0.4387
   49CHL1   H17 3577   3.132   5.594   7.731  5.3084  1.7529  1.6761
   49CHL1   C13 3578   3.171   5.731   7.579  0.1028  0.1610 -0.1518
   49CHL1   C18 3579   3.146   5.881   7.556  0.0260  0.4978  0.5032
   49CHL1  H18A 3580   3.050   5.906   7.606  0.8153 -1.1957  3.0361
   49CHL1  H18B 3581   3.222   5.946   7.604 -0.1533  0.6483  0.5856
   49CHL1  H18C 3582   3.147   5.909   7.448 -2.7367  1.1158  0.5521
   49CHL1   C12 3583   3.319   5.692   7.568  0.0630 -0.0103 -0.0500
   49CHL1  H12A 3584   3.382   5.745   7.643 -1.1841 -0.1801  1.1504
   49CHL1  H12B 3585   3.328   5.583   7.585 -2.9638 -0.3289  0.0550
   49CHL1   C11 3586   3.373   5.719   7.421 -0.2131 -0.4692 -0.0668
   49CHL1  H11A 3587   3.364   5.828   7.400 -0.8053 -0.7653 -1.4896
   49CHL1  H11B 3588   3.481   5.698   7.407 -0.5308 -0.4127 -3.6413
   49CHL1    C9 3589   3.281   5.653   7.315 -0.1670  0.2305  0.5358
   49CHL1    H9 3590   3.303   5.545   7.310  0.2790  0.2975  0.9718
   49CHL1   C10 3591   3.310   5.693   7.168  0.4386  0.1768 -0.2550
   49CHL1   C19 3592   3.319   5.850   7.153  0.0235 -0.2274  0.2963
   49CHL1  H19A 3593   3.244   5.896   7.220  1.2643  0.2563  1.4043
   49CHL1  H19B 3594   3.416   5.882   7.198 -0.6915  3.5521 -0.5206
   49CHL1  H19C 3595   3.309   5.887   7.048 -1.2209 -3.6334 -0.9081
   49CHL1    C1 3596   3.445   5.626   7.123 -0.0580  0.1512 -0.6910
   49CHL1   H1A 3597   3.522   5.667   7.193  0.3680  0.6957 -1.4582
   49CHL1   H1B 3598   3.437   5.516   7.132 -0.7183  0.1316 -1.4150
   49CHL1    C2 3599   3.485   5.656   6.978 -0.0004  0.2414 -0.6144
   49CHL1   H2A 3600   3.577   5.601   6.947 -0.2854  0.2952 -1.5973
   49CHL1   H2B 3601   3.510   5.763   6.964  0.9876  0.0154 -0.6091
   49CHL1   C20 3602   3.111   5.790   7.836  0.7171  0.6946  0.0334
   49CHL1   H20 3603   3.085   5.893   7.802  0.1371  1.2812  2.0945
   49CHL1   C21 3604   3.253   5.786   7.896  0.3624  0.4384  0.1768
   49CHL1  H21A 3605   3.331   5.802   7.820 -0.2144 -0.7152 -0.6990
   49CHL1  H21B 3606   3.274   5.684   7.936  2.6684  0.6415 -0.4132
   49CHL1  H21C 3607   3.265   5.848   7.988 -2.4074 -2.2096  2.6048
   49CHL1   C22 3608   3.011   5.756   7.954 -0.2205 -1.2622  0.3857
   49CHL1  H22A 3609   2.913   5.778   7.907 -1.0149  1.7578  3.1012
   49CHL1  H22B 3610   3.017   5.647   7.972 -1.5634 -1.1410  1.7841
   49CHL1   C23 3611   3.017   5.840   8.080  0.2321 -0.8324  0.6324
   49CHL1  H23A 3612   3.112   5.824   8.135 -0.2171 -0.2700  1.6090
   49CHL1  H23B 3613   3.006   5.946   8.051 -0.7697 -0.9272  0.6183
   49CHL1   C24 3614   2.887   5.805   8.166 -0.6973 -0.4468  0.6594
   49CHL1  H24A 3615   2.853   5.885   8.236  0.2327 -0.8175  1.5678
   49CHL1  H24B 3616   2.808   5.787   8.090  2.0938 -1.1000 -2.2833
   49CHL1   C25 3617   2.908   5.675   8.250  0.8074  0.1603 -0.3977
   49CHL1   H25 3618   3.015   5.676   8.277  0.8288 -1.4625 -0.3081
   49CHL1   C26 3619   2.833   5.689   8.390 -0.2713  0.1453  0.1588
   49CHL1  H26A 3620   2.858   5.592   8.437  2.2782  0.5371 -0.2536
   49CHL1  H26B 3621   2.867   5.771   8.456  0.3959 -0.6743  0.8547
   49CHL1  H26C 3622   2.723   5.694   8.373 -0.3945 -1.2864  0.3779
   49CHL1   C27 3623   2.880   5.541   8.184 -0.2406 -0.2974  0.2168
   49CHL1  H27A 3624   2.784   5.545   8.128  1.3390  1.0229 -2.6594
   49CHL1  H27B 3625   2.961   5.516   8.112 -0.8778  3.2869 -1.9761
   49CHL1  H27C 3626   2.875   5.460   8.259 -2.4717 -0.4039  0.0178
   50CHL1    C3 3627   3.806   1.561   6.858 -0.2414  0.1336 -0.4983
   50CHL1    H3 3628   3.795   1.456   6.893  0.8554  0.2129  0.1311
   50CHL1    O3 3629   3.812   1.574   6.718  0.2119 -0.3646  0.6047
   50CHL1   H3' 3630   3.813   1.666   6.691  0.3300 -0.7079 -0.6692
   50CHL1    C4 3631   3.678   1.629   6.908 -0.1093 -1.0572  0.3432
   50CHL1   H4A 3632   3.672   1.734   6.874  3.2089 -1.0323 -0.5384
   50CHL1   H4B 3633   3.605   1.565   6.854 -1.8153  2.4228 -1.8221
   50CHL1    C5 3634   3.676   1.620   7.061  0.0714  0.1008 -0.5841
   50CHL1    C6 3635   3.571   1.570   7.127  0.0561  0.0194 -0.3185
   50CHL1    H6 3636   3.490   1.533   7.063  0.9836 -2.1076 -0.3481
   50CHL1    C7 3637   3.555   1.577   7.279  0.0146  0.5720 -0.5334
   50CHL1   H7A 3638   3.454   1.610   7.310  0.1036 -0.4522  0.9675
   50CHL1   H7B 3639   3.556   1.473   7.320 -0.1307  1.4632  1.9196
   50CHL1    C8 3640   3.662   1.668   7.351 -0.0196 -0.0506  0.5456
   50CHL1    H8 3641   3.623   1.769   7.327 -1.6682 -0.9765 -0.8862
   50CHL1   C14 3642   3.671   1.642   7.497 -0.0524 -0.5543 -0.3435
   50CHL1   H14 3643   3.694   1.533   7.508  1.9059 -0.0337  1.4943
   50CHL1   C15 3644   3.539   1.658   7.580  0.3878 -0.3187  0.0041
   50CHL1  H15A 3645   3.491   1.755   7.556 -0.1761 -0.3506  0.9722
   50CHL1  H15B 3646   3.472   1.574   7.552 -1.6778  1.2714 -0.0716
   50CHL1   C16 3647   3.593   1.644   7.721  0.1011  0.5727  0.9772
   50CHL1  H16A 3648   3.554   1.722   7.790 -2.3258 -0.6042  1.0383
   50CHL1  H16B 3649   3.563   1.543   7.756  0.3352 -1.0040 -2.8649
   50CHL1   C17 3650   3.753   1.655   7.716  0.1848  0.5520 -0.5698
   50CHL1   H17 3651   3.792   1.551   7.706 -0.6286  0.4098 -2.6606
   50CHL1   C13 3652   3.782   1.709   7.575  0.1113  0.2833 -0.9511
   50CHL1   C18 3653   3.755   1.858   7.565  0.6681  0.1597 -0.1111
   50CHL1  H18A 3654   3.819   1.906   7.643  0.0521  0.6370  0.1123
   50CHL1  H18B 3655   3.768   1.906   7.466 -0.9126  0.5184 -0.1685
   50CHL1  H18C 3656   3.649   1.887   7.581  0.3141 -2.1936  2.6475
   50CHL1   C12 3657   3.921   1.683   7.510  0.0701  0.2720 -0.0923
   50CHL1  H12A 3658   3.986   1.766   7.544 -0.3518  0.7581 -0.4581
   50CHL1  H12B 3659   3.949   1.580   7.542  0.0134  1.1616  3.1692
   50CHL1   C11 3660   3.919   1.708   7.359 -0.2997 -0.4443 -0.1664
   50CHL1  H11A 3661   3.918   1.817   7.338 -0.8185 -0.8447 -2.5449
   50CHL1  H11B 3662   4.013   1.667   7.316 -1.1595 -3.6506  0.6784
   50CHL1    C9 3663   3.800   1.649   7.282 -0.0517 -0.1262  0.0035
   50CHL1    H9 3664   3.814   1.539   7.283  0.0323 -0.1575  2.6833
   50CHL1   C10 3665   3.797   1.683   7.130 -0.1434  0.3720  0.2492
   50CHL1   C19 3666   3.798   1.840   7.102  0.3759 -0.9631  0.2339
   50CHL1  H19A 3667   3.815   1.860   6.994  1.2543 -0.2921  0.4817
   50CHL1  H19B 3668   3.694   1.874   7.122  0.3182 -0.6826 -0.4982
   50CHL1  H19C 3669   3.886   1.889   7.149  1.0227 -1.6969 -0.1932
   50CHL1    C1 3670   3.921   1.611   7.074 -0.4095  0.0095 -0.4579
   50CHL1   H1A 3671   4.008   1.670   7.111  0.6226 -1.1611 -0.9522
   50CHL1   H1B 3672   3.948   1.509   7.110  1.1379  1.1185  1.7548
   50CHL1    C2 3673   3.931   1.617   6.919  0.2296 -1.4027  0.5474
   50CHL1   H2A 3674   4.022   1.561   6.888  0.9871  0.8230 -1.7189
   50CHL1   H2B 3675   3.954   1.724   6.897 -0.0788 -1.4331  0.0697
   50CHL1   C20 3676   3.819   1.706   7.848 -0.1992 -0.2940  0.0590
   50CHL1   H20 3677   3.774   1.806   7.863  1.5235  0.5458 -0.0994
   50CHL1   C21 3678   3.969   1.722   7.833  0.3227 -0.3246 -0.7542
   50CHL1  H21A 3679   3.990   1.802   7.759  4.8623  2.0416  2.5662
   50CHL1  H21B 3680   4.013   1.625   7.801 -1.5896 -1.8130  0.8945
   50CHL1  H21C 3681   4.019   1.732   7.932 -1.6485 -0.5008  0.2952
   50CHL1   C22 3682   3.783   1.619   7.969  0.0059 -0.0375 -0.3257
   50CHL1  H22A 3683   3.672   1.613   7.978 -0.1470 -0.1051 -1.8884
   50CHL1  H22B 3684   3.819   1.516   7.945 -1.1859 -0.9184  1.4040
   50CHL1   C23 3685   3.853   1.654   8.103  0.3609 -0.4208 -0.6474
   50CHL1  H23A 3686   3.961   1.628   8.100  0.3300 -1.0435  1.6627
   50CHL1  H23B 3687   3.842   1.764   8.107  0.1238 -0.4307 -0.9549
   50CHL1   C24 3688   3.785   1.588   8.221  0.2344  0.3560 -0.3616
   50CHL1  H24A 3689   3.678   1.616   8.225 -0.4607 -1.7659 -2.1568
   50CHL1  H24B 3690   3.788   1.478   8.203 -2.1324  0.1342  0.2667
   50CHL1   C25 3691   3.842   1.622   8.365  0.1185  1.1248 -0.3434
   50CHL1   H25 3692   3.948   1.587   8.363  0.9621  3.4044  0.4552
   50CHL1   C26 3693   3.834   1.767   8.414  0.5309 -0.1437 -0.3029
   50CHL1  H26A 3694   3.884   1.770   8.513  0.6948 -0.0168 -0.3879
   50CHL1  H26B 3695   3.877   1.843   8.345 -1.4694  0.4942 -0.9299
   50CHL1  H26C 3696   3.725   1.789   8.410  0.8096  1.1097 -1.8234
   50CHL1   C27 3697   3.759   1.538   8.463  0.3667  0.4275 -0.8729
   50CHL1  H27A 3698   3.803   1.560   8.563 -1.7320 -0.2570  0.2639
   50CHL1  H27B 3699   3.654   1.574   8.459  0.0860 -0.4655 -2.0461
   50CHL1  H27C 3700   3.763   1.429   8.440 -1.8179  0.3243 -0.9312
   51CHL1    C3 3701   5.112   4.414   6.987  0.0371  0.0434 -0.4632
   51CHL1    H3 3702   5.044   4.327   6.974 -0.1875  0.1709 -0.1361
   51CHL1    O3 3703   5.135   4.477   6.862  0.3860 -0.5999 -0.5106
   51CHL1   H3' 3704   5.163   4.566   6.885 -0.2364 -0.8580  1.4063
   51CHL1    C4 3705   5.055   4.521   7.077  0.4220  0.1928 -0.0317
   51CHL1   H4A 3706   5.114   4.614   7.068 -1.1633  1.3554  1.1634
   51CHL1   H4B 3707   4.957   4.544   7.031  0.4190  0.1968 -0.0234
   51CHL1    C5 3708   5.049   4.480   7.224 -0.4151 -0.3652 -0.1470
   51CHL1    C6 3709   4.934   4.472   7.295  0.4945  0.4548 -0.2069
   51CHL1    H6 3710   4.840   4.504   7.247  0.1306  1.0491  0.8590
   51CHL1    C7 3711   4.925   4.442   7.447  0.7636  0.1212 -0.4934
   51CHL1   H7A 3712   4.851   4.508   7.497  1.0571 -0.3664  0.6058
   51CHL1   H7B 3713   4.883   4.340   7.457  0.6705  0.3449  2.2199
   51CHL1    C8 3714   5.069   4.436   7.516 -0.1542 -0.6818  0.0350
   51CHL1    H8 3715   5.103   4.540   7.536 -1.5380 -0.3362  0.7463
   51CHL1   C14 3716   5.054   4.378   7.651  0.3663  0.1135  0.5330
   51CHL1   H14 3717   5.012   4.276   7.637  0.8791 -0.1709  0.9738
   51CHL1   C15 3718   4.958   4.443   7.745  0.1939 -0.9512 -0.1875
   51CHL1  H15A 3719   4.977   4.553   7.744  0.0593 -0.9309 -1.0447
   51CHL1  H15B 3720   4.851   4.422   7.721 -0.0696 -1.0952  1.0363
   51CHL1   C16 3721   5.001   4.390   7.881 -0.2748  0.3215 -0.0648
   51CHL1  H16A 3722   5.033   4.475   7.946  1.5593 -0.4015  0.0558
   51CHL1  H16B 3723   4.929   4.333   7.944  0.7554 -1.1013 -0.1231
   51CHL1   C17 3724   5.131   4.307   7.869 -0.1538 -0.0235  0.0190
   51CHL1   H17 3725   5.101   4.200   7.855 -1.9474  0.5217 -0.5635
   51CHL1   C13 3726   5.186   4.358   7.728 -0.3250 -0.9533 -0.4268
   51CHL1   C18 3727   5.265   4.489   7.753  0.3600  0.2781  0.1783
   51CHL1  H18A 3728   5.365   4.459   7.790  0.5544  1.0206  0.2761
   51CHL1  H18B 3729   5.278   4.537   7.654 -4.2527 -1.4134 -1.5171
   51CHL1  H18C 3730   5.217   4.559   7.824 -0.1721  0.8764 -0.7592
   51CHL1   C12 3731   5.273   4.260   7.647 -0.8050 -0.4604  0.6990
   51CHL1  H12A 3732   5.373   4.266   7.695 -0.2270  0.3450 -0.5362
   51CHL1  H12B 3733   5.234   4.156   7.654 -1.3672 -0.3427 -0.4520
   51CHL1   C11 3734   5.289   4.312   7.498  0.0634  0.4375 -0.1763
   51CHL1  H11A 3735   5.360   4.397   7.508  1.6728 -0.9593  0.7358
   51CHL1  H11B 3736   5.335   4.228   7.442  1.0065  0.6076  0.3272
   51CHL1    C9 3737   5.161   4.361   7.427 -0.0024  0.2422 -0.0971
   51CHL1    H9 3738   5.115   4.267   7.388  2.7558  0.2555 -4.0736
   51CHL1   C10 3739   5.182   4.428   7.285  0.2221 -0.1384  0.1904
   51CHL1   C19 3740   5.268   4.560   7.292  0.5215 -0.3650 -0.6999
   51CHL1  H19A 3741   5.372   4.521   7.299  0.4529 -0.4387  0.0064
   51CHL1  H19B 3742   5.264   4.621   7.199 -0.4190  1.4059  0.4425
   51CHL1  H19C 3743   5.233   4.612   7.384 -1.6480  0.9771 -2.2087
   51CHL1    C1 3744   5.239   4.322   7.188  0.4738 -0.0929  0.0704
   51CHL1   H1A 3745   5.339   4.289   7.224 -0.5081 -2.2175  1.0150
   51CHL1   H1B 3746   5.176   4.231   7.183  0.3261  0.0581 -0.9893
   51CHL1    C2 3747   5.250   4.373   7.047 -0.5565  0.4568 -0.1545
   51CHL1   H2A 3748   5.295   4.297   6.980 -1.9101 -0.0712 -0.4812
   51CHL1   H2B 3749   5.314   4.464   7.045 -1.2239  0.9270 -0.4127
   51CHL1   C20 3750   5.220   4.295   7.992 -0.1872 -0.3875 -0.3645
   51CHL1   H20 3751   5.281   4.387   8.005 -2.2966  0.9351  0.9858
   51CHL1   C21 3752   5.315   4.176   7.973 -0.4621  0.5552 -0.3289
   51CHL1  H21A 3753   5.403   4.194   8.038 -1.4255  0.8109  0.9439
   51CHL1  H21B 3754   5.352   4.174   7.868  1.1950 -4.2672  0.1321
   51CHL1  H21C 3755   5.260   4.085   8.003 -2.2122  1.9496  0.9388
   51CHL1   C22 3756   5.144   4.286   8.120 -0.2207  0.2789 -0.1501
   51CHL1  H22A 3757   5.081   4.377   8.133  0.6684  1.1469 -1.6400
   51CHL1  H22B 3758   5.058   4.217   8.109  0.2426 -0.5414  1.1664
   51CHL1   C23 3759   5.229   4.241   8.242 -0.2164 -0.4435 -0.2855
   51CHL1  H23A 3760   5.251   4.132   8.233 -1.3535 -0.7065 -0.0359
   51CHL1  H23B 3761   5.330   4.287   8.252 -1.1415  1.3735  1.3444
   51CHL1   C24 3762   5.149   4.259   8.371  0.3653  0.0000 -0.0548
   51CHL1  H24A 3763   5.130   4.366   8.392 -1.2957 -0.6169  1.9107
   51CHL1  H24B 3764   5.048   4.214   8.359 -0.6305  2.4433 -1.2871
   51CHL1   C25 3765   5.199   4.192   8.500 -0.6437 -0.1265  1.4439
   51CHL1   H25 3766   5.301   4.238   8.503 -1.0453  0.7863  1.4969
   51CHL1   C26 3767   5.137   4.227   8.626  0.3186 -0.2908  0.3058
   51CHL1  H26A 3768   5.033   4.190   8.627  0.7907 -1.7023 -0.5236
   51CHL1  H26B 3769   5.194   4.179   8.709  2.6923  0.2101 -0.9585
   51CHL1  H26C 3770   5.137   4.333   8.658  1.1140 -0.2320  0.1455
   51CHL1   C27 3771   5.192   4.041   8.486 -0.1651  0.2862  0.1563
   51CHL1  H27A 3772   5.100   3.992   8.526  2.2761 -3.2691  2.0743
   51CHL1  H27B 3773   5.193   4.008   8.380 -0.8099  0.4703  0.0893
   51CHL1  H27C 3774   5.281   3.993   8.534 -1.8102 -0.9117  2.1801
   52CHL1    C3 3775   6.353   1.530   6.797 -0.1060  0.3342 -0.0242
   52CHL1    H3 3776   6.447   1.588   6.804 -0.5036  1.0474 -0.4143
   52CHL1    O3 3777   6.335   1.515   6.664 -0.3518 -0.6192 -0.5810
   52CHL1   H3' 3778   6.243   1.488   6.665 -0.0738 -1.6434  0.2926
   52CHL1    C4 3779   6.368   1.392   6.854 -0.2978  0.7067 -0.4971
   52CHL1   H4A 3780   6.282   1.327   6.829 -1.2164  1.7055 -0.0019
   52CHL1   H4B 3781   6.457   1.344   6.808 -0.9469 -0.5065 -0.5183
   52CHL1    C5 3782   6.394   1.393   7.005  0.0117 -0.0428  0.1671
   52CHL1    C6 3783   6.505   1.340   7.058 -0.0750  0.1758 -0.6188
   52CHL1    H6 3784   6.581   1.283   7.003 -0.3176 -0.9834  0.2053
   52CHL1    C7 3785   6.531   1.324   7.201 -0.2957 -0.4054  0.0496
   52CHL1   H7A 3786   6.578   1.227   7.227  0.7214  0.5609  2.0465
   52CHL1   H7B 3787   6.611   1.398   7.224  0.7967 -1.0726 -1.4623
   52CHL1    C8 3788   6.406   1.360   7.284  0.1814  0.0717 -0.5040
   52CHL1    H8 3789   6.340   1.270   7.285 -1.2422  1.0882  0.3146
   52CHL1   C14 3790   6.443   1.381   7.436  0.3752  0.2126 -0.6857
   52CHL1   H14 3791   6.512   1.466   7.454 -0.2300  0.4080  0.8403
   52CHL1   C15 3792   6.516   1.262   7.504 -0.1743 -0.2194  0.0267
   52CHL1  H15A 3793   6.467   1.168   7.473 -0.0522 -0.8299  1.5929
   52CHL1  H15B 3794   6.624   1.264   7.479 -0.3678  0.6478 -0.7840
   52CHL1   C16 3795   6.494   1.286   7.656  0.4858 -0.0359  0.8192
   52CHL1  H16A 3796   6.444   1.195   7.695 -0.5697 -0.0399 -0.4935
   52CHL1  H16B 3797   6.591   1.309   7.705  0.6482  0.3096  0.3472
   52CHL1   C17 3798   6.392   1.405   7.673  0.2114 -0.5897 -0.0654
   52CHL1   H17 3799   6.452   1.498   7.683  0.7999 -1.1199  1.8629
   52CHL1   C13 3800   6.319   1.406   7.529  0.8719  0.2357 -0.6092
   52CHL1   C18 3801   6.213   1.294   7.529 -0.6122 -0.7747 -0.5943
   52CHL1  H18A 3802   6.155   1.284   7.435 -0.3193  1.7353 -1.1235
   52CHL1  H18B 3803   6.266   1.197   7.527  1.1582  0.1774 -1.9460
   52CHL1  H18C 3804   6.138   1.292   7.611  0.3020 -3.5037  0.2820
   52CHL1   C12 3805   6.257   1.540   7.477  0.0551  0.5137 -0.2853
   52CHL1  H12A 3806   6.158   1.551   7.526 -0.3627  0.5246 -1.1272
   52CHL1  H12B 3807   6.328   1.621   7.504  1.0883 -1.0999  2.2565
   52CHL1   C11 3808   6.219   1.528   7.326  0.1026  0.5557 -0.8177
   52CHL1  H11A 3809   6.137   1.454   7.325  0.9250 -0.4110  0.3321
   52CHL1  H11B 3810   6.179   1.628   7.300 -0.3859  1.1821  2.0778
   52CHL1    C9 3811   6.333   1.485   7.233 -0.0842 -0.2410 -0.1338
   52CHL1    H9 3812   6.407   1.568   7.236 -0.4628  0.0818  1.9597
   52CHL1   C10 3813   6.283   1.461   7.082 -0.2754  0.1129  0.3639
   52CHL1   C19 3814   6.149   1.381   7.077  0.5957 -0.2244 -0.0727
   52CHL1  H19A 3815   6.163   1.284   7.129 -0.7485 -0.0239  0.7223
   52CHL1  H19B 3816   6.073   1.444   7.127  1.7789 -0.0689  1.6296
   52CHL1  H19C 3817   6.116   1.356   6.974 -3.2876 -0.2934  1.0386
   52CHL1    C1 3818   6.253   1.599   7.019 -0.2529 -0.3022  0.2162
   52CHL1   H1A 3819   6.169   1.643   7.076 -0.1892  3.0325 -1.9710
   52CHL1   H1B 3820   6.342   1.664   7.032  1.3411 -2.3608  0.3120
   52CHL1    C2 3821   6.230   1.604   6.868  0.5106  0.1811  0.2589
   52CHL1   H2A 3822   6.225   1.703   6.818  0.1419 -0.8052 -1.7571
   52CHL1   H2B 3823   6.135   1.548   6.856  0.6655 -0.7636  2.9089
   52CHL1   C20 3824   6.313   1.397   7.803  0.1387 -0.7714  0.6636
   52CHL1   H20 3825   6.246   1.309   7.810 -1.3740  0.3759  1.1432
   52CHL1   C21 3826   6.216   1.520   7.816  0.2809 -0.0001 -0.6125
   52CHL1  H21A 3827   6.179   1.546   7.918  2.1368 -0.4115  0.2068
   52CHL1  H21B 3828   6.134   1.489   7.748  0.3342 -0.2244 -0.5757
   52CHL1  H21C 3829   6.262   1.609   7.767  2.4364  0.9993  2.8553
   52CHL1   C22 3830   6.408   1.392   7.923  0.2433 -0.2306 -0.4931
   52CHL1  H22A 3831   6.501   1.332   7.912  0.1659 -0.7088  1.2423
   52CHL1  H22B 3832   6.464   1.487   7.935 -0.7224  0.4239 -0.9898
   52CHL1   C23 3833   6.349   1.343   8.056  0.6627 -0.8970 -0.2170
   52CHL1  H23A 3834   6.260   1.405   8.080 -0.3806 -1.6727 -1.9025
   52CHL1  H23B 3835   6.318   1.239   8.031  2.7933 -1.0501 -2.5833
   52CHL1   C24 3836   6.451   1.356   8.176  0.6244 -0.5316  0.0033
   52CHL1  H24A 3837   6.540   1.299   8.141  1.7841  1.4180 -0.3987
   52CHL1  H24B 3838   6.474   1.464   8.184 -0.1540 -0.1906 -1.9090
   52CHL1   C25 3839   6.394   1.300   8.308 -0.2593  0.0275  0.5792
   52CHL1   H25 3840   6.335   1.207   8.290 -0.0372  0.0450 -0.2704
   52CHL1   C26 3841   6.514   1.262   8.399  0.5124  0.6601 -0.0943
   52CHL1  H26A 3842   6.579   1.194   8.341  1.0594  1.4791 -0.4551
   52CHL1  H26B 3843   6.561   1.353   8.441  1.1949 -0.2667  1.2092
   52CHL1  H26C 3844   6.467   1.199   8.478  0.3904 -2.1713 -2.2641
   52CHL1   C27 3845   6.284   1.394   8.363 -0.1523 -0.6581  0.2710
   52CHL1  H27A 3846   6.247   1.345   8.456  1.3044 -0.5965  0.9100
   52CHL1  H27B 3847   6.308   1.499   8.389  0.4988 -0.7930  0.2314
   52CHL1  H27C 3848   6.198   1.405   8.293  1.3917  1.8529 -1.3759
   53CHL1    C3 3849   1.272   3.971   7.089  0.7703 -0.0159  0.2463
   53CHL1    H3 3850   1.371   4.017   7.110  0.7582  0.2333 -0.2444
   53CHL1    O3 3851   1.255   3.949   6.948  0.0893 -0.0451 -0.4019
   53CHL1   H3' 3852   1.166   3.913   6.949 -1.4151  3.2379  0.2428
   53CHL1    C4 3853   1.252   3.837   7.165 -0.0864  0.3736 -0.0779
   53CHL1   H4A 3854   1.147   3.808   7.144 -0.2736  0.1307  1.1489
   53CHL1   H4B 3855   1.324   3.760   7.132  0.7051  0.6619  0.9187
   53CHL1    C5 3856   1.249   3.838   7.319 -0.0549  1.4528  0.2418
   53CHL1    C6 3857   1.332   3.756   7.386 -0.5424  0.2448  0.2326
   53CHL1    H6 3858   1.396   3.683   7.334  0.0331 -0.1240  1.3980
   53CHL1    C7 3859   1.343   3.755   7.537 -0.5946 -0.5352 -0.0741
   53CHL1   H7A 3860   1.323   3.650   7.568 -0.0777 -0.7145 -0.3397
   53CHL1   H7B 3861   1.452   3.772   7.549 -0.4690  0.2423 -2.0225
   53CHL1    C8 3862   1.251   3.860   7.610  0.5395  0.4537 -0.2316
   53CHL1    H8 3863   1.155   3.807   7.624  2.2183 -2.8647 -0.1851
   53CHL1   C14 3864   1.314   3.907   7.742 -0.0620  0.1966 -0.1871
   53CHL1   H14 3865   1.398   3.976   7.720  0.1832  0.2826  0.9879
   53CHL1   C15 3866   1.360   3.799   7.839 -0.2874 -0.3506  0.3519
   53CHL1  H15A 3867   1.282   3.720   7.834 -0.9516  0.3300 -0.2651
   53CHL1  H15B 3868   1.460   3.766   7.805 -1.2873 -0.6379 -2.5426
   53CHL1   C16 3869   1.382   3.869   7.972 -1.1593 -0.5464  0.2354
   53CHL1  H16A 3870   1.349   3.805   8.057 -0.9495 -0.0761  0.6772
   53CHL1  H16B 3871   1.488   3.890   7.994 -1.3080  1.8142 -0.9998
   53CHL1   C17 3872   1.302   4.003   7.956 -0.1873 -0.2151  0.0217
   53CHL1   H17 3873   1.387   4.067   7.922 -0.5853  1.1001  1.4254
   53CHL1   C13 3874   1.215   3.993   7.826 -0.3773  0.3283 -0.7012
   53CHL1   C18 3875   1.084   3.918   7.859  0.2411 -0.1531 -0.4779
   53CHL1  H18A 3876   1.097   3.822   7.915 -0.7047 -0.7402 -1.2328
   53CHL1  H18B 3877   1.001   3.971   7.910 -0.7622 -2.2367  0.1982
   53CHL1  H18C 3878   1.031   3.889   7.766 -0.4210 -0.9131  0.1179
   53CHL1   C12 3879   1.186   4.123   7.748  0.0712  0.5452  1.0428
   53CHL1  H12A 3880   1.108   4.180   7.802 -1.1226  0.8242 -0.8844
   53CHL1  H12B 3881   1.281   4.176   7.729  0.3323 -1.1103 -3.4812
   53CHL1   C11 3882   1.129   4.092   7.606 -0.6744 -0.3959 -0.4030
   53CHL1  H11A 3883   1.034   4.041   7.633 -1.4517  1.3222  0.2382
   53CHL1  H11B 3884   1.117   4.185   7.547  0.5351 -0.5201 -0.8861
   53CHL1    C9 3885   1.222   3.988   7.532 -0.5624  0.0057  0.4008
   53CHL1    H9 3886   1.318   4.043   7.523 -0.7308 -0.0230 -2.8759
   53CHL1   C10 3887   1.172   3.950   7.389  0.2389  0.1021  0.7500
   53CHL1   C19 3888   1.022   3.917   7.395 -0.4875 -0.6178  0.0647
   53CHL1  H19A 3889   1.012   3.838   7.472  0.8969 -1.6439 -0.7531
   53CHL1  H19B 3890   0.958   4.004   7.422  0.4246  0.1716 -0.2651
   53CHL1  H19C 3891   0.979   3.876   7.301 -2.8473  2.2239 -0.2785
   53CHL1    C1 3892   1.197   4.083   7.303 -0.3321  0.2902  0.5031
   53CHL1   H1A 3893   1.141   4.171   7.342  1.5435  1.6595  0.2941
   53CHL1   H1B 3894   1.304   4.113   7.317 -1.1014  3.1984  0.9891
   53CHL1    C2 3895   1.171   4.062   7.150 -0.2592  0.3517 -0.3778
   53CHL1   H2A 3896   1.185   4.158   7.094 -0.3942  0.0932 -0.8589
   53CHL1   H2B 3897   1.069   4.025   7.131  0.1865 -1.5539  0.7430
   53CHL1   C20 3898   1.236   4.069   8.076  0.3046  0.6540  0.1577
   53CHL1   H20 3899   1.151   4.114   8.020  1.2943 -0.1453 -2.1210
   53CHL1   C21 3900   1.324   4.177   8.140  0.7726 -0.0235 -0.3525
   53CHL1  H21A 3901   1.420   4.139   8.178 -0.1117 -1.2440  0.7416
   53CHL1  H21B 3902   1.278   4.237   8.222  0.4859  0.2861 -0.7297
   53CHL1  H21C 3903   1.341   4.253   8.060  4.9507  1.6464  1.8390
   53CHL1   C22 3904   1.182   3.977   8.181 -0.0159  0.1846 -0.0553
   53CHL1  H22A 3905   1.148   3.880   8.139 -0.4730  0.3935 -0.1760
   53CHL1  H22B 3906   1.272   3.955   8.242  0.4472 -1.3966 -1.2550
   53CHL1   C23 3907   1.059   4.036   8.261  0.4812  0.1513  0.4843
   53CHL1  H23A 3908   1.087   4.130   8.314  2.3136  1.2465 -2.1996
   53CHL1  H23B 3909   0.971   4.056   8.196 -1.0877  0.8708  2.7038
   53CHL1   C24 3910   1.010   3.939   8.372  0.0050  0.6835 -0.0762
   53CHL1  H24A 3911   0.988   3.850   8.309  1.9860 -2.2230  3.0022
   53CHL1  H24B 3912   1.089   3.905   8.442 -0.6697  0.9478  0.8344
   53CHL1   C25 3913   0.892   3.995   8.442 -0.0637  0.2246  0.8721
   53CHL1   H25 3914   0.821   4.035   8.366  0.5204 -0.4203 -0.0373
   53CHL1   C26 3915   0.811   3.884   8.511  0.4116 -0.1573  0.2597
   53CHL1  H26A 3916   0.731   3.919   8.579  0.5428  0.6383  0.0267
   53CHL1  H26B 3917   0.772   3.817   8.432  0.6151  0.3280 -0.2635
   53CHL1  H26C 3918   0.874   3.822   8.578 -1.7293 -1.7004  0.9429
   53CHL1   C27 3919   0.935   4.106   8.547  0.8854  0.2717  0.5235
   53CHL1  H27A 3920   0.991   4.185   8.491 -0.5061 -0.3530 -1.9127
   53CHL1  H27B 3921   0.846   4.145   8.601  0.1182 -0.3377 -0.2694
   53CHL1  H27C 3922   1.010   4.060   8.614 -1.9898 -3.2853  1.5948
   54CHL1    C3 3923   1.448   6.365   6.921 -0.9215 -0.1368  0.4352
   54CHL1    H3 3924   1.437   6.475   6.925  0.1256  0.0993 -1.6772
   54CHL1    O3 3925   1.486   6.342   6.785  0.2657 -0.1784 -0.7001
   54CHL1   H3' 3926   1.446   6.411   6.733 -1.4430  0.4495  1.2950
   54CHL1    C4 3927   1.562   6.315   7.010 -0.9002  0.2693  0.2509
   54CHL1   H4A 3928   1.574   6.208   6.981 -0.7547  0.1204  0.8503
   54CHL1   H4B 3929   1.655   6.370   6.987  0.8617 -2.4261  0.4473
   54CHL1    C5 3930   1.520   6.323   7.155 -0.0922 -0.1191  0.2961
   54CHL1    C6 3931   1.593   6.394   7.240 -0.0153  0.3437 -0.4859
   54CHL1    H6 3932   1.682   6.448   7.203  2.2739  0.0050  3.8852
   54CHL1    C7 3933   1.572   6.395   7.392  0.1440  0.2131  0.7113
   54CHL1   H7A 3934   1.671   6.383   7.439  0.0322  2.4106  1.6362
   54CHL1   H7B 3935   1.533   6.498   7.410 -2.3223 -0.7151  1.1329
   54CHL1    C8 3936   1.468   6.293   7.442  0.0788 -0.5889  0.3998
   54CHL1    H8 3937   1.519   6.194   7.441  0.3984 -0.4459 -1.6207
   54CHL1   C14 3938   1.422   6.332   7.576 -0.0991 -0.2806  0.0110
   54CHL1   H14 3939   1.382   6.435   7.560  0.3480 -0.4765 -3.1825
   54CHL1   C15 3940   1.529   6.336   7.692  0.5693  0.0297  0.3222
   54CHL1  H15A 3941   1.593   6.246   7.699  1.2928  0.4241 -0.9718
   54CHL1  H15B 3942   1.593   6.427   7.687  1.9945 -0.8895  1.1664
   54CHL1   C16 3943   1.447   6.338   7.819 -0.2934  0.9129  0.6602
   54CHL1  H16A 3944   1.499   6.275   7.895  1.8981 -0.0335 -1.5147
   54CHL1  H16B 3945   1.423   6.435   7.869 -0.6206  0.9542  0.4296
   54CHL1   C17 3946   1.302   6.290   7.778  0.0808 -0.2897 -0.2817
   54CHL1   H17 3947   1.235   6.378   7.766  1.5369  0.7083 -1.5474
   54CHL1   C13 3948   1.313   6.237   7.634  0.1464  0.0578  0.6362
   54CHL1   C18 3949   1.362   6.089   7.630  0.3607  0.2601 -0.3422
   54CHL1  H18A 3950   1.444   6.075   7.704 -0.0891  1.1082  0.3322
   54CHL1  H18B 3951   1.268   6.036   7.658 -0.6253  2.0838 -0.0303
   54CHL1  H18C 3952   1.398   6.051   7.532 -0.3159 -1.5835  0.0705
   54CHL1   C12 3953   1.188   6.248   7.542 -0.6902 -0.1235  0.1341
   54CHL1  H12A 3954   1.098   6.193   7.577 -0.7849  0.4241  0.7610
   54CHL1  H12B 3955   1.151   6.352   7.541 -0.8886 -0.1428  1.9031
   54CHL1   C11 3956   1.230   6.210   7.397 -0.5868  0.8632  0.3936
   54CHL1  H11A 3957   1.241   6.100   7.387  1.1646  1.1768 -1.8102
   54CHL1  H11B 3958   1.144   6.240   7.333 -0.4762  0.9741  0.2962
   54CHL1    C9 3959   1.349   6.281   7.343  0.6256  0.2276 -0.2229
   54CHL1    H9 3960   1.328   6.390   7.333 -2.3797 -0.0183  2.0105
   54CHL1   C10 3961   1.389   6.242   7.194  0.4411 -0.8853 -0.7219
   54CHL1   C19 3962   1.410   6.096   7.170 -0.0484  0.1669 -0.2815
   54CHL1  H19A 3963   1.425   6.071   7.063 -0.9537 -1.1155 -0.1315
   54CHL1  H19B 3964   1.487   6.051   7.237  0.7643 -0.3913 -1.5462
   54CHL1  H19C 3965   1.313   6.044   7.187  0.6478 -1.0739  0.0585
   54CHL1    C1 3966   1.281   6.296   7.097 -0.3172  0.6508  0.2430
   54CHL1   H1A 3967   1.194   6.228   7.107 -0.3967  0.8205  0.7249
   54CHL1   H1B 3968   1.251   6.400   7.123 -0.7850  0.9365 -1.3280
   54CHL1    C2 3969   1.315   6.293   6.948  0.2050  0.5037  0.1798
   54CHL1   H2A 3970   1.235   6.342   6.889 -1.0191 -1.6343 -0.0248
   54CHL1   H2B 3971   1.321   6.185   6.925 -2.5944  0.7311 -2.0689
   54CHL1   C20 3972   1.252   6.207   7.897 -0.0449  0.2399  0.0869
   54CHL1   H20 3973   1.319   6.120   7.911  1.0402  1.3553  2.2646
   54CHL1   C21 3974   1.114   6.158   7.872 -0.5351  0.4953 -0.4593
   54CHL1  H21A 3975   1.046   6.242   7.850 -0.0040  0.8496 -0.7745
   54CHL1  H21B 3976   1.088   6.099   7.963 -0.0866 -1.2363 -1.4198
   54CHL1  H21C 3977   1.118   6.090   7.784  1.4959 -0.9751  0.6696
   54CHL1   C22 3978   1.257   6.278   8.042 -0.2773 -0.3160 -0.2891
   54CHL1  H22A 3979   1.222   6.195   8.107 -1.9595  0.2451 -0.4155
   54CHL1  H22B 3980   1.363   6.291   8.071 -0.1165  1.2481 -1.4421
   54CHL1   C23 3981   1.176   6.405   8.056  0.3031 -0.3544 -0.3255
   54CHL1  H23A 3982   1.218   6.488   7.995  2.4830  1.2828  3.0715
   54CHL1  H23B 3983   1.075   6.375   8.023  0.6772 -1.9407 -0.1017
   54CHL1   C24 3984   1.158   6.453   8.203 -0.1001 -0.0182  0.9481
   54CHL1  H24A 3985   1.072   6.524   8.204 -0.9176 -0.9499 -0.3550
   54CHL1  H24B 3986   1.127   6.369   8.269 -3.0320 -0.1263 -0.3857
   54CHL1   C25 3987   1.274   6.535   8.270  0.2911  0.6691  0.3118
   54CHL1   H25 3988   1.366   6.473   8.258 -0.4539  0.0221 -3.2283
   54CHL1   C26 3989   1.310   6.662   8.205  0.0399 -0.2838  0.2293
   54CHL1  H26A 3990   1.218   6.724   8.209 -0.9190 -1.4115 -2.2181
   54CHL1  H26B 3991   1.399   6.702   8.259  0.4175  0.1812 -0.7131
   54CHL1  H26C 3992   1.338   6.645   8.099 -0.5156  0.9193 -0.1292
   54CHL1   C27 3993   1.249   6.565   8.415 -0.1203  0.4481 -0.1943
   54CHL1  H27A 3994   1.224   6.482   8.486  1.2888  0.7707  0.7103
   54CHL1  H27B 3995   1.339   6.613   8.459  0.4195 -0.4114 -0.3417
   54CHL1  H27C 3996   1.164   6.637   8.416 -0.3565  0.2106  1.8373
   55CHL1    C3 3997   1.946   5.820   6.836  0.4395 -0.3436  0.7909
   55CHL1    H3 3998   1.837   5.800   6.847  0.1780  1.4066  1.9035
   55CHL1    O3 3999   1.975   5.815   6.699  0.7106  0.8797  0.2300
   55CHL1   H3' 4000   2.058   5.862   6.689  1.7888 -0.7612  0.8944
   55CHL1    C4 4001   1.956   5.971   6.887  0.3887  0.4743 -0.6228
   55CHL1   H4A 4002   2.060   6.002   6.864  1.2602 -1.1314  0.9245
   55CHL1   H4B 4003   1.890   6.032   6.821 -0.0242  2.4770  1.4882
   55CHL1    C5 4004   1.936   5.982   7.040 -0.5067  0.0707  0.4897
   55CHL1    C6 4005   1.846   6.067   7.099 -0.1866 -0.6753  0.0604
   55CHL1    H6 4006   1.783   6.134   7.038 -0.1148 -0.8472 -0.2048
   55CHL1    C7 4007   1.823   6.091   7.244 -0.3031  0.1992 -0.2288
   55CHL1   H7A 4008   1.815   6.198   7.275  0.0799  0.5103 -1.1649
   55CHL1   H7B 4009   1.728   6.040   7.272 -0.3148  0.4738  0.2459
   55CHL1    C8 4010   1.938   6.023   7.326  0.7451 -0.0207 -0.3145
   55CHL1    H8 4011   2.028   6.087   7.317  1.9210 -1.5551  0.0688
   55CHL1   C14 4012   1.895   6.001   7.473 -0.4336  0.2873  0.6193
   55CHL1   H14 4013   1.811   5.928   7.477 -0.4999  0.4029  2.8642
   55CHL1   C15 4014   1.842   6.123   7.549  0.0173  0.2813  0.9531
   55CHL1  H15A 4015   1.895   6.212   7.508 -0.5559 -0.3199 -1.2395
   55CHL1  H15B 4016   1.734   6.133   7.526  0.4774 -1.0667 -2.3181
   55CHL1   C16 4017   1.871   6.099   7.697  0.5761 -0.1737  0.0359
   55CHL1  H16A 4018   1.941   6.178   7.731  1.6344 -2.0723  2.5730
   55CHL1  H16B 4019   1.776   6.106   7.753 -0.1312 -0.0880 -1.1367
   55CHL1   C17 4020   1.937   5.960   7.701  0.4131  0.2932  0.2684
   55CHL1   H17 4021   1.857   5.885   7.713  1.6817 -1.3139 -0.8471
   55CHL1   C13 4022   2.002   5.946   7.564 -0.1819 -0.0172 -0.8018
   55CHL1   C18 4023   2.120   6.039   7.557 -0.0697 -0.9269  1.2832
   55CHL1  H18A 4024   2.199   6.023   7.633  0.8119  2.1218  1.1324
   55CHL1  H18B 4025   2.173   6.029   7.460  0.4522  2.4716  1.0843
   55CHL1  H18C 4026   2.092   6.146   7.550 -0.2262 -1.0588 -3.2276
   55CHL1   C12 4027   2.033   5.804   7.518  0.6779  0.1708  0.3040
   55CHL1  H12A 4028   2.103   5.734   7.568 -0.7803 -2.1911 -0.7706
   55CHL1  H12B 4029   1.931   5.760   7.527 -0.5172  3.0509  3.0660
   55CHL1   C11 4030   2.071   5.799   7.366  0.2623  0.1523 -0.7926
   55CHL1  H11A 4031   2.172   5.843   7.354  0.4834 -0.5483 -1.5641
   55CHL1  H11B 4032   2.090   5.701   7.318  0.1171 -0.0601 -0.4192
   55CHL1    C9 4033   1.976   5.887   7.276  1.0225 -0.7705 -1.5091
   55CHL1    H9 4034   1.878   5.836   7.291 -0.5155  1.7367 -2.4009
   55CHL1   C10 4035   2.014   5.885   7.124  0.3367 -0.0946 -0.2266
   55CHL1   C19 4036   2.163   5.912   7.120  0.1344  0.2203  0.6288
   55CHL1  H19A 4037   2.217   5.827   7.167  0.9544  0.3707 -0.0126
   55CHL1  H19B 4038   2.199   5.910   7.015  2.5270 -0.8964  1.3975
   55CHL1  H19C 4039   2.202   6.010   7.156 -0.6181  1.1818 -1.0696
   55CHL1    C1 4040   1.977   5.744   7.067 -0.8375 -0.5156 -0.3925
   55CHL1   H1A 4041   2.034   5.670   7.127  0.9392  2.2107  1.5355
   55CHL1   H1B 4042   1.869   5.720   7.078 -0.9640 -1.4641 -3.0397
   55CHL1    C2 4043   2.020   5.725   6.919 -0.7617 -0.1193  0.0806
   55CHL1   H2A 4044   1.988   5.624   6.885 -0.9386 -0.2723  0.6753
   55CHL1   H2B 4045   2.130   5.735   6.909 -0.9287  2.0300  0.0603
   55CHL1   C20 4046   2.022   5.945   7.830 -0.4621 -0.6694  0.4165
   55CHL1   H20 4047   2.117   5.999   7.814  0.3821 -2.7954 -2.5132
   55CHL1   C21 4048   2.036   5.793   7.850  0.4727  0.0452  0.5941
   55CHL1  H21A 4049   2.094   5.779   7.944  0.6211  0.9564  0.6437
   55CHL1  H21B 4050   2.090   5.756   7.760  1.4407  0.4615  0.9917
   55CHL1  H21C 4051   1.939   5.738   7.855  0.0638  0.4180 -1.9491
   55CHL1   C22 4052   1.963   5.999   7.963 -0.6208  0.5231  0.3119
   55CHL1  H22A 4053   2.047   5.974   8.031 -2.1397  3.5608  3.6048
   55CHL1  H22B 4054   1.951   6.110   7.962 -2.5055  0.3552 -0.4974
   55CHL1   C23 4055   1.831   5.937   8.013 -0.1784  0.5399  0.7551
   55CHL1  H23A 4056   1.764   5.965   7.930  0.9073  0.7988 -0.0506
   55CHL1  H23B 4057   1.836   5.826   8.010 -3.3071  0.3169 -0.6072
   55CHL1   C24 4058   1.784   5.985   8.149  0.2733  0.0824  0.3027
   55CHL1  H24A 4059   1.858   5.963   8.229 -1.1839 -0.0209  1.6536
   55CHL1  H24B 4060   1.774   6.095   8.150  0.0425  0.0575  1.0882
   55CHL1   C25 4061   1.646   5.921   8.192 -0.6272 -0.2843  0.4425
   55CHL1   H25 4062   1.655   5.814   8.164  1.5467  0.2284 -1.1318
   55CHL1   C26 4063   1.624   5.931   8.341 -0.2627 -0.5499  0.4405
   55CHL1  H26A 4064   1.695   5.869   8.401  1.5219  0.0374 -0.9725
   55CHL1  H26B 4065   1.641   6.039   8.364  2.2697 -0.2299 -2.4306
   55CHL1  H26C 4066   1.523   5.890   8.364 -1.3011  1.9168  0.6107
   55CHL1   C27 4067   1.536   5.974   8.109  0.7014 -0.3813 -0.2216
   55CHL1  H27A 4068   1.434   5.938   8.135 -0.8431  2.7112 -1.5131
   55CHL1  H27B 4069   1.523   6.082   8.130 -1.0877 -1.0737  2.7333
   55CHL1  H27C 4070   1.551   5.963   7.999 -0.8910  2.4617 -0.8259
   56CHL1    C3 4071   1.094   5.281   6.780 -0.1851 -0.1667 -0.2629
   56CHL1    H3 4072   1.013   5.355   6.798  0.0366  0.0724 -0.2377
   56CHL1    O3 4073   1.146   5.307   6.656  0.0641  0.5442 -0.2982
   56CHL1   H3' 4074   1.232   5.265   6.656  0.3797  1.1600  0.4614
   56CHL1    C4 4075   1.202   5.318   6.882  0.2101  0.2188 -0.5423
   56CHL1   H4A 4076   1.299   5.268   6.863  0.1675 -0.6015  1.2032
   56CHL1   H4B 4077   1.241   5.422   6.873 -0.1353  0.4674  0.6854
   56CHL1    C5 4078   1.169   5.294   7.027  0.0232  0.5794 -0.0176
   56CHL1    C6 4079   1.173   5.391   7.118 -0.3461  0.1411 -0.5001
   56CHL1    H6 4080   1.219   5.488   7.093 -1.4038  0.8276  0.1171
   56CHL1    C7 4081   1.140   5.368   7.263  0.3836  1.1006  0.3667
   56CHL1   H7A 4082   1.218   5.392   7.338 -1.6226 -0.2150  3.0194
   56CHL1   H7B 4083   1.051   5.430   7.286  0.4678  1.5629 -0.5120
   56CHL1    C8 4084   1.117   5.216   7.299 -0.1564  0.1909 -0.6081
   56CHL1    H8 4085   1.220   5.180   7.318 -0.7329 -0.3785  1.7091
   56CHL1   C14 4086   1.032   5.213   7.421 -0.5185 -0.6452 -0.5537
   56CHL1   H14 4087   0.932   5.249   7.391 -0.8235 -1.2066 -0.2273
   56CHL1   C15 4088   1.067   5.302   7.540 -0.4766 -0.7378 -0.2478
   56CHL1  H15A 4089   1.177   5.307   7.557 -0.9452  1.2303  2.9940
   56CHL1  H15B 4090   1.041   5.408   7.521 -0.0862  0.2249  3.6655
   56CHL1   C16 4091   1.000   5.239   7.661  0.4821 -0.0182  0.1363
   56CHL1  H16A 4092   1.079   5.226   7.738  1.7238  0.5815 -1.0089
   56CHL1  H16B 4093   0.917   5.308   7.690  1.4278  1.4554 -0.5839
   56CHL1   C17 4094   0.949   5.098   7.615  0.4025 -0.1375  0.0734
   56CHL1   H17 4095   0.841   5.112   7.596  0.7202  0.4850 -1.4193
   56CHL1   C13 4096   1.018   5.078   7.481 -0.1196  1.0271 -0.4192
   56CHL1   C18 4097   1.163   5.021   7.513 -0.4850  1.0268 -0.6765
   56CHL1  H18A 4098   1.164   4.913   7.541 -1.9244  0.4347 -2.6850
   56CHL1  H18B 4099   1.222   5.027   7.418  0.8010  3.8020  0.2092
   56CHL1  H18C 4100   1.208   5.087   7.590 -0.3661 -0.7854  0.8921
   56CHL1   C12 4101   0.940   4.991   7.375  0.5852  0.2637  0.3936
   56CHL1  H12A 4102   0.945   4.884   7.407 -0.1239  0.5917  1.7116
   56CHL1  H12B 4103   0.834   5.024   7.372  1.0543  2.1942  2.4150
   56CHL1   C11 4104   1.001   4.998   7.230 -0.5626  0.4322 -0.4617
   56CHL1  H11A 4105   1.084   4.925   7.233 -1.9590 -1.2198 -0.3093
   56CHL1  H11B 4106   0.927   4.953   7.159 -0.3910 -3.1437  1.3832
   56CHL1    C9 4107   1.046   5.144   7.187 -0.3592 -0.0894 -0.5575
   56CHL1    H9 4108   0.947   5.194   7.182  0.2468  1.4093  1.2841
   56CHL1   C10 4109   1.116   5.154   7.046  0.0541 -0.1398  0.5693
   56CHL1   C19 4110   1.232   5.047   7.040 -0.7165 -0.7131  0.5821
   56CHL1  H19A 4111   1.305   5.074   7.120  1.2664 -0.8061 -1.1063
   56CHL1  H19B 4112   1.193   4.944   7.057  0.9878 -1.5271 -0.2610
   56CHL1  H19C 4113   1.287   5.060   6.945 -1.0409  2.5988  0.7208
   56CHL1    C1 4114   1.009   5.110   6.939  0.4346  0.3934 -0.3061
   56CHL1   H1A 4115   0.987   5.002   6.948  0.7210  0.2840 -0.9156
   56CHL1   H1B 4116   0.914   5.167   6.949  0.3678  0.1768  0.3567
   56CHL1    C2 4117   1.046   5.136   6.795  0.4965 -0.2581  0.3612
   56CHL1   H2A 4118   0.967   5.117   6.720  0.6616 -0.3184  0.2007
   56CHL1   H2B 4119   1.132   5.071   6.766 -0.0606 -1.0145  0.3799
   56CHL1   C20 4120   0.956   5.001   7.736  0.2370  0.8835  0.2170
   56CHL1   H20 4121   1.062   4.980   7.761  0.4645  0.3072 -1.1571
   56CHL1   C21 4122   0.901   4.870   7.682  0.2344  0.0060 -1.5071
   56CHL1  H21A 4123   0.895   4.792   7.761 -0.2927 -0.1624 -1.7071
   56CHL1  H21B 4124   0.957   4.816   7.602  0.2831 -0.9719 -0.8340
   56CHL1  H21C 4125   0.800   4.882   7.637 -0.5820  0.0972  0.2865
   56CHL1   C22 4126   0.867   5.052   7.856  0.6010  0.2383  0.2823
   56CHL1  H22A 4127   0.892   5.151   7.900  0.8358 -0.3705  1.5738
   56CHL1  H22B 4128   0.765   5.062   7.813 -0.7701  0.9780  3.4087
   56CHL1   C23 4129   0.873   4.951   7.973  0.8356  0.3046  0.0503
   56CHL1  H23A 4130   0.873   4.846   7.935  2.4280  0.7314 -1.2046
   56CHL1  H23B 4131   0.967   4.946   8.033 -0.4839 -1.3694  2.1696
   56CHL1   C24 4132   0.769   4.965   8.084 -1.4479 -0.3393  0.5146
   56CHL1  H24A 4133   0.673   4.946   8.033 -1.1271  0.8943 -0.6243
   56CHL1  H24B 4134   0.788   4.889   8.163 -1.4506 -0.9564 -0.0792
   56CHL1   C25 4135   0.760   5.112   8.144  0.3828 -0.3883 -0.1798
   56CHL1   H25 4136   0.744   5.178   8.056 -1.4788  0.2301  0.5686
   56CHL1   C26 4137   0.641   5.126   8.236  0.0859  0.0443 -0.8354
   56CHL1  H26A 4138   0.651   5.069   8.331 -1.5815 -2.9485 -2.3254
   56CHL1  H26B 4139   0.548   5.086   8.193  0.7939 -1.7953 -0.7387
   56CHL1  H26C 4140   0.612   5.232   8.252 -3.5423 -0.3602 -3.6030
   56CHL1   C27 4141   0.882   5.174   8.218 -0.1505 -0.1491 -0.7792
   56CHL1  H27A 4142   0.974   5.165   8.157  0.3661  1.1565 -0.2391
   56CHL1  H27B 4143   0.864   5.282   8.238 -1.8415 -0.8641  2.2266
   56CHL1  H27C 4144   0.887   5.135   8.322 -0.6645 -0.4278 -0.8596
   57SAPC     N 4145   0.274   3.074  10.628  0.2147  0.0633  0.0345
   57SAPC   C12 4146   0.311   3.203  10.564  0.4922  0.8872  0.1823
   57SAPC  H12A 4147   0.224   3.261  10.539 -0.9006 -1.6857 -1.4133
   57SAPC  H12B 4148   0.347   3.174  10.466  1.9078  1.5503  0.4767
   57SAPC   C13 4149   0.380   2.975  10.608 -0.2482 -0.0675 -0.9020
   57SAPC  H13A 4150   0.480   3.013  10.620  0.3991 -1.1006 -2.6406
   57SAPC  H13B 4151   0.367   2.888  10.670  2.3430 -0.6636 -1.0994
   57SAPC  H13C 4152   0.378   2.936  10.507  1.4829  1.2126 -1.4841
   57SAPC   C14 4153   0.238   3.104  10.769  0.1485  0.1295 -0.2781
   57SAPC  H14A 4154   0.196   3.019  10.819  0.6919  0.9357  1.6558
   57SAPC  H14B 4155   0.331   3.138  10.812  0.3482 -1.2329  0.4177
   57SAPC  H14C 4156   0.165   3.184  10.767 -2.0561 -1.7853 -1.9017
   57SAPC   C15 4157   0.149   3.023  10.557 -0.2394  0.2971 -0.7170
   57SAPC  H15A 4158   0.069   3.091  10.581 -0.5557 -0.7520  1.4385
   57SAPC  H15B 4159   0.179   3.020  10.453  0.7203  0.9326 -0.4694
   57SAPC  H15C 4160   0.120   2.927  10.596 -0.4983 -0.1977 -2.0602
   57SAPC   C11 4161   0.416   3.299  10.626  0.4472  0.4661  0.5839
   57SAPC  H11A 4162   0.369   3.333  10.721 -1.4192 -0.4220  0.0201
   57SAPC  H11B 4163   0.417   3.381  10.551 -2.1999  0.7794  0.7707
   57SAPC     P 4164   0.666   3.235  10.552  0.2172 -0.1395  0.3561
   57SAPC   O13 4165   0.691   3.380  10.535 -0.0113 -0.3401 -0.0508
   57SAPC   O14 4166   0.782   3.164  10.604  0.3517 -0.1690  0.5067
   57SAPC   O12 4167   0.543   3.230  10.651 -0.2334 -0.2117 -0.3565
   57SAPC   O11 4168   0.619   3.177  10.414  0.0083 -0.5147  0.1775
   57SAPC    C1 4169   0.694   3.215  10.295 -0.2650  0.0480  0.3906
   57SAPC    HA 4170   0.777   3.287  10.309 -1.6916  2.6559 -3.1791
   57SAPC    HB 4171   0.741   3.125  10.252 -2.2250 -0.7951 -0.1120
   57SAPC    C2 4172   0.603   3.271  10.179 -0.0356  0.0046 -0.4118
   57SAPC    HS 4173   0.551   3.361  10.219 -0.1235 -0.8031  1.3667
   57SAPC   O21 4174   0.519   3.175  10.112 -0.7252 -0.0805  0.1630
   57SAPC   C21 4175   0.409   3.160  10.177 -0.0864 -0.0005 -0.2068
   57SAPC   O22 4176   0.369   3.221  10.278 -0.7106 -0.5096  0.4276
   57SAPC   C22 4177   0.325   3.044  10.115  0.2974 -0.1232  0.5667
   57SAPC   H2R 4178   0.392   2.966  10.072  0.1997  0.9925 -1.8050
   57SAPC   H2S 4179   0.273   2.994  10.199 -1.3303  0.3122 -0.1513
   57SAPC    C3 4180   0.702   3.334  10.075  0.3024  0.1810  0.2232
   57SAPC    HX 4181   0.749   3.419  10.129  1.9784 -1.7811  2.0362
   57SAPC    HY 4182   0.653   3.376   9.984  0.1023  0.0769  0.2813
   57SAPC   O31 4183   0.794   3.234  10.018  0.0719  0.0481  0.5838
   57SAPC   C31 4184   0.915   3.250  10.054 -0.8391 -0.6367 -0.6480
   57SAPC   O32 4185   0.956   3.348  10.121  0.2476  0.4944 -0.0965
   57SAPC   C32 4186   1.004   3.144   9.996  0.1221  0.1084 -0.0682
   57SAPC   H2X 4187   0.948   3.050  10.019 -3.0688  1.2182 -2.5774
   57SAPC   H2Y 4188   1.108   3.150  10.034  1.1030  1.6367 -2.7527
   57SAPC   C23 4189   0.233   3.098  10.006 -0.3457 -0.4317  0.5986
   57SAPC   H3R 4190   0.298   3.150   9.932  0.9529 -0.2395  1.8103
   57SAPC   H3S 4191   0.167   3.179  10.044  1.4778  1.8863 -0.8970
   57SAPC   C24 4192   0.143   2.993   9.942 -0.3923  0.3104  0.7524
   57SAPC   H4R 4193   0.099   3.031   9.848  0.1087  1.2208  0.8838
   57SAPC   H4S 4194   0.053   2.980  10.007  0.5063 -0.4589  1.8850
   57SAPC   C25 4195   0.209   2.854   9.918 -0.5123  0.1786  0.4323
   57SAPC   H5R 4196   0.248   2.809  10.010 -0.9918  1.6939  1.4053
   57SAPC   C26 4197   0.239   2.792   9.807  0.1785 -0.8129  0.0695
   57SAPC   H6R 4198   0.310   2.709   9.823 -1.7038 -2.2204  1.5138
   57SAPC   C27 4199   0.214   2.819   9.661 -0.3515 -0.0112 -0.4268
   57SAPC   H7R 4200   0.320   2.831   9.631 -0.6329  2.7157 -0.5993
   57SAPC   H7S 4201   0.164   2.917   9.641 -0.0950 -0.2541 -2.4108
   57SAPC   C28 4202   0.148   2.716   9.568 -0.2949 -0.1103  0.0831
   57SAPC   H8R 4203   0.101   2.631   9.620 -2.3104  1.3369  0.7432
   57SAPC   C29 4204   0.124   2.732   9.435 -0.8789  0.7958  0.7649
   57SAPC   H9R 4205   0.073   2.644   9.393 -0.4251  0.0205  1.7808
   57SAPC  C210 4206   0.178   2.850   9.362  0.7709  0.0402  0.5251
   57SAPC  H10R 4207   0.181   2.948   9.414  0.4301  0.2877  0.0859
   57SAPC  H10S 4208   0.103   2.872   9.283  1.9896  1.9198 -0.1946
   57SAPC  C211 4209   0.308   2.817   9.292 -0.2479 -0.2288  0.7973
   57SAPC  H11R 4210   0.296   2.740   9.215  0.1604  0.9097 -0.4434
   57SAPC  C212 4211   0.433   2.874   9.310  0.1024  0.2709  0.5513
   57SAPC  H12R 4212   0.521   2.855   9.248  0.6371  0.0139  1.3665
   57SAPC  C213 4213   0.463   2.967   9.420 -0.2614 -1.5302  0.1535
   57SAPC  H13R 4214   0.509   2.906   9.501  0.1507 -2.1595 -0.5485
   57SAPC  H13S 4215   0.376   3.020   9.465 -0.1968  1.3446 -2.7220
   57SAPC  C214 4216   0.571   3.078   9.385  0.4590  0.8844 -0.1229
   57SAPC  H14R 4217   0.670   3.054   9.426 -0.8572 -2.7431  1.4304
   57SAPC  C215 4218   0.558   3.178   9.293 -0.1650 -0.1015  0.2891
   57SAPC  H15R 4219   0.645   3.244   9.277  0.2363 -0.5961  0.4150
   57SAPC  C216 4220   0.434   3.208   9.219  0.1412 -0.5602 -0.4472
   57SAPC  H16R 4221   0.413   3.317   9.229  0.2949 -0.6665  1.3711
   57SAPC  H16S 4222   0.346   3.157   9.262  0.2539 -0.1395  0.2953
   57SAPC  C217 4223   0.453   3.170   9.076  0.6892  0.5304  0.1901
   57SAPC  H17R 4224   0.441   3.059   9.078 -0.7292  0.6752  0.8485
   57SAPC  H17S 4225   0.550   3.188   9.026  0.3696 -3.0238 -2.1202
   57SAPC  C218 4226   0.348   3.230   8.977 -0.3838 -0.0053 -0.1180
   57SAPC  H18R 4227   0.343   3.338   9.004  0.3678 -0.6289  2.7820
   57SAPC  H18S 4228   0.251   3.176   8.969 -0.6303  0.0230  2.1726
   57SAPC  C219 4229   0.400   3.207   8.835 -0.0716 -0.1655 -0.1583
   57SAPC  H19R 4230   0.424   3.098   8.834  0.0444 -0.1328 -1.0597
   57SAPC  H19S 4231   0.499   3.251   8.812  0.0533 -0.7284 -0.7197
   57SAPC  C220 4232   0.312   3.241   8.717  0.1866  0.0681 -0.0516
   57SAPC  H20R 4233   0.370   3.209   8.627  0.4826  1.7321 -0.4828
   57SAPC  H20S 4234   0.298   3.351   8.719 -0.8051 -0.0578  0.1850
   57SAPC  H20T 4235   0.213   3.192   8.723 -0.5682  1.5755  0.2842
   57SAPC   C33 4236   1.010   3.139   9.845 -0.1908 -0.0215  0.0784
   57SAPC   H3X 4237   0.915   3.158   9.790  0.3451  0.7250 -0.6096
   57SAPC   H3Y 4238   1.061   3.047   9.810  2.3801  0.6645  1.7844
   57SAPC   C34 4239   1.107   3.248   9.791  0.3168 -0.2800  0.1622
   57SAPC   H4X 4240   1.199   3.234   9.853 -2.2543 -3.8001  3.7106
   57SAPC   H4Y 4241   1.079   3.352   9.817 -0.1162 -0.3379 -0.0648
   57SAPC   C35 4242   1.133   3.233   9.640 -0.1061  0.3736  0.0907
   57SAPC   H5X 4243   1.032   3.256   9.599 -0.4002  0.8871  1.0666
   57SAPC   H5Y 4244   1.175   3.136   9.607  0.9871  0.1117  2.1176
   57SAPC   C36 4245   1.219   3.338   9.565 -0.1351 -0.5152 -1.3849
   57SAPC   H6X 4246   1.323   3.317   9.599 -0.4010 -2.8028 -1.8601
   57SAPC   H6Y 4247   1.183   3.441   9.588 -0.2297 -1.1174  1.5817
   57SAPC   C37 4248   1.236   3.323   9.414  0.3109  0.1293 -0.1631
   57SAPC   H7X 4249   1.138   3.351   9.369 -0.0462 -3.2088 -1.7339
   57SAPC   H7Y 4250   1.250   3.216   9.389 -0.6651  0.0836 -0.5467
   57SAPC   C38 4251   1.340   3.418   9.354  0.5154 -0.1362  0.4567
   57SAPC   H8X 4252   1.435   3.378   9.396 -0.8711 -2.9808  1.1932
   57SAPC   H8Y 4253   1.306   3.519   9.385 -0.4059 -0.1865 -0.3578
   57SAPC   C39 4254   1.336   3.394   9.192  0.1793  0.4304 -1.3020
   57SAPC   H9X 4255   1.240   3.437   9.158 -0.6529  0.9369  1.4170
   57SAPC   H9Y 4256   1.334   3.283   9.179 -0.4775 -0.3240  3.4212
   57SAPC  C310 4257   1.446   3.467   9.117 -0.0525  0.2071  0.3626
   57SAPC  H10X 4258   1.548   3.465   9.160 -0.0476  1.1178  0.4271
   57SAPC  H10Y 4259   1.420   3.575   9.119 -1.0792 -0.0240  2.0609
   57SAPC  C311 4260   1.447   3.433   8.973  0.5877  0.1078  0.0802
   57SAPC  H11X 4261   1.355   3.480   8.933  0.6943 -0.8086 -1.3112
   57SAPC  H11Y 4262   1.439   3.323   8.957 -0.4877  0.3170 -0.9927
   57SAPC  C312 4263   1.573   3.470   8.898 -0.1601  0.4219  0.2722
   57SAPC  H12X 4264   1.668   3.427   8.937  0.9884  3.6492  1.3428
   57SAPC  H12Y 4265   1.583   3.580   8.911 -1.2504  0.6214 -0.4460
   57SAPC  C313 4266   1.555   3.443   8.742  0.0982  0.1463  0.5896
   57SAPC  H13X 4267   1.619   3.510   8.680 -1.7570  2.5096  1.1041
   57SAPC  H13Y 4268   1.453   3.484   8.725  0.1737  0.1444  0.1366
   57SAPC  C314 4269   1.573   3.295   8.699  0.7496  0.7523  0.4369
   57SAPC  H14X 4270   1.516   3.228   8.766  0.9209 -1.3712 -1.3929
   57SAPC  H14Y 4271   1.682   3.275   8.706  0.6106 -0.5844 -0.6805
   57SAPC  C315 4272   1.532   3.279   8.549 -0.1975 -0.4180 -0.2120
   57SAPC  H15X 4273   1.568   3.363   8.486  1.4430 -0.1298  1.0362
   57SAPC  H15Y 4274   1.421   3.277   8.547 -0.2664  1.3836  0.3018
   57SAPC  C316 4275   1.585   3.147   8.477  0.0386 -0.2946 -0.1508
   57SAPC  H16X 4276   1.557   3.068   8.549 -0.3397  0.9502  1.1106
   57SAPC  H16Y 4277   1.695   3.156   8.463  0.1986 -0.1602  1.0813
   57SAPC  C317 4278   1.510   3.115   8.347  0.5257  0.0948  0.4469
   57SAPC  H17X 4279   1.519   3.196   8.272  0.2609  0.8197  1.1775
   57SAPC  H17Y 4280   1.403   3.126   8.377  0.9032  0.4330  1.7220
   57SAPC  C318 4281   1.551   2.984   8.290  0.6347  0.2704  0.3367
   57SAPC  H18X 4282   1.653   2.992   8.247  0.3960  0.0867 -0.2737
   57SAPC  H18Y 4283   1.494   2.960   8.198  0.9020  0.6734  0.0587
   57SAPC  H18Z 4284   1.545   2.902   8.365 -0.5593 -1.7870 -1.8799
   58SAPC     N 4285   2.289   0.983  10.688  0.0230 -0.2144  0.9790
   58SAPC   C12 4286   2.203   1.057  10.583 -0.2511 -0.1281  0.1526
   58SAPC  H12A 4287   2.122   0.987  10.568 -1.1092  0.5142  1.6052
   58SAPC  H12B 4288   2.263   1.059  10.493  1.7937 -0.0940  1.4395
   58SAPC   C13 4289   2.220   0.991  10.817 -0.0244  0.1333 -1.1476
   58SAPC  H13A 4290   2.292   0.991  10.898  1.3830  0.1484 -2.3512
   58SAPC  H13B 4291   2.166   1.084  10.827 -0.9609 -0.3665 -1.4528
   58SAPC  H13C 4292   2.158   0.903  10.825  0.5980 -0.2752 -0.7340
   58SAPC   C14 4293   2.315   0.834  10.666 -0.1724 -0.9801  0.2207
   58SAPC  H14A 4294   2.228   0.770  10.666 -1.4095  0.4357 -3.1221
   58SAPC  H14B 4295   2.350   0.819  10.565  1.4681  0.7413  0.4764
   58SAPC  H14C 4296   2.377   0.797  10.746 -0.1594  1.0071  1.1998
   58SAPC   C15 4297   2.421   1.060  10.701  0.4179  0.2685  0.0735
   58SAPC  H15A 4298   2.469   1.059  10.604 -0.1248  1.1644 -0.2193
   58SAPC  H15B 4299   2.397   1.165  10.709 -1.1828  0.2694 -3.0028
   58SAPC  H15C 4300   2.476   1.022  10.785  0.2536 -0.6447 -0.2214
   58SAPC   C11 4301   2.144   1.194  10.619  0.2149 -0.2239  0.3632
   58SAPC  H11A 4302   2.129   1.245  10.522 -0.6871 -1.3968 -0.1451
   58SAPC  H11B 4303   2.211   1.267  10.670 -1.8713  0.5540  2.1690
   58SAPC     P 4304   1.891   1.119  10.643 -0.1986  0.3906 -0.1867
   58SAPC   O13 4305   1.881   0.971  10.649 -0.5538 -0.0371  0.3538
   58SAPC   O14 4306   1.775   1.196  10.692 -0.2521 -0.6748  0.0349
   58SAPC   O12 4307   2.030   1.173  10.707  1.1609 -0.4575 -0.1764
   58SAPC   O11 4308   1.918   1.159  10.492  0.3460  0.2518  0.1888
   58SAPC    C1 4309   1.827   1.220  10.401  0.2097 -0.2438  0.3055
   58SAPC    HA 4310   1.808   1.327  10.426  3.0586  0.6309 -0.9240
   58SAPC    HB 4311   1.882   1.236  10.306 -0.5236  1.0286  0.0611
   58SAPC    C2 4312   1.696   1.139  10.380 -0.2673 -0.2914 -0.2945
   58SAPC    HS 4313   1.632   1.158  10.469 -0.3476  0.3320 -0.4818
   58SAPC   O21 4314   1.733   0.996  10.375  0.1661  0.0820  0.1066
   58SAPC   C21 4315   1.639   0.909  10.407 -0.0992  0.0696  0.2233
   58SAPC   O22 4316   1.524   0.937  10.426  0.6528  0.3752 -0.2808
   58SAPC   C22 4317   1.699   0.767  10.405 -0.3004 -0.0427 -0.0427
   58SAPC   H2R 4318   1.784   0.764  10.333 -0.2974 -0.4663 -0.0253
   58SAPC   H2S 4319   1.735   0.742  10.507  0.5660 -0.2305 -0.3832
   58SAPC    C3 4320   1.616   1.181  10.261 -0.2260 -0.0690 -0.3628
   58SAPC    HX 4321   1.599   1.291  10.265 -1.9324 -0.2101 -2.3940
   58SAPC    HY 4322   1.524   1.130  10.295  0.2390  0.6547  2.2484
   58SAPC   O31 4323   1.665   1.143  10.126  0.4894 -0.1487  0.3366
   58SAPC   C31 4324   1.609   1.038  10.073 -0.0681  0.8728  0.0163
   58SAPC   O32 4325   1.527   0.962  10.126  0.5945 -0.5048 -0.2125
   58SAPC   C32 4326   1.658   1.029   9.926 -0.5054  0.2678  0.2049
   58SAPC   H2X 4327   1.742   0.957   9.915 -1.2096 -0.6578  0.6872
   58SAPC   H2Y 4328   1.691   1.128   9.888 -0.9677 -0.3566 -1.9287
   58SAPC   C23 4329   1.601   0.655  10.358 -0.0096  0.6573 -0.4470
   58SAPC   H3R 4330   1.497   0.671  10.394 -0.4542 -0.8883 -0.9756
   58SAPC   H3S 4331   1.632   0.558  10.402  0.0158  1.1663  0.6965
   58SAPC   C24 4332   1.590   0.639  10.210  0.0158 -0.0352 -0.0519
   58SAPC   H4R 4333   1.588   0.741  10.165  1.3331  0.0838  0.1221
   58SAPC   H4S 4334   1.488   0.596  10.201 -0.0372 -0.5778  2.4350
   58SAPC   C25 4335   1.697   0.553  10.155 -0.7072  0.5104  0.6725
   58SAPC   H5R 4336   1.764   0.503  10.227 -1.2628 -1.0951  0.1160
   58SAPC   C26 4337   1.721   0.541  10.022 -0.2758  0.1157  0.3079
   58SAPC   H6R 4338   1.797   0.468   9.990  0.1760  0.6103  0.2440
   58SAPC   C27 4339   1.631   0.608   9.921  0.3422  0.0711  0.2905
   58SAPC   H7R 4340   1.701   0.659   9.852  3.7778 -1.2106  2.5507
   58SAPC   H7S 4341   1.569   0.690   9.962 -0.8174  0.5430 -2.2386
   58SAPC   C28 4342   1.551   0.511   9.836  0.0951 -0.6340  0.4364
   58SAPC   H8R 4343   1.458   0.475   9.882 -0.2070  0.3199  0.6089
   58SAPC   C29 4344   1.590   0.462   9.714 -0.1799  0.3478  0.4986
   58SAPC   H9R 4345   1.512   0.399   9.669  0.4139  0.7048 -1.1178
   58SAPC  C210 4346   1.719   0.486   9.637 -0.1079  0.1189  0.2934
   58SAPC  H10R 4347   1.762   0.387   9.609 -2.3237 -0.7733 -0.1254
   58SAPC  H10S 4348   1.799   0.532   9.699 -0.0198  1.5404 -0.8254
   58SAPC  C211 4349   1.689   0.570   9.520  0.4053 -0.4241  0.2885
   58SAPC  H11R 4350   1.650   0.666   9.557 -2.4480 -1.5988  0.6103
   58SAPC  C212 4351   1.713   0.537   9.393  0.0484 -0.2375  0.2130
   58SAPC  H12R 4352   1.687   0.599   9.305 -0.0749 -0.9461 -0.2565
   58SAPC  C213 4353   1.764   0.404   9.342 -0.6762 -0.5277 -0.7673
   58SAPC  H13R 4354   1.740   0.324   9.416  2.9366 -1.7793 -0.7565
   58SAPC  H13S 4355   1.874   0.412   9.333 -0.3781 -0.4171  2.2249
   58SAPC  C214 4356   1.714   0.354   9.207  0.4373 -0.1813 -0.4495
   58SAPC  H14R 4357   1.626   0.289   9.224  1.6090 -1.3569  1.5340
   58SAPC  C215 4358   1.763   0.381   9.089 -0.3464 -0.2955  0.1945
   58SAPC  H15R 4359   1.719   0.330   9.003  0.5735 -2.4927  0.9518
   58SAPC  C216 4360   1.888   0.463   9.051 -0.2115 -0.6358 -0.2811
   58SAPC  H16R 4361   1.973   0.397   9.023 -2.0034 -1.6522 -3.9884
   58SAPC  H16S 4362   1.911   0.532   9.135  1.1883  0.7192 -1.7132
   58SAPC  C217 4363   1.861   0.557   8.930 -0.3205 -0.5925 -0.2095
   58SAPC  H17R 4364   1.955   0.614   8.917  0.2704 -1.6930 -0.9078
   58SAPC  H17S 4365   1.776   0.623   8.958 -1.6474 -2.6205  0.8734
   58SAPC  C218 4366   1.830   0.488   8.799 -0.6401 -0.9411 -0.1337
   58SAPC  H18R 4367   1.731   0.438   8.807 -0.4644 -1.1300  1.0825
   58SAPC  H18S 4368   1.899   0.409   8.762 -0.3174 -1.7987  2.1330
   58SAPC  C219 4369   1.803   0.599   8.687 -0.8203  0.7518 -0.0401
   58SAPC  H19R 4370   1.906   0.617   8.649 -1.5676  0.6616 -2.2631
   58SAPC  H19S 4371   1.763   0.695   8.728  0.1444  0.8440  0.7040
   58SAPC  C220 4372   1.703   0.547   8.585  0.4796  0.0214  0.5507
   58SAPC  H20R 4373   1.616   0.520   8.648  0.9789 -0.4634  1.0476
   58SAPC  H20S 4374   1.735   0.453   8.535 -0.2715  0.9454 -1.8236
   58SAPC  H20T 4375   1.680   0.622   8.506  1.7025  0.0581  0.2035
   58SAPC   C33 4376   1.551   0.976   9.832  0.1821 -0.0905  0.6824
   58SAPC   H3X 4377   1.473   1.055   9.822 -0.1228 -0.2369  1.7230
   58SAPC   H3Y 4378   1.502   0.887   9.878 -0.1012 -0.4768 -0.3345
   58SAPC   C34 4379   1.606   0.950   9.690 -0.7093  0.0403 -0.1092
   58SAPC   H4X 4380   1.558   0.861   9.644  2.0051 -0.9646 -1.1801
   58SAPC   H4Y 4381   1.710   0.914   9.704 -2.0812 -3.6964  1.9887
   58SAPC   C35 4382   1.595   1.079   9.604 -0.7005 -0.8016 -0.3894
   58SAPC   H5X 4383   1.655   1.139   9.676 -2.5956 -1.6188  1.9851
   58SAPC   H5Y 4384   1.494   1.124   9.593  0.0793  1.0497 -0.4985
   58SAPC   C36 4385   1.666   1.071   9.469  0.1512  0.3822  0.3172
   58SAPC   H6X 4386   1.655   0.973   9.419  2.5243  0.1588  0.1177
   58SAPC   H6Y 4387   1.775   1.075   9.494 -0.1695 -0.2116  1.9211
   58SAPC   C37 4388   1.613   1.173   9.367 -0.4689 -0.5069  0.2026
   58SAPC   H7X 4389   1.641   1.273   9.406 -0.2533 -0.9456  1.1973
   58SAPC   H7Y 4390   1.503   1.179   9.352 -0.4021 -1.4547 -0.7102
   58SAPC   C38 4391   1.697   1.152   9.238 -0.3337  0.8258 -0.0872
   58SAPC   H8X 4392   1.686   1.047   9.203 -1.1202 -0.2631  3.0594
   58SAPC   H8Y 4393   1.805   1.171   9.260  0.0214 -0.6046 -0.5015
   58SAPC   C39 4394   1.668   1.252   9.125 -0.6978 -0.1978  0.6597
   58SAPC   H9X 4395   1.758   1.249   9.060 -0.2681  0.1991  1.2214
   58SAPC   H9Y 4396   1.659   1.360   9.152  0.5274  0.0680  0.0853
   58SAPC  C310 4397   1.546   1.222   9.042  0.4170  0.4352 -0.1183
   58SAPC  H10X 4398   1.461   1.209   9.112  0.2817 -1.1903 -0.5379
   58SAPC  H10Y 4399   1.544   1.121   8.995 -0.3746  0.3103  0.1741
   58SAPC  C311 4400   1.514   1.315   8.926  0.6875 -0.0846 -0.2341
   58SAPC  H11X 4401   1.501   1.415   8.972 -0.7048 -1.2417  2.0704
   58SAPC  H11Y 4402   1.416   1.291   8.881  0.3014 -0.3760  0.7327
   58SAPC  C312 4403   1.627   1.333   8.818 -0.0100 -0.4624 -0.7435
   58SAPC  H12X 4404   1.724   1.355   8.869 -0.6968 -2.8682  1.8492
   58SAPC  H12Y 4405   1.594   1.417   8.753  2.2934  0.8747 -0.3130
   58SAPC  C313 4406   1.641   1.219   8.721  0.0539  0.2041  0.2542
   58SAPC  H13X 4407   1.549   1.209   8.661 -1.0389 -0.0209  1.8891
   58SAPC  H13Y 4408   1.650   1.120   8.772  3.1060 -0.0221 -0.5003
   58SAPC  C314 4409   1.754   1.245   8.619 -0.3674 -0.2216 -0.0302
   58SAPC  H14X 4410   1.854   1.214   8.658  0.0530  2.0954  0.8799
   58SAPC  H14Y 4411   1.751   1.354   8.599  1.0775  0.3744  2.5112
   58SAPC  C315 4412   1.729   1.179   8.485  0.1196  0.3013  0.2886
   58SAPC  H15X 4413   1.817   1.208   8.423  2.4586  1.3214  3.8177
   58SAPC  H15Y 4414   1.646   1.226   8.428  0.8151 -0.3930 -1.3583
   58SAPC  C316 4415   1.715   1.026   8.482 -1.1648  0.0255 -0.1704
   58SAPC  H16X 4416   1.622   0.994   8.534 -1.0846  0.0407 -0.0145
   58SAPC  H16Y 4417   1.798   0.979   8.538  0.0656  0.6587 -1.4157
   58SAPC  C317 4418   1.714   0.961   8.346 -0.1896  0.0050 -0.1718
   58SAPC  H17X 4419   1.625   0.988   8.287  0.6739  0.6461 -1.2166
   58SAPC  H17Y 4420   1.706   0.851   8.361 -0.5633 -0.4520 -3.1460
   58SAPC  C318 4421   1.829   0.982   8.246  0.0432  0.3624  0.2265
   58SAPC  H18X 4422   1.800   0.939   8.147 -0.9226  1.1851  0.1327
   58SAPC  H18Y 4423   1.934   0.954   8.269  0.4293 -1.3167 -2.9590
   58SAPC  H18Z 4424   1.831   1.092   8.231  1.2214  0.4739  1.0820
   59SAPC     N 4425   4.534   2.913  11.127  0.4882 -0.0961 -0.0572
   59SAPC   C12 4426   4.525   2.883  10.976  0.1086  0.0683 -0.2352
   59SAPC  H12A 4427   4.507   2.979  10.929 -0.2936 -0.4263 -1.1114
   59SAPC  H12B 4428   4.436   2.824  10.963  0.6858 -0.6824 -0.8410
   59SAPC   C13 4429   4.533   2.783  11.205 -0.6421  0.0337  0.4943
   59SAPC  H13A 4430   4.530   2.791  11.312  0.6411 -1.7492  0.7146
   59SAPC  H13B 4431   4.449   2.720  11.181  1.1365 -2.3790  0.2731
   59SAPC  H13C 4432   4.623   2.728  11.184  0.7929  1.6016  2.1609
   59SAPC   C14 4433   4.652   2.992  11.156 -0.1658  0.3514 -0.1684
   59SAPC  H14A 4434   4.739   2.938  11.121 -0.2747  0.4709 -0.6300
   59SAPC  H14B 4435   4.657   3.076  11.089  1.4001  0.2967 -0.1556
   59SAPC  H14C 4436   4.663   3.017  11.260 -0.0367 -0.6821  0.0822
   59SAPC   C15 4437   4.417   2.994  11.174 -0.1596 -0.6748  0.2000
   59SAPC  H15A 4438   4.330   2.932  11.155 -0.5165 -0.2934  0.5777
   59SAPC  H15B 4439   4.411   3.012  11.280 -2.5323 -0.9202  0.1557
   59SAPC  H15C 4440   4.415   3.089  11.123 -0.1782 -0.2328  1.0108
   59SAPC   C11 4441   4.643   2.806  10.911  0.1226 -0.0870  0.9335
   59SAPC  H11A 4442   4.737   2.863  10.931 -0.7100  2.2864 -1.3576
   59SAPC  H11B 4443   4.639   2.792  10.801 -0.1609  0.5945  0.8470
   59SAPC     P 4444   4.598   2.545  10.907  0.0135 -0.1133 -0.1679
   59SAPC   O13 4445   4.624   2.444  11.009  0.7233  0.4240  0.1805
   59SAPC   O14 4446   4.456   2.556  10.858 -0.9313  0.7776  0.7196
   59SAPC   O12 4447   4.657   2.680  10.959 -0.5444  0.5654 -0.1723
   59SAPC   O11 4448   4.691   2.514  10.783 -0.2353 -0.9293 -0.9198
   59SAPC    C1 4449   4.680   2.383  10.721 -0.0819  0.3549  0.1006
   59SAPC    HA 4450   4.753   2.318  10.772  2.0918  2.1571 -0.5283
   59SAPC    HB 4451   4.577   2.342  10.723  0.0567 -0.3866 -2.9344
   59SAPC    C2 4452   4.704   2.402  10.573  0.2251 -0.3020  0.2389
   59SAPC    HS 4453   4.686   2.301  10.531  0.9239 -0.7121  0.8825
   59SAPC   O21 4454   4.838   2.441  10.555 -0.0131 -0.2795 -1.1290
   59SAPC   C21 4455   4.929   2.341  10.569  0.6686 -0.8267 -0.2617
   59SAPC   O22 4456   4.903   2.225  10.598 -0.1291  0.2908  0.0755
   59SAPC   C22 4457   5.066   2.399  10.533  0.0715 -0.3025  0.5331
   59SAPC   H2R 4458   5.051   2.494  10.478 -0.8180  0.4896  2.0887
   59SAPC   H2S 4459   5.114   2.419  10.631  0.7232 -3.4338  0.9653
   59SAPC    C3 4460   4.605   2.500  10.504 -0.1805  0.0061 -0.3581
   59SAPC    HX 4461   4.626   2.599  10.550  4.3675 -1.2989  0.8662
   59SAPC    HY 4462   4.503   2.480  10.545  0.6450 -1.0144  1.2692
   59SAPC   O31 4463   4.615   2.499  10.363 -0.3955  0.0125  0.3024
   59SAPC   C31 4464   4.576   2.397  10.292  0.6693  0.5901 -0.4480
   59SAPC   O32 4465   4.516   2.301  10.342  0.5241  0.2760  0.6148
   59SAPC   C32 4466   4.621   2.405  10.150 -0.4059  0.4090 -0.5338
   59SAPC   H2X 4467   4.730   2.424  10.161 -0.1945 -0.8455 -0.3286
   59SAPC   H2Y 4468   4.565   2.490  10.104  0.6319  0.4706 -1.7207
   59SAPC   C23 4469   5.149   2.286  10.478 -0.2772 -0.4011  1.3751
   59SAPC   H3R 4470   5.159   2.200  10.548 -0.1521 -1.7297 -0.2061
   59SAPC   H3S 4471   5.249   2.323  10.447 -1.2574  2.2535  1.1313
   59SAPC   C24 4472   5.105   2.229  10.338 -0.8007 -0.4197 -0.2802
   59SAPC   H4R 4473   5.011   2.173  10.357  0.2640 -2.0658  0.2935
   59SAPC   H4S 4474   5.175   2.145  10.320 -0.4686 -0.5254  1.3332
   59SAPC   C25 4475   5.093   2.335  10.231  0.2802  1.1462 -0.2388
   59SAPC   H5R 4476   5.054   2.434  10.258 -1.8441  0.1469  0.6808
   59SAPC   C26 4477   5.123   2.318  10.103 -0.1320  0.3236  0.0736
   59SAPC   H6R 4478   5.116   2.410  10.043 -2.5187 -0.7341 -1.4492
   59SAPC   C27 4479   5.166   2.190  10.037  0.2370 -0.0912 -0.8896
   59SAPC   H7R 4480   5.245   2.132  10.089 -1.2766 -0.3337  1.3039
   59SAPC   H7S 4481   5.227   2.213   9.947 -0.3423 -0.4075 -1.3664
   59SAPC   C28 4482   5.055   2.097   9.994  0.3118  0.0054 -0.1521
   59SAPC   H8R 4483   4.960   2.110  10.047  0.5374 -0.0440  0.2701
   59SAPC   C29 4484   5.057   1.995   9.905 -0.4338 -0.5168  0.8846
   59SAPC   H9R 4485   4.967   1.934   9.890 -0.7526 -0.0202  0.7521
   59SAPC  C210 4486   5.176   1.947   9.824 -0.9855  0.1116  0.1151
   59SAPC  H10R 4487   5.216   1.851   9.864  1.6391  0.8675 -0.4758
   59SAPC  H10S 4488   5.257   2.021   9.843 -1.5712  0.4387  1.4340
   59SAPC  C211 4489   5.140   1.924   9.680 -0.7396 -0.5460 -0.0378
   59SAPC  H11R 4490   5.103   1.824   9.651  2.2442 -1.5308 -0.8468
   59SAPC  C212 4491   5.140   2.007   9.579 -0.1864 -0.2414 -0.6112
   59SAPC  H12R 4492   5.116   1.974   9.477 -0.3000  0.3758 -0.7913
   59SAPC  C213 4493   5.187   2.149   9.592  0.3587 -0.1605 -0.1101
   59SAPC  H13R 4494   5.253   2.162   9.680  1.1147 -0.9943 -0.5342
   59SAPC  H13S 4495   5.102   2.217   9.615  0.6825 -0.6323  2.9411
   59SAPC  C214 4496   5.250   2.211   9.473 -0.7570  0.4497  0.6045
   59SAPC  H14R 4497   5.359   2.212   9.488 -0.8750 -1.0551  1.8571
   59SAPC  C215 4498   5.199   2.255   9.357  0.0414 -0.1411  0.1306
   59SAPC  H15R 4499   5.271   2.296   9.284 -0.4767 -0.0173 -0.3181
   59SAPC  C216 4500   5.049   2.269   9.328 -0.5432 -0.5165 -0.1126
   59SAPC  H16R 4501   5.011   2.371   9.347 -0.6329 -0.0018 -2.6248
   59SAPC  H16S 4502   4.989   2.195   9.386 -1.3939  1.4091  1.5646
   59SAPC  C217 4503   5.016   2.247   9.175  0.8247 -0.4263 -0.1147
   59SAPC  H17R 4504   4.905   2.250   9.163  0.9280 -0.2513 -1.0258
   59SAPC  H17S 4505   5.051   2.148   9.139 -2.3460 -0.9299 -2.2688
   59SAPC  C218 4506   5.082   2.360   9.094  0.5111 -0.1908 -0.8349
   59SAPC  H18R 4507   5.185   2.379   9.131 -0.6612  0.8537  2.2210
   59SAPC  H18S 4508   5.030   2.454   9.125  0.7217 -0.3402 -0.0148
   59SAPC  C219 4509   5.070   2.335   8.943  0.2357 -0.6301  0.8817
   59SAPC  H19R 4510   4.966   2.304   8.924  0.3907  0.5885 -2.7685
   59SAPC  H19S 4511   5.151   2.271   8.901 -0.4003 -0.9489  0.1338
   59SAPC  C220 4512   5.085   2.474   8.871  0.5588 -0.3867 -0.3069
   59SAPC  H20R 4513   5.024   2.558   8.912 -2.8928 -2.3800 -0.9735
   59SAPC  H20S 4514   5.053   2.465   8.765 -0.3786 -0.5592 -0.0179
   59SAPC  H20T 4515   5.191   2.506   8.883  1.1561 -2.4965  0.4137
   59SAPC   C33 4516   4.608   2.286  10.055 -0.1876  0.4546 -0.4119
   59SAPC   H3X 4517   4.497   2.279  10.045 -0.3470  0.9016  0.8856
   59SAPC   H3Y 4518   4.651   2.190  10.091 -1.3520 -1.1702 -3.0434
   59SAPC   C34 4519   4.674   2.316   9.921  0.1298  0.5863  0.0583
   59SAPC   H4X 4520   4.778   2.330   9.956  0.3591 -1.3990  0.2966
   59SAPC   H4Y 4521   4.635   2.410   9.877 -1.0468  0.1751  0.1806
   59SAPC   C35 4522   4.669   2.186   9.826 -0.5301 -0.8893 -0.2383
   59SAPC   H5X 4523   4.572   2.134   9.839  0.1011 -1.6399  1.8552
   59SAPC   H5Y 4524   4.748   2.116   9.861  0.0982  0.4905  1.2205
   59SAPC   C36 4525   4.687   2.231   9.678  0.3065 -0.4070 -0.2775
   59SAPC   H6X 4526   4.794   2.261   9.665  0.2004  0.6191  1.0025
   59SAPC   H6Y 4527   4.615   2.313   9.659 -1.3744 -1.5235  1.0257
   59SAPC   C37 4528   4.665   2.113   9.585 -0.5705  0.5039  0.1026
   59SAPC   H7X 4529   4.637   2.160   9.488 -3.9680 -0.5106  0.4539
   59SAPC   H7Y 4530   4.587   2.038   9.607 -0.3357 -0.5358 -2.2676
   59SAPC   C38 4531   4.791   2.021   9.587  0.5595 -0.4396  0.4578
   59SAPC   H8X 4532   4.788   1.972   9.687  0.2597 -0.6480  0.3463
   59SAPC   H8Y 4533   4.883   2.080   9.567  0.6590 -0.7453  0.0164
   59SAPC   C39 4534   4.782   1.907   9.483  0.3202  0.8589  0.6132
   59SAPC   H9X 4535   4.684   1.857   9.497  0.9018 -0.5382 -0.1946
   59SAPC   H9Y 4536   4.863   1.834   9.503  0.9569  0.6901 -2.2370
   59SAPC  C310 4537   4.790   1.956   9.335 -0.0924 -0.3658 -0.2444
   59SAPC  H10X 4538   4.878   2.023   9.337 -0.6663  0.4386  2.6780
   59SAPC  H10Y 4539   4.702   2.020   9.311 -0.5889 -0.7347  0.5717
   59SAPC  C311 4540   4.794   1.843   9.231 -1.0268  0.3095 -0.7994
   59SAPC  H11X 4541   4.701   1.808   9.182 -0.3664 -1.8534 -0.6029
   59SAPC  H11Y 4542   4.848   1.759   9.279 -2.6927  1.0215  2.6420
   59SAPC  C312 4543   4.876   1.896   9.119 -0.8168 -0.6734  0.1857
   59SAPC  H12X 4544   4.983   1.918   9.136 -0.5568 -0.7287 -1.2125
   59SAPC  H12Y 4545   4.836   1.993   9.083  0.6080 -0.2286 -0.2722
   59SAPC  C313 4546   4.891   1.791   9.013 -0.2049  0.2956 -0.3238
   59SAPC  H13X 4547   4.808   1.798   8.940  1.1535 -1.7351 -2.2039
   59SAPC  H13Y 4548   4.882   1.688   9.052 -1.0257  0.7488  0.7282
   59SAPC  C314 4549   5.017   1.791   8.931  0.4962  0.1643 -0.2916
   59SAPC  H14X 4550   5.101   1.784   9.003  0.6932  1.8317 -0.3092
   59SAPC  H14Y 4551   5.019   1.896   8.896 -3.8824  0.0430 -1.4868
   59SAPC  C315 4552   5.036   1.684   8.821  0.1730  0.6106  0.3301
   59SAPC  H15X 4553   5.011   1.585   8.865  2.4237  0.7019  1.9811
   59SAPC  H15Y 4554   5.146   1.685   8.809 -0.0077  1.3794 -1.4289
   59SAPC  C316 4555   4.967   1.707   8.692  0.3903 -0.1064  1.3925
   59SAPC  H16X 4556   5.024   1.672   8.603  0.3689  0.5259  1.1229
   59SAPC  H16Y 4557   4.962   1.818   8.687 -1.7657 -0.1605  1.4351
   59SAPC  C317 4558   4.829   1.636   8.695 -0.6936 -0.3819 -0.9842
   59SAPC  H17X 4559   4.766   1.684   8.617 -2.1372  2.4225  1.6783
   59SAPC  H17Y 4560   4.777   1.651   8.792  2.2822 -1.2430  0.8494
   59SAPC  C318 4561   4.837   1.479   8.674 -0.0525 -0.4051 -0.6793
   59SAPC  H18X 4562   4.860   1.457   8.567  0.0842 -1.2430 -0.4897
   59SAPC  H18Y 4563   4.735   1.437   8.689 -1.1103  2.6090  1.4947
   59SAPC  H18Z 4564   4.909   1.438   8.747  0.9207  1.9626 -0.2284
   60SAPC     N 4565   5.405   0.378  11.193  0.3325  0.1510 -0.4822
   60SAPC   C12 4566   5.429   0.240  11.145 -0.6193  0.2212  0.0879
   60SAPC  H12A 4567   5.339   0.182  11.145 -0.6650  0.2876  0.5639
   60SAPC  H12B 4568   5.489   0.194  11.222  0.5687  1.9869  0.2745
   60SAPC   C13 4569   5.309   0.366  11.313 -0.1885  0.4103  0.1986
   60SAPC  H13A 4570   5.356   0.320  11.399  1.7013 -0.0440 -1.0441
   60SAPC  H13B 4571   5.268   0.460  11.349  0.5963 -0.1605  2.7631
   60SAPC  H13C 4572   5.224   0.308  11.280 -0.4553  1.1284 -0.4117
   60SAPC   C14 4573   5.530   0.449  11.228 -0.9282 -0.0595  0.9692
   60SAPC  H14A 4574   5.585   0.474  11.139 -1.8317  0.4884  0.5540
   60SAPC  H14B 4575   5.517   0.541  11.284  0.2082  0.5346  0.2846
   60SAPC  H14C 4576   5.591   0.382  11.287 -0.1999 -1.0161 -0.7990
   60SAPC   C15 4577   5.333   0.461  11.099  0.0380 -0.3125 -0.4104
   60SAPC  H15A 4578   5.375   0.497  11.007 -0.7330  1.4315 -0.1186
   60SAPC  H15B 4579   5.243   0.410  11.067 -1.1737  1.5992 -0.2009
   60SAPC  H15C 4580   5.300   0.552  11.147  0.4930 -0.8223  0.9327
   60SAPC   C11 4581   5.485   0.213  10.998  0.2945  0.6648 -0.0667
   60SAPC  H11A 4582   5.426   0.261  10.917 -1.7484 -0.9648  0.3600
   60SAPC  H11B 4583   5.465   0.105  10.980  2.5564  0.0252  0.8661
   60SAPC     P 4584   5.691   0.341  10.889 -0.1878 -0.3215  0.0143
   60SAPC   O13 4585   5.635   0.474  10.908  0.4101  0.2581 -0.5900
   60SAPC   O14 4586   5.837   0.335  10.912 -0.8077  0.0240  0.1351
   60SAPC   O12 4587   5.622   0.244  10.988  0.4148 -0.4702 -0.1801
   60SAPC   O11 4588   5.659   0.279  10.751 -0.5715  0.1825 -0.2630
   60SAPC    C1 4589   5.545   0.319  10.672  0.1816  0.3991 -0.0669
   60SAPC    HA 4590   5.460   0.255  10.706  0.4804  1.1503  2.2805
   60SAPC    HB 4591   5.524   0.428  10.679  0.4517  0.5977 -1.8727
   60SAPC    C2 4592   5.568   0.276  10.528  0.1102 -0.3621  0.9703
   60SAPC    HS 4593   5.604   0.171  10.537  0.4062 -0.4445 -0.8061
   60SAPC   O21 4594   5.670   0.362  10.464  0.0878  0.6070 -0.0934
   60SAPC   C21 4595   5.751   0.306  10.374 -0.2643  0.1919  0.3693
   60SAPC   O22 4596   5.770   0.186  10.372  0.3502 -0.8336  0.7816
   60SAPC   C22 4597   5.823   0.406  10.289  0.7462 -0.0813  0.0124
   60SAPC   H2R 4598   5.744   0.481  10.270  0.6305  0.6856  3.0425
   60SAPC   H2S 4599   5.894   0.456  10.358  0.6805 -3.0651  2.4173
   60SAPC    C3 4600   5.428   0.283  10.450  0.1189 -0.3751 -0.5393
   60SAPC    HX 4601   5.395   0.389  10.463 -0.0544 -0.4408 -0.4461
   60SAPC    HY 4602   5.354   0.215  10.498  1.7907 -0.3632  2.2913
   60SAPC   O31 4603   5.452   0.241  10.312  0.0931 -0.4191 -0.0274
   60SAPC   C31 4604   5.367   0.294  10.228  0.0147  1.0950  0.2019
   60SAPC   O32 4605   5.271   0.362  10.255  0.1573 -0.3590 -0.0663
   60SAPC   C32 4606   5.400   0.240  10.084 -0.5451  0.7511 -0.1870
   60SAPC   H2X 4607   5.353   0.139  10.084 -1.2339  1.0576  0.5981
   60SAPC   H2Y 4608   5.510   0.231  10.072 -0.3622  2.7995 -0.4250
   60SAPC   C23 4609   5.888   0.361  10.157 -0.8456 -0.0161 -0.5593
   60SAPC   H3R 4610   5.813   0.310  10.093  0.4637 -0.8921 -1.4542
   60SAPC   H3S 4611   5.966   0.283  10.173  2.3302  2.7916 -1.0157
   60SAPC   C24 4612   5.955   0.477  10.089  0.6784  0.0403 -0.4669
   60SAPC   H4R 4613   6.026   0.443  10.011 -0.8876 -1.9382 -1.1289
   60SAPC   H4S 4614   6.018   0.529  10.164 -1.4320  1.7086  0.2693
   60SAPC   C25 4615   5.853   0.567  10.031  0.2365  0.0020  0.1861
   60SAPC   H5R 4616   5.840   0.660  10.089 -2.1921  0.2643 -0.6786
   60SAPC   C26 4617   5.782   0.551   9.914 -0.1451 -0.2144  0.0019
   60SAPC   H6R 4618   5.725   0.639   9.880 -0.9232 -0.3674  0.8799
   60SAPC   C27 4619   5.783   0.439   9.816 -0.0290  0.3928  0.4574
   60SAPC   H7R 4620   5.784   0.338   9.864 -1.2532  0.4281  0.5669
   60SAPC   H7S 4621   5.884   0.449   9.771  0.0105 -0.1986  0.3991
   60SAPC   C28 4622   5.684   0.432   9.706  0.0846 -0.4395 -0.0629
   60SAPC   H8R 4623   5.583   0.402   9.736 -1.0812  0.2557 -2.9785
   60SAPC   C29 4624   5.703   0.450   9.573 -0.1899 -0.4503  1.0989
   60SAPC   H9R 4625   5.621   0.429   9.502  1.3979  0.3274 -1.0663
   60SAPC  C210 4626   5.836   0.479   9.509  0.5867 -1.1312  0.0742
   60SAPC  H10R 4627   5.902   0.542   9.573  1.7495 -0.3650 -1.8098
   60SAPC  H10S 4628   5.821   0.549   9.423  1.9159 -1.9632 -0.8647
   60SAPC  C211 4629   5.908   0.358   9.454 -0.3725 -0.0043  0.1136
   60SAPC  H11R 4630   5.987   0.320   9.521 -0.2427 -0.5918 -0.3585
   60SAPC  C212 4631   5.907   0.314   9.326 -0.1452  0.1337  0.2570
   60SAPC  H12R 4632   5.957   0.219   9.303  0.9767  0.7142  0.2743
   60SAPC  C213 4633   5.826   0.375   9.219  0.0619  0.3091 -0.4491
   60SAPC  H13R 4634   5.816   0.485   9.234  0.7487  0.1765  1.2403
   60SAPC  H13S 4635   5.730   0.321   9.225  1.8625 -3.1761 -0.4141
   60SAPC  C214 4636   5.890   0.374   9.085 -0.4796  0.3488 -0.3825
   60SAPC  H14R 4637   5.999   0.356   9.083 -0.5463 -0.1429  0.3909
   60SAPC  C215 4638   5.831   0.381   8.963  0.2294  0.2386  0.7787
   60SAPC  H15R 4639   5.887   0.361   8.870 -1.3178  1.3435 -0.4343
   60SAPC  C216 4640   5.681   0.414   8.953 -0.2214 -0.3400  0.3498
   60SAPC  H16R 4641   5.668   0.513   8.905 -1.7856 -0.2120  0.9838
   60SAPC  H16S 4642   5.647   0.431   9.057 -0.9539  2.3098 -0.2579
   60SAPC  C217 4643   5.599   0.317   8.871  1.2666  0.0069  0.6310
   60SAPC  H17R 4644   5.621   0.210   8.889 -4.1930 -1.4823  0.2247
   60SAPC  H17S 4645   5.611   0.342   8.763  0.0866 -1.9729 -0.0232
   60SAPC  C218 4646   5.452   0.341   8.894 -0.8900 -0.0103  0.8989
   60SAPC  H18R 4647   5.418   0.429   8.836 -1.8220 -1.6479 -1.1747
   60SAPC  H18S 4648   5.410   0.334   8.997 -2.0252 -0.5501  0.4155
   60SAPC  C219 4649   5.369   0.226   8.841 -0.7212 -0.4158 -1.1591
   60SAPC  H19R 4650   5.390   0.143   8.912  0.4908  0.6663 -0.2030
   60SAPC  H19S 4651   5.401   0.199   8.738 -2.4001 -0.3439 -1.7248
   60SAPC  C220 4652   5.221   0.238   8.853 -0.4910  0.2709  0.7921
   60SAPC  H20R 4653   5.187   0.134   8.835  0.0436 -0.0047  1.3516
   60SAPC  H20S 4654   5.179   0.305   8.775 -0.0350  0.0997  0.3979
   60SAPC  H20T 4655   5.195   0.277   8.954  3.3771  1.4343  1.4890
   60SAPC   C33 4656   5.333   0.317   9.968 -0.3035 -0.3175 -0.6099
   60SAPC   H3X 4657   5.362   0.424   9.975 -0.9338 -0.2460  1.3637
   60SAPC   H3Y 4658   5.225   0.295   9.979  0.2367 -2.6999  0.6207
   60SAPC   C34 4659   5.379   0.243   9.841 -0.1640 -0.0305  0.1466
   60SAPC   H4X 4660   5.324   0.146   9.840  0.3240 -0.3059 -0.0600
   60SAPC   H4Y 4661   5.489   0.238   9.830 -0.2279  0.9039 -1.1425
   60SAPC   C35 4662   5.324   0.314   9.715  0.4983  0.6031 -0.6048
   60SAPC   H5X 4663   5.352   0.422   9.714 -1.5101  1.1783  0.2765
   60SAPC   H5Y 4664   5.213   0.316   9.720  0.5583  1.3281  0.8511
   60SAPC   C36 4665   5.374   0.231   9.598  0.1717  0.1243  0.3620
   60SAPC   H6X 4666   5.319   0.134   9.596 -0.3303  0.3836  1.5180
   60SAPC   H6Y 4667   5.478   0.206   9.628  0.1450  0.5881  0.8504
   60SAPC   C37 4668   5.356   0.307   9.465 -1.2588  0.5431 -0.1390
   60SAPC   H7X 4669   5.388   0.413   9.478 -0.2329  0.1494  0.6480
   60SAPC   H7Y 4670   5.251   0.313   9.430 -0.4951  0.1588 -2.7362
   60SAPC   C38 4671   5.442   0.239   9.355 -0.1039 -0.4321 -0.2828
   60SAPC   H8X 4672   5.540   0.229   9.407 -0.5632 -1.1325  0.4683
   60SAPC   H8Y 4673   5.455   0.300   9.263  0.3664  0.3975  0.3153
   60SAPC   C39 4674   5.404   0.099   9.323 -0.7701  0.0585 -0.9691
   60SAPC   H9X 4675   5.296   0.106   9.302 -0.4425 -0.4887 -3.1002
   60SAPC   H9Y 4676   5.419   0.039   9.416 -0.3503  1.3368 -0.1871
   60SAPC  C310 4677   5.490   0.035   9.211 -0.0258  0.0657 -0.8959
   60SAPC  H10X 4678   5.581  -0.018   9.247 -0.7054 -0.1854  0.5054
   60SAPC  H10Y 4679   5.503   0.120   9.140  3.1734  0.4327 -0.0373
   60SAPC  C311 4680   5.408  -0.074   9.136  0.0335  0.4172  0.7546
   60SAPC  H11X 4681   5.324  -0.027   9.079  1.6749 -0.0097 -2.2430
   60SAPC  H11Y 4682   5.362  -0.138   9.214  2.3431 -0.7674  1.2038
   60SAPC  C312 4683   5.494  -0.176   9.060 -0.4609 -0.4334 -0.4283
   60SAPC  H12X 4684   5.554  -0.238   9.130  1.7306  0.3020 -1.5630
   60SAPC  H12Y 4685   5.562  -0.112   9.000 -0.2120  0.3379  0.6390
   60SAPC  C313 4686   5.415  -0.264   8.962 -0.1182 -0.4750  0.8916
   60SAPC  H13X 4687   5.322  -0.301   9.010  0.3017 -0.8650  1.4098
   60SAPC  H13Y 4688   5.473  -0.358   8.952 -1.5422 -1.3379  0.4178
   60SAPC  C314 4689   5.371  -0.206   8.829  0.2734  0.3317  0.2689
   60SAPC  H14X 4690   5.456  -0.195   8.759 -2.1795  0.6432 -2.9413
   60SAPC  H14Y 4691   5.329  -0.106   8.853 -1.0458 -0.2938  0.6925
   60SAPC  C315 4692   5.267  -0.284   8.747  0.4256  0.2457 -0.1093
   60SAPC  H15X 4693   5.182  -0.310   8.814  0.5479 -0.1213 -0.0977
   60SAPC  H15Y 4694   5.314  -0.377   8.709  0.2348 -0.1726  0.6653
   60SAPC  C316 4695   5.216  -0.197   8.638 -0.3725  0.0599 -0.0369
   60SAPC  H16X 4696   5.299  -0.170   8.569  0.0373 -1.6144 -0.2509
   60SAPC  H16Y 4697   5.167  -0.105   8.676 -0.0836  0.1350  0.1582
   60SAPC  C317 4698   5.127  -0.283   8.543  0.1260 -0.7265  0.5776
   60SAPC  H17X 4699   5.057  -0.206   8.503  0.3426 -0.6900  0.2703
   60SAPC  H17Y 4700   5.068  -0.356   8.603  0.8319  0.2409  2.5587
   60SAPC  C318 4701   5.189  -0.359   8.419  0.1176  0.6252 -0.5540
   60SAPC  H18X 4702   5.288  -0.399   8.449 -1.3185 -2.3506  0.6766
   60SAPC  H18Y 4703   5.210  -0.286   8.338  0.8602  0.4267 -0.5457
   60SAPC  H18Z 4704   5.119  -0.440   8.389  0.0623  0.0054  1.1217
   61SAPC     N 4705   6.731   0.199  11.334  0.1583 -0.4409 -0.1071
   61SAPC   C12 4706   6.728   0.080  11.250 -0.4512 -0.3223  0.4354
   61SAPC  H12A 4707   6.626   0.046  11.249 -1.3819  2.1952  2.1091
   61SAPC  H12B 4708   6.779   0.003  11.306 -0.2610  0.5803  1.5185
   61SAPC   C13 4709   6.677   0.159  11.473  0.0030  0.1311 -0.4360
   61SAPC  H13A 4710   6.575   0.124  11.464 -0.7858  1.5960  1.7370
   61SAPC  H13B 4711   6.737   0.090  11.530 -2.3947 -0.5197  1.4770
   61SAPC  H13C 4712   6.657   0.245  11.535 -2.8345  0.0917 -1.1287
   61SAPC   C14 4713   6.863   0.263  11.348  0.1805  0.0228 -0.1142
   61SAPC  H14A 4714   6.940   0.197  11.386  0.3060 -0.4148 -1.0821
   61SAPC  H14B 4715   6.900   0.307  11.256 -1.4582  0.2752 -0.6881
   61SAPC  H14C 4716   6.856   0.339  11.424 -0.3187  1.0883 -1.1990
   61SAPC   C15 4717   6.634   0.299  11.288  0.8380  0.2223  0.0422
   61SAPC  H15A 4718   6.657   0.351  11.197 -2.1098 -0.8704 -1.4624
   61SAPC  H15B 4719   6.551   0.236  11.258 -0.0945  1.1434  0.6180
   61SAPC  H15C 4720   6.604   0.367  11.366 -0.6507  0.4510 -0.6920
   61SAPC   C11 4721   6.785   0.083  11.107 -0.2869 -0.3207 -0.3928
   61SAPC  H11A 4722   6.790  -0.015  11.056 -0.2105 -0.4306 -0.1754
   61SAPC  H11B 4723   6.890   0.118  11.113 -0.3658  0.4891 -2.7252
   61SAPC     P 4724   6.585   0.141  10.944 -0.5144 -0.1091 -0.1967
   61SAPC   O13 4725   6.482   0.090  11.036  1.0492 -0.2974  0.3883
   61SAPC   O14 4726   6.556   0.251  10.855  0.2403 -0.0908 -0.5624
   61SAPC   O12 4727   6.714   0.183  11.037  0.5016 -0.3554  0.2152
   61SAPC   O11 4728   6.645   0.027  10.858 -0.0865  0.9556 -0.4079
   61SAPC    C1 4729   6.756   0.053  10.766  0.6413 -0.3072  0.2829
   61SAPC    HA 4730   6.774   0.160  10.740 -0.2960 -0.1315  0.3462
   61SAPC    HB 4731   6.853   0.031  10.816  1.4174  1.0610 -0.5359
   61SAPC    C2 4732   6.762  -0.022  10.628  0.3707 -0.0980  0.7146
   61SAPC    HS 4733   6.747  -0.129  10.653  0.1590 -0.2970 -0.2318
   61SAPC   O21 4734   6.880   0.014  10.554 -0.1379 -0.2939 -0.4104
   61SAPC   C21 4735   6.927  -0.082  10.470  0.1924 -0.3357 -0.1880
   61SAPC   O22 4736   6.879  -0.190  10.461 -0.6217  0.4572  0.7284
   61SAPC   C22 4737   7.051  -0.027  10.403  0.1376  0.6405  0.1937
   61SAPC   H2R 4738   7.025   0.056  10.335  1.0779  0.0930 -0.8623
   61SAPC   H2S 4739   7.135  -0.012  10.474 -2.2253 -0.2842  3.4245
   61SAPC    C3 4740   6.641   0.004  10.528  0.5766  0.2511  1.2603
   61SAPC    HX 4741   6.656   0.112  10.508  1.3125  0.0438  0.6675
   61SAPC    HY 4742   6.555  -0.007  10.597 -0.0733 -0.8228  0.3128
   61SAPC   O31 4743   6.626  -0.075  10.408 -0.1612 -0.1337  0.1693
   61SAPC   C31 4744   6.583  -0.199  10.442 -0.3525  1.0003  0.1087
   61SAPC   O32 4745   6.553  -0.241  10.552 -0.1952  0.6427 -0.4933
   61SAPC   C32 4746   6.574  -0.282  10.311 -0.6530 -0.2626  0.1263
   61SAPC   H2X 4747   6.679  -0.316  10.294 -0.8673 -0.8525 -0.0236
   61SAPC   H2Y 4748   6.549  -0.215  10.226  1.5008  1.4635  0.7331
   61SAPC   C23 4749   7.103  -0.125  10.290  0.7894  0.4117  0.2028
   61SAPC   H3R 4750   7.015  -0.145  10.226  0.3354 -0.7250  1.1469
   61SAPC   H3S 4751   7.140  -0.217  10.342  2.8928  0.1704 -1.5839
   61SAPC   C24 4752   7.210  -0.068  10.189  0.3443 -0.5711 -0.0278
   61SAPC   H4R 4753   7.222  -0.150  10.114  1.4485  0.0862 -0.5998
   61SAPC   H4S 4754   7.307  -0.058  10.242  0.1634 -0.5080  0.2944
   61SAPC   C25 4755   7.172   0.057  10.115  0.5669 -0.8776 -0.6616
   61SAPC   H5R 4756   7.167   0.153  10.167 -1.4894 -1.0932 -0.3847
   61SAPC   C26 4757   7.130   0.061   9.985  0.4893  0.2752 -0.5860
   61SAPC   H6R 4758   7.115   0.161   9.943  0.4207  0.9741  1.0301
   61SAPC   C27 4759   7.106  -0.061   9.893 -0.0061  0.5246 -0.3535
   61SAPC   H7R 4760   7.025  -0.126   9.933  1.8038 -0.9714  1.1032
   61SAPC   H7S 4761   7.196  -0.124   9.875  0.4777  1.5652 -1.7010
   61SAPC   C28 4762   7.069  -0.013   9.755 -0.6539 -0.3795 -0.4074
   61SAPC   H8R 4763   7.036   0.091   9.743  0.1168 -0.1379 -0.5006
   61SAPC   C29 4764   7.089  -0.077   9.638 -0.0274  0.0411  0.2988
   61SAPC   H9R 4765   7.061  -0.027   9.544  0.6338 -0.0513  0.0502
   61SAPC  C210 4766   7.140  -0.216   9.622  0.0817 -0.3729 -0.1973
   61SAPC  H10R 4767   7.055  -0.278   9.586  0.4524 -0.3440 -1.1321
   61SAPC  H10S 4768   7.178  -0.274   9.708  0.3349  1.2584  0.8387
   61SAPC  C211 4769   7.249  -0.225   9.517  0.4678  0.1668 -0.3315
   61SAPC  H11R 4770   7.347  -0.240   9.564 -0.2281  1.0433  1.4755
   61SAPC  C212 4771   7.233  -0.211   9.380  0.3602  0.7299 -0.1100
   61SAPC  H12R 4772   7.325  -0.225   9.322  0.2181 -0.6547 -0.0327
   61SAPC  C213 4773   7.108  -0.191   9.302  0.1648  0.0678 -0.6356
   61SAPC  H13R 4774   7.033  -0.144   9.369  0.7660  1.6766 -1.0400
   61SAPC  H13S 4775   7.065  -0.291   9.278  1.7060 -1.1685  1.4345
   61SAPC  C214 4776   7.133  -0.105   9.184 -1.2080 -0.5282  0.8234
   61SAPC  H14R 4777   7.162  -0.000   9.199  3.5336 -1.1025 -2.1045
   61SAPC  C215 4778   7.152  -0.136   9.055  0.6173  0.2783 -0.0375
   61SAPC  H15R 4779   7.156  -0.054   8.982 -1.0468 -0.1539 -0.6467
   61SAPC  C216 4780   7.133  -0.275   8.998  0.1209  0.0845  0.2646
   61SAPC  H16R 4781   7.158  -0.354   9.072  1.8487  0.5036  0.1673
   61SAPC  H16S 4782   7.203  -0.288   8.912  0.6444  1.2110  0.5033
   61SAPC  C217 4783   6.988  -0.312   8.933  0.7782 -0.1009 -0.5358
   61SAPC  H17R 4784   6.979  -0.240   8.850 -0.8713  2.7636  1.9007
   61SAPC  H17S 4785   6.919  -0.286   9.016  0.1852  1.5419 -1.4973
   61SAPC  C218 4786   6.984  -0.460   8.886 -0.1918  0.3740 -0.3374
   61SAPC  H18R 4787   7.007  -0.515   8.980  1.5082  0.1769 -0.8360
   61SAPC  H18S 4788   7.063  -0.478   8.810 -0.6291 -0.1191 -0.6835
   61SAPC  C219 4789   6.844  -0.496   8.829 -0.5742 -0.1137  0.1268
   61SAPC  H19R 4790   6.769  -0.456   8.900 -2.8416 -3.0930 -0.3717
   61SAPC  H19S 4791   6.831  -0.606   8.823 -0.2541 -0.1513  0.1279
   61SAPC  C220 4792   6.826  -0.438   8.690  0.1645  0.0741 -0.8049
   61SAPC  H20R 4793   6.859  -0.333   8.675 -2.2199  0.5165 -4.1331
   61SAPC  H20S 4794   6.716  -0.438   8.674  0.0161  2.5796 -0.2244
   61SAPC  H20T 4795   6.878  -0.508   8.622  0.7798  0.1194 -0.3891
   61SAPC   C33 4796   6.491  -0.417  10.307 -0.4827 -0.1927  0.5291
   61SAPC   H3X 4797   6.382  -0.393  10.308 -0.1844  1.4724 -0.9414
   61SAPC   H3Y 4798   6.526  -0.485  10.387 -0.2760 -1.6326 -0.7439
   61SAPC   C34 4799   6.512  -0.503  10.180 -0.6615  0.0609 -0.0994
   61SAPC   H4X 4800   6.455  -0.598  10.185  0.2602 -0.5121 -0.3461
   61SAPC   H4Y 4801   6.621  -0.524  10.172 -0.4370  0.7381  0.9528
   61SAPC   C35 4802   6.476  -0.444  10.051  0.0311 -0.2361  0.6064
   61SAPC   H5X 4803   6.552  -0.367  10.026  0.7004 -1.4424 -1.2648
   61SAPC   H5Y 4804   6.377  -0.397  10.067  0.8480  2.1823 -0.7968
   61SAPC   C36 4805   6.463  -0.537   9.926  0.1943 -0.0974 -0.9120
   61SAPC   H6X 4806   6.409  -0.628   9.962  1.1757 -0.3180  0.0599
   61SAPC   H6Y 4807   6.559  -0.576   9.888 -0.7010 -2.2256 -1.1368
   61SAPC   C37 4808   6.394  -0.480   9.801 -0.2234  0.0135  0.0230
   61SAPC   H7X 4809   6.454  -0.394   9.764 -0.1034 -0.4000 -0.7707
   61SAPC   H7Y 4810   6.291  -0.440   9.817 -0.3811 -0.0073 -0.8786
   61SAPC   C38 4811   6.402  -0.562   9.676 -0.1993 -0.4828  0.4267
   61SAPC   H8X 4812   6.357  -0.662   9.688  0.8356 -1.2423 -1.4896
   61SAPC   H8Y 4813   6.512  -0.565   9.657  0.3742  5.1589  1.1105
   61SAPC   C39 4814   6.335  -0.494   9.555  0.1404 -1.0386 -0.1156
   61SAPC   H9X 4815   6.373  -0.390   9.542 -0.1662 -0.9402 -0.2316
   61SAPC   H9Y 4816   6.230  -0.484   9.590 -0.2437  1.0080 -1.6862
   61SAPC  C310 4817   6.327  -0.591   9.434  0.5139 -0.7084 -0.0083
   61SAPC  H10X 4818   6.277  -0.688   9.457  0.7670 -0.4539  1.7906
   61SAPC  H10Y 4819   6.423  -0.617   9.386 -0.1961  0.4261 -2.1677
   61SAPC  C311 4820   6.241  -0.528   9.317 -0.5606  0.2672 -1.0077
   61SAPC  H11X 4821   6.302  -0.440   9.287  0.9382 -0.7824 -1.1169
   61SAPC  H11Y 4822   6.146  -0.479   9.348  0.0505  0.5352  0.5138
   61SAPC  C312 4823   6.205  -0.622   9.199  0.6976  0.0003 -0.1877
   61SAPC  H12X 4824   6.138  -0.706   9.227  0.4068 -0.1175 -1.1823
   61SAPC  H12Y 4825   6.294  -0.665   9.149  0.8058 -1.9587  1.5766
   61SAPC  C313 4826   6.122  -0.548   9.091 -0.0668 -0.3278  0.1655
   61SAPC  H13X 4827   6.195  -0.478   9.045 -0.1848 -1.6025 -2.1152
   61SAPC  H13Y 4828   6.033  -0.495   9.131  0.5458  0.8526 -0.0013
   61SAPC  C314 4829   6.066  -0.630   8.976 -0.3855  0.7126 -0.7055
   61SAPC  H14X 4830   6.022  -0.720   9.024 -0.8377 -0.3577 -2.9883
   61SAPC  H14Y 4831   6.147  -0.672   8.913 -1.9007 -3.1072 -0.3438
   61SAPC  C315 4832   5.963  -0.551   8.888  0.1793  0.1601  0.0486
   61SAPC  H15X 4833   6.003  -0.449   8.871  0.5988  0.0523  0.3626
   61SAPC  H15Y 4834   5.876  -0.524   8.952  0.0234  1.8171 -0.8047
   61SAPC  C316 4835   5.910  -0.635   8.766  0.0448  0.1432  0.0567
   61SAPC  H16X 4836   5.825  -0.588   8.711  0.8959 -0.0342 -1.4470
   61SAPC  H16Y 4837   5.879  -0.735   8.804  0.4062 -0.6335 -1.6154
   61SAPC  C317 4838   6.016  -0.660   8.653  0.6513 -0.1383 -0.3493
   61SAPC  H17X 4839   5.954  -0.695   8.567  2.9289 -1.1446 -1.6799
   61SAPC  H17Y 4840   6.085  -0.734   8.700 -2.1877 -3.4009 -0.9223
   61SAPC  C318 4841   6.086  -0.532   8.613 -0.8303 -0.2891  0.7078
   61SAPC  H18X 4842   6.147  -0.494   8.698 -1.2748  0.6209  0.6264
   61SAPC  H18Y 4843   6.016  -0.452   8.582 -0.0333  0.9160  1.9173
   61SAPC  H18Z 4844   6.146  -0.553   8.522 -2.4352 -2.0802 -0.0244
   62SAPC     N 4845   5.607   4.746  10.815 -0.0583  0.2052 -0.1103
   62SAPC   C12 4846   5.614   4.817  10.680 -0.1677  0.0754  0.1061
   62SAPC  H12A 4847   5.559   4.758  10.608 -0.0206  0.0082  0.0481
   62SAPC  H12B 4848   5.716   4.816  10.644 -0.2688  1.4211 -0.2708
   62SAPC   C13 4849   5.693   4.819  10.912 -0.1254 -0.6175 -0.1542
   62SAPC  H13A 4850   5.661   4.921  10.929  2.0462  0.0401  0.2006
   62SAPC  H13B 4851   5.703   4.770  11.008  2.4874 -2.4588 -1.2337
   62SAPC  H13C 4852   5.793   4.829  10.872 -0.1525  0.0117 -0.0803
   62SAPC   C14 4853   5.462   4.747  10.863 -0.8795  0.0634 -0.0702
   62SAPC  H14A 4854   5.430   4.849  10.879 -0.9149  0.1517 -0.6687
   62SAPC  H14B 4855   5.398   4.710  10.785  0.6282  4.4333 -3.8206
   62SAPC  H14C 4856   5.453   4.698  10.959  0.5229  3.0841  1.7730
   62SAPC   C15 4857   5.665   4.614  10.814 -0.0682  0.2641 -0.4966
   62SAPC  H15A 4858   5.648   4.557  10.904 -1.5512  0.9587 -0.2995
   62SAPC  H15B 4859   5.622   4.556  10.734  0.7012 -2.9265  1.2432
   62SAPC  H15C 4860   5.770   4.623  10.791  0.1002 -0.5229 -0.0753
   62SAPC   C11 4861   5.571   4.961  10.663  0.7563  0.0762  0.2477
   62SAPC  H11A 4862   5.470   4.978  10.706  0.4685 -1.3727  0.1910
   62SAPC  H11B 4863   5.560   4.980  10.554 -3.2787 -3.2435 -0.1467
   62SAPC     P 4864   5.785   5.128  10.659  0.1912  0.5594  0.2428
   62SAPC   O13 4865   5.759   5.270  10.688  0.0255 -0.3034  0.4781
   62SAPC   O14 4866   5.913   5.072  10.709  0.0792 -0.0156  0.0444
   62SAPC   O12 4867   5.662   5.049  10.730  0.5275  0.4727  0.5547
   62SAPC   O11 4868   5.776   5.096  10.506 -0.1468  0.2323 -0.2557
   62SAPC    C1 4869   5.760   5.199  10.411 -0.8513 -0.4083  0.3186
   62SAPC    HA 4870   5.810   5.292  10.446 -1.9115  0.4309 -0.3254
   62SAPC    HB 4871   5.822   5.185  10.320  1.4997 -0.0317  1.7851
   62SAPC    C2 4872   5.610   5.224  10.374 -0.3925 -0.5050 -0.5729
   62SAPC    HS 4873   5.558   5.237  10.471  1.0392  0.9517  0.0501
   62SAPC   O21 4874   5.581   5.098  10.302  0.0953  0.2493 -0.0570
   62SAPC   C21 4875   5.464   5.083  10.250 -0.3770 -0.2190  0.3725
   62SAPC   O22 4876   5.367   5.148  10.289  0.2396  0.4745 -0.0451
   62SAPC   C22 4877   5.458   4.982  10.134  0.2693 -0.8222 -0.4744
   62SAPC   H2R 4878   5.552   4.922  10.134  0.5476 -0.3909  0.1265
   62SAPC   H2S 4879   5.368   4.917  10.138 -0.3073  0.0242  1.3822
   62SAPC    C3 4880   5.588   5.346  10.275  0.5651  0.0469 -0.4445
   62SAPC    HX 4881   5.610   5.442  10.326 -1.0043  1.9334 -3.0712
   62SAPC    HY 4882   5.484   5.348  10.235  0.9142 -1.6627 -1.5529
   62SAPC   O31 4883   5.678   5.329  10.168 -0.2115 -0.6802 -0.1147
   62SAPC   C31 4884   5.637   5.372  10.050 -1.0826 -0.3409 -0.0127
   62SAPC   O32 4885   5.528   5.417  10.023  0.4079  0.7724  0.2069
   62SAPC   C32 4886   5.750   5.365   9.954 -0.0066  0.7120  0.5400
   62SAPC   H2X 4887   5.814   5.274   9.966 -0.5958  0.1683 -0.2588
   62SAPC   H2Y 4888   5.825   5.445   9.970  1.8905 -0.5103 -1.5118
   62SAPC   C23 4889   5.465   5.055   9.991 -0.0889 -0.5794  0.1998
   62SAPC   H3R 4890   5.482   4.983   9.908 -1.1898  0.8910 -1.3621
   62SAPC   H3S 4891   5.561   5.111  10.004  0.1857 -1.3776  1.8568
   62SAPC   C24 4892   5.345   5.143   9.957  0.2412 -0.0337  0.2179
   62SAPC   H4R 4893   5.336   5.213  10.043  0.9525 -0.8705  0.9950
   62SAPC   H4S 4894   5.252   5.085   9.977 -1.1480  1.2517 -2.1018
   62SAPC   C25 4895   5.353   5.215   9.822  0.4595  0.3473 -0.2297
   62SAPC   H5R 4896   5.419   5.301   9.806  0.2480  0.2952 -1.5147
   62SAPC   C26 4897   5.270   5.201   9.716  0.1159  0.4790 -0.5638
   62SAPC   H6R 4898   5.297   5.265   9.631 -0.1103  0.5362 -0.5936
   62SAPC   C27 4899   5.152   5.107   9.694  0.4961  0.4855  0.2447
   62SAPC   H7R 4900   5.092   5.093   9.787 -0.9806 -0.3151 -0.7772
   62SAPC   H7S 4901   5.203   5.015   9.660 -0.2288  0.5571 -1.1220
   62SAPC   C28 4902   5.043   5.139   9.594  0.1431  0.0985  0.3396
   62SAPC   H8R 4903   4.958   5.194   9.636 -0.9494 -0.5905 -0.8924
   62SAPC   C29 4904   5.042   5.109   9.462 -0.2580 -0.1803 -0.8480
   62SAPC   H9R 4905   4.954   5.135   9.402 -0.0358  0.5676 -0.8576
   62SAPC  C210 4906   5.137   5.029   9.380  0.6100  0.0769  0.6050
   62SAPC  H10R 4907   5.088   4.938   9.339  1.6168 -1.5318  2.7465
   62SAPC  H10S 4908   5.215   4.992   9.450  0.4545 -1.4346  0.0175
   62SAPC  C211 4909   5.203   5.111   9.273  0.1591 -0.4347 -0.1671
   62SAPC  H11R 4910   5.268   5.192   9.310  0.8078 -1.9920  2.3210
   62SAPC  C212 4911   5.187   5.088   9.140  1.1227 -0.8881 -0.1975
   62SAPC  H12R 4912   5.239   5.154   9.069  0.2365 -0.5554 -0.5503
   62SAPC  C213 4913   5.089   4.993   9.071 -0.5692 -0.3528  0.4072
   62SAPC  H13R 4914   5.104   4.893   9.119 -0.7026  0.4920  2.2793
   62SAPC  H13S 4915   5.107   4.974   8.963 -0.4722 -0.1882  0.3939
   62SAPC  C214 4916   4.942   5.038   9.084 -0.1499  1.4388  0.0531
   62SAPC  H14R 4917   4.927   5.122   9.153 -1.7591  1.4173 -0.2266
   62SAPC  C215 4918   4.840   4.997   9.008  0.1515 -0.3344  0.3241
   62SAPC  H15R 4919   4.740   5.039   9.020 -0.0362 -0.3882 -0.9709
   62SAPC  C216 4920   4.859   4.899   8.895  0.5309  0.1872  0.0878
   62SAPC  H16R 4921   4.805   4.807   8.927  1.5459 -0.2383  0.6152
   62SAPC  H16S 4922   4.964   4.865   8.884 -0.2109 -2.1856 -0.3700
   62SAPC  C217 4923   4.817   4.929   8.749 -0.6772 -0.0947 -0.0581
   62SAPC  H17R 4924   4.871   4.847   8.697  0.6970  0.5040  0.3737
   62SAPC  H17S 4925   4.858   5.026   8.713 -0.6790 -1.2467 -3.5702
   62SAPC  C218 4926   4.668   4.910   8.735 -0.5928 -0.1380  0.0684
   62SAPC  H18R 4927   4.602   4.967   8.804  0.9226 -1.3843  2.7257
   62SAPC  H18S 4928   4.646   4.806   8.767 -0.4084 -0.9221 -2.1612
   62SAPC  C219 4929   4.628   4.918   8.590 -0.3442 -0.7392  0.6965
   62SAPC  H19R 4930   4.690   4.847   8.532 -1.2892 -0.4947 -0.6578
   62SAPC  H19S 4931   4.641   5.025   8.562 -0.0031 -0.5245  1.6249
   62SAPC  C220 4932   4.490   4.862   8.555 -0.0648  0.4387  0.2286
   62SAPC  H20R 4933   4.422   4.931   8.609  0.5493 -1.5279  3.8368
   62SAPC  H20S 4934   4.491   4.761   8.600  0.7806 -0.0733 -0.8894
   62SAPC  H20T 4935   4.485   4.862   8.444  1.3840  2.2365  0.1199
   62SAPC   C33 4936   5.703   5.389   9.806 -0.0380  0.1179  0.4630
   62SAPC   H3X 4937   5.637   5.477   9.795 -0.0741 -0.0942 -1.3137
   62SAPC   H3Y 4938   5.647   5.300   9.770  1.8224 -0.9306 -0.0083
   62SAPC   C34 4939   5.821   5.419   9.713  0.7646 -0.2451  0.4932
   62SAPC   H4X 4940   5.849   5.522   9.744 -0.7246  0.4477 -0.3638
   62SAPC   H4Y 4941   5.781   5.440   9.612 -1.0422  3.2491  1.7809
   62SAPC   C35 4942   5.930   5.311   9.701 -0.8472 -0.3208  0.3443
   62SAPC   H5X 4943   5.885   5.210   9.692 -1.6352  0.1992 -2.9006
   62SAPC   H5Y 4944   5.980   5.317   9.799 -1.7306  2.2744  0.7312
   62SAPC   C36 4945   6.026   5.329   9.584 -0.2234  0.1705  0.2990
   62SAPC   H6X 4946   6.091   5.239   9.584  3.6185  2.6657  2.2658
   62SAPC   H6Y 4947   6.091   5.414   9.612 -0.0009  0.3233 -0.6473
   62SAPC   C37 4948   5.948   5.354   9.447 -0.4113  0.4909  0.3458
   62SAPC   H7X 4949   5.916   5.460   9.436 -1.0893  0.0875 -2.1415
   62SAPC   H7Y 4950   5.861   5.286   9.447 -0.4095  0.4855 -0.0147
   62SAPC   C38 4951   6.034   5.309   9.331 -0.5456  0.3294 -0.0359
   62SAPC   H8X 4952   6.065   5.204   9.351  0.9579  0.5450 -1.0785
   62SAPC   H8Y 4953   6.130   5.365   9.336 -0.4472  0.1769 -0.1778
   62SAPC   C39 4954   5.983   5.320   9.190  0.1189 -0.2269 -0.3255
   62SAPC   H9X 4955   5.935   5.419   9.171  0.1122 -0.3707 -1.1191
   62SAPC   H9Y 4956   5.908   5.240   9.174 -0.3794  0.1806 -0.0802
   62SAPC  C310 4957   6.101   5.295   9.088  0.6958  0.2468 -0.2029
   62SAPC  H10X 4958   6.162   5.207   9.119  0.1222 -0.7350 -1.7442
   62SAPC  H10Y 4959   6.168   5.383   9.098 -1.7653  2.1823  0.3469
   62SAPC  C311 4960   6.053   5.279   8.944 -0.5409  0.2394  0.2513
   62SAPC  H11X 4961   6.003   5.372   8.913 -2.4566 -0.6032  0.6948
   62SAPC  H11Y 4962   5.971   5.205   8.954 -1.1913  1.1149  1.6770
   62SAPC  C312 4963   6.170   5.239   8.854 -0.6323 -0.8907  0.4803
   62SAPC  H12X 4964   6.228   5.328   8.821 -1.0460 -0.6441  0.4037
   62SAPC  H12Y 4965   6.125   5.217   8.754  0.1575  0.4681 -0.2111
   62SAPC  C313 4966   6.255   5.115   8.904 -0.3562  0.2831  0.1398
   62SAPC  H13X 4967   6.311   5.140   8.997  0.5353  1.6157 -0.7146
   62SAPC  H13Y 4968   6.336   5.092   8.832 -0.2311  1.3905 -0.0870
   62SAPC  C314 4969   6.167   4.996   8.930  0.0036  0.0884 -0.1075
   62SAPC  H14X 4970   6.088   5.003   8.852 -0.8341 -2.5610  0.3981
   62SAPC  H14Y 4971   6.112   4.999   9.026 -2.5075  0.5837 -1.4716
   62SAPC  C315 4972   6.253   4.867   8.913  0.2862 -0.0736  0.2661
   62SAPC  H15X 4973   6.347   4.873   8.971  2.1749  0.5584 -2.6390
   62SAPC  H15Y 4974   6.284   4.865   8.806  1.1435 -1.1403  0.5117
   62SAPC  C316 4975   6.168   4.744   8.960 -0.6691  0.2050 -0.8100
   62SAPC  H16X 4976   6.165   4.742   9.071  0.0070 -0.2268 -0.7940
   62SAPC  H16Y 4977   6.225   4.653   8.934  0.1766 -0.4836  2.8772
   62SAPC  C317 4978   6.032   4.732   8.903  0.2561 -0.4171 -0.2022
   62SAPC  H17X 4979   6.030   4.792   8.810 -1.5204  1.1706  0.8035
   62SAPC  H17Y 4980   5.968   4.794   8.969 -0.7988 -1.0459 -0.6021
   62SAPC  C318 4981   5.975   4.591   8.884  0.0229 -0.3088 -0.3376
   62SAPC  H18X 4982   6.031   4.537   8.804  2.1772  1.2691  0.0046
   62SAPC  H18Y 4983   5.870   4.588   8.848 -0.4633 -0.1259  1.0235
   62SAPC  H18Z 4984   5.979   4.543   8.984  1.2265  0.5714  0.0694
   63SAPC     N 4985   4.822   2.834   6.379 -0.8213 -0.4710 -1.2677
   63SAPC   C12 4986   4.749   2.846   6.510  0.0937 -0.6081 -0.6233
   63SAPC  H12A 4987   4.822   2.878   6.582 -1.3357  1.0608  0.1541
   63SAPC  H12B 4988   4.718   2.748   6.541  0.9944 -1.4037 -2.1268
   63SAPC   C13 4989   4.853   2.969   6.317 -0.1358  1.1358 -0.4064
   63SAPC  H13A 4990   4.882   2.954   6.214  0.7929 -0.9538  0.1174
   63SAPC  H13B 4991   4.770   3.038   6.329 -0.8967  0.0478  0.8887
   63SAPC  H13C 4992   4.940   3.008   6.370  0.0453 -0.0742  0.2209
   63SAPC   C14 4993   4.947   2.763   6.397 -0.7856 -0.4254  0.1225
   63SAPC  H14A 4994   5.011   2.773   6.310 -1.3675  0.0339 -0.2620
   63SAPC  H14B 4995   5.006   2.793   6.482  0.9567  1.4397 -1.6519
   63SAPC  H14C 4996   4.937   2.655   6.403  0.8212 -0.6173 -0.3049
   63SAPC   C15 4997   4.740   2.764   6.277 -0.1364  1.5326  0.5801
   63SAPC  H15A 4998   4.749   2.657   6.288 -0.1239  1.3406 -1.0265
   63SAPC  H15B 4999   4.633   2.781   6.278 -0.4894 -0.4938  1.0103
   63SAPC  H15C 5000   4.778   2.783   6.177 -0.0759 -0.2012  0.2471
   63SAPC   C11 5001   4.621   2.929   6.519 -0.5585 -0.0108  1.1974
   63SAPC  H11A 5002   4.646   3.037   6.524 -3.5166  0.9047 -1.2322
   63SAPC  H11B 5003   4.586   2.905   6.622 -4.1072  2.3997  0.7352
   63SAPC     P 5004   4.452   3.014   6.352  0.0168 -0.0433  0.4663
   63SAPC   O13 5005   4.549   3.106   6.291  0.1770  0.3117 -0.7007
   63SAPC   O14 5006   4.327   2.971   6.284  0.3321  0.5052 -0.1530
   63SAPC   O12 5007   4.526   2.891   6.419  0.3452 -0.2699  0.3971
   63SAPC   O11 5008   4.402   3.080   6.481 -0.0388  0.8948  0.2973
   63SAPC    C1 5009   4.331   3.198   6.493 -0.8704  0.2318  0.9421
   63SAPC    HA 5010   4.397   3.287   6.490 -2.1268  1.1754 -1.5712
   63SAPC    HB 5011   4.262   3.225   6.410  1.3287  1.1723 -0.6792
   63SAPC    C2 5012   4.251   3.201   6.628  0.0581  0.5855  0.4354
   63SAPC    HS 5013   4.219   3.306   6.645  1.8920  1.6370 -2.1286
   63SAPC   O21 5014   4.335   3.166   6.736 -0.2873 -0.4821 -0.5092
   63SAPC   C21 5015   4.436   3.251   6.762  0.0686  0.5975  0.4053
   63SAPC   O22 5016   4.444   3.368   6.723  0.3223 -0.3134  0.2408
   63SAPC   C22 5017   4.550   3.175   6.835  0.8072  0.2604 -0.0507
   63SAPC   H2R 5018   4.504   3.080   6.869 -1.8173  1.1187 -1.0097
   63SAPC   H2S 5019   4.623   3.142   6.758  1.6808 -0.8130  1.1753
   63SAPC    C3 5020   4.126   3.106   6.618  0.3725  0.8242 -0.7279
   63SAPC    HX 5021   4.163   3.003   6.598 -0.4077  0.7169 -1.7070
   63SAPC    HY 5022   4.059   3.129   6.532  0.5135  0.3650 -0.9656
   63SAPC   O31 5023   4.048   3.109   6.744 -0.6591  0.3258  0.0603
   63SAPC   C31 5024   3.961   3.201   6.754 -0.7327 -0.7814 -0.7570
   63SAPC   O32 5025   3.916   3.276   6.667 -0.4419 -0.0437  0.2400
   63SAPC   C32 5026   3.888   3.206   6.885 -0.0231  0.2321 -0.0247
   63SAPC   H2X 5027   3.791   3.154   6.869  1.1860 -2.3478  0.5186
   63SAPC   H2Y 5028   3.864   3.308   6.921 -2.1148 -0.2428  0.0273
   63SAPC   C23 5029   4.596   3.243   6.961 -0.1730  0.4610  0.0478
   63SAPC   H3R 5030   4.671   3.321   6.939  0.2997 -0.4586 -1.8060
   63SAPC   H3S 5031   4.657   3.171   7.020  2.3431  2.7777  0.4452
   63SAPC   C24 5032   4.478   3.295   7.049  0.6737 -0.1430 -0.6237
   63SAPC   H4R 5033   4.395   3.222   7.058  1.7798 -1.1791  3.9309
   63SAPC   H4S 5034   4.433   3.373   6.984 -1.8387  0.1258  1.2884
   63SAPC   C25 5035   4.524   3.344   7.189  0.2325  0.3357 -0.2604
   63SAPC   H5R 5036   4.557   3.449   7.191 -0.5727  0.5844  1.4250
   63SAPC   C26 5037   4.511   3.268   7.301 -0.2383 -0.3616  0.6368
   63SAPC   H6R 5038   4.552   3.307   7.395 -1.7801  0.9811  0.8079
   63SAPC   C27 5039   4.468   3.126   7.319 -0.0820  0.5902  0.3312
   63SAPC   H7R 5040   4.548   3.079   7.380  0.6656  2.9082  1.2760
   63SAPC   H7S 5041   4.469   3.081   7.217 -0.7896 -2.4294  1.5803
   63SAPC   C28 5042   4.323   3.112   7.361 -0.5412  0.5757 -0.1017
   63SAPC   H8R 5043   4.254   3.101   7.276 -2.7927 -1.2799  1.8289
   63SAPC   C29 5044   4.286   3.096   7.490 -0.0049 -0.9124  0.1629
   63SAPC   H9R 5045   4.180   3.098   7.521  0.4466 -0.7839  1.8077
   63SAPC  C210 5046   4.386   3.114   7.599 -0.4938  0.1358 -0.7464
   63SAPC  H10R 5047   4.494   3.120   7.574 -0.4462 -0.3341 -0.6634
   63SAPC  H10S 5048   4.381   3.022   7.661 -2.6853  2.6225  3.1948
   63SAPC  C211 5049   4.361   3.242   7.678 -0.3750  0.2034  0.2136
   63SAPC  H11R 5050   4.387   3.336   7.628 -2.9451  1.0619  0.3654
   63SAPC  C212 5051   4.318   3.237   7.804  0.2902  0.2059 -0.0454
   63SAPC  H12R 5052   4.288   3.334   7.847 -0.7511  0.5992 -1.5809
   63SAPC  C213 5053   4.294   3.117   7.892  0.7682  0.1586 -0.4310
   63SAPC  H13R 5054   4.244   3.032   7.841  1.0686  0.2018 -0.8052
   63SAPC  H13S 5055   4.230   3.150   7.976 -2.0151  0.4890 -2.5319
   63SAPC  C214 5056   4.426   3.065   7.940  0.4175  1.0048 -0.1462
   63SAPC  H14R 5057   4.498   3.058   7.857  0.4442  0.4415 -0.0796
   63SAPC  C215 5058   4.467   3.034   8.064  0.4525 -0.1234  0.1439
   63SAPC  H15R 5059   4.564   2.983   8.079  1.3217  1.8195  1.4665
   63SAPC  C216 5060   4.393   3.048   8.191  1.0834  0.0212 -0.6137
   63SAPC  H16R 5061   4.282   3.061   8.183  0.8648  0.4396  2.1086
   63SAPC  H16S 5062   4.430   3.129   8.257 -4.4171  2.0088  0.5792
   63SAPC  C217 5063   4.406   2.915   8.257 -0.8754  0.1389 -0.2112
   63SAPC  H17R 5064   4.507   2.868   8.253 -1.4903 -1.1325 -2.1049
   63SAPC  H17S 5065   4.336   2.845   8.207 -2.2632  1.6204 -0.4230
   63SAPC  C218 5066   4.368   2.936   8.398 -0.6405 -0.1433  0.6963
   63SAPC  H18R 5067   4.259   2.957   8.399 -1.1204 -1.3910 -3.8903
   63SAPC  H18S 5068   4.434   3.016   8.440  1.3229 -1.7602  0.8593
   63SAPC  C219 5069   4.413   2.817   8.491 -0.0048 -0.7051 -0.8018
   63SAPC  H19R 5070   4.501   2.768   8.443  0.0155  0.1757 -1.6897
   63SAPC  H19S 5071   4.335   2.740   8.476 -1.8215  0.2722  2.5835
   63SAPC  C220 5072   4.432   2.825   8.644  1.0766 -0.4502 -0.7088
   63SAPC  H20R 5073   4.503   2.898   8.689 -0.1898 -0.3570  1.2275
   63SAPC  H20S 5074   4.466   2.724   8.678 -0.3020 -0.6986 -0.0285
   63SAPC  H20T 5075   4.333   2.857   8.683  0.2861 -1.1927 -2.0288
   63SAPC   C33 5076   3.956   3.124   6.999 -0.0709 -0.0562 -0.8768
   63SAPC   H3X 5077   4.052   3.169   7.031  0.1610 -1.0604 -0.1174
   63SAPC   H3Y 5078   3.985   3.027   6.952 -0.7828 -0.3945 -0.6297
   63SAPC   C34 5079   3.850   3.107   7.105  0.1510  0.0868 -0.1230
   63SAPC   H4X 5080   3.768   3.038   7.076  0.9597 -0.2743 -1.6774
   63SAPC   H4Y 5081   3.803   3.207   7.116 -0.9008 -0.3165 -0.8212
   63SAPC   C35 5082   3.913   3.066   7.240 -0.1445 -0.1281 -0.6051
   63SAPC   H5X 5083   3.990   3.140   7.271  1.2917 -2.2149  1.1401
   63SAPC   H5Y 5084   3.960   2.966   7.241 -0.0064 -0.0879 -1.8157
   63SAPC   C36 5085   3.808   3.079   7.355 -0.0913  0.0704 -0.3364
   63SAPC   H6X 5086   3.727   3.008   7.327  2.1511 -3.3143  1.1116
   63SAPC   H6Y 5087   3.769   3.183   7.350  1.3337  0.5723 -1.7192
   63SAPC   C37 5088   3.871   3.048   7.497 -0.1680  0.3647  0.3356
   63SAPC   H7X 5089   3.939   3.133   7.520  1.3209 -1.0259  1.3115
   63SAPC   H7Y 5090   3.925   2.952   7.483 -1.7391 -0.1904 -2.8368
   63SAPC   C38 5091   3.768   3.044   7.612 -1.5108 -0.2790  0.1730
   63SAPC   H8X 5092   3.704   2.957   7.587 -0.2431 -1.2539  0.1875
   63SAPC   H8Y 5093   3.718   3.143   7.615  0.4738  0.7859 -0.1892
   63SAPC   C39 5094   3.837   3.026   7.749 -0.1895  0.2526 -0.2464
   63SAPC   H9X 5095   3.882   3.125   7.773  1.3048 -0.5682  0.4380
   63SAPC   H9Y 5096   3.912   2.944   7.756 -2.3746 -1.6892  2.8561
   63SAPC  C310 5097   3.734   3.001   7.853 -0.3491  0.5637 -0.0076
   63SAPC  H10X 5098   3.681   2.906   7.827  1.1289 -0.9220  2.0558
   63SAPC  H10Y 5099   3.658   3.082   7.852  0.5445  1.4218 -1.1857
   63SAPC  C311 5100   3.797   2.994   7.997 -0.2916 -0.3151  0.1565
   63SAPC  H11X 5101   3.723   3.012   8.077  0.9258 -1.3980  1.5835
   63SAPC  H11Y 5102   3.861   3.085   8.003 -2.0995  1.0356 -0.1766
   63SAPC  C312 5103   3.874   2.863   8.032 -0.7169  0.3954  0.2951
   63SAPC  H12X 5104   3.938   2.850   7.942 -3.1997  0.9256 -1.6396
   63SAPC  H12Y 5105   3.799   2.781   8.031  0.0987 -0.3996 -1.3243
   63SAPC  C313 5106   3.950   2.867   8.168 -0.6728  0.5423  0.4888
   63SAPC  H13X 5107   4.031   2.942   8.173 -2.0766  2.1236  0.1659
   63SAPC  H13Y 5108   3.982   2.761   8.185  1.8078  1.1416 -0.0109
   63SAPC  C314 5109   3.857   2.884   8.287 -0.3700  0.2019 -0.3448
   63SAPC  H14X 5110   3.765   2.822   8.289  0.1295 -0.5410  0.2726
   63SAPC  H14Y 5111   3.824   2.988   8.266  0.9658  0.3567 -1.9269
   63SAPC  C315 5112   3.933   2.886   8.424 -0.7114  0.7019 -0.2377
   63SAPC  H15X 5113   4.032   2.937   8.423  0.4296 -1.3358 -2.5931
   63SAPC  H15Y 5114   3.953   2.782   8.458  0.4183  0.7862 -0.5987
   63SAPC  C316 5115   3.853   2.952   8.537  0.1560  0.1948 -0.1013
   63SAPC  H16X 5116   3.897   2.912   8.631 -1.9739 -1.9269  0.0965
   63SAPC  H16Y 5117   3.745   2.926   8.541  0.3513 -0.4886  1.3485
   63SAPC  C317 5118   3.859   3.100   8.546  0.7021 -0.3966 -0.1486
   63SAPC  H17X 5119   3.821   3.135   8.448 -0.6341  0.6455  0.7067
   63SAPC  H17Y 5120   3.963   3.139   8.553  1.2532 -1.9953  1.5790
   63SAPC  C318 5121   3.760   3.160   8.647 -0.6572  0.0520  0.0310
   63SAPC  H18X 5122   3.659   3.126   8.617 -1.3306  0.8027  1.3158
   63SAPC  H18Y 5123   3.761   3.271   8.643  0.8397  0.3154  3.8853
   63SAPC  H18Z 5124   3.785   3.127   8.750 -0.8640 -1.1425 -0.2882
   64SAPC     N 5125   6.702   3.773   5.807  0.7911 -0.3260  0.4476
   64SAPC   C12 5126   6.684   3.794   5.960 -0.0760 -0.3531  0.0157
   64SAPC  H12A 5127   6.776   3.829   6.003  0.3272 -0.8539 -0.4220
   64SAPC  H12B 5128   6.659   3.701   6.008  1.8329 -1.0657 -0.2684
   64SAPC   C13 5129   6.585   3.687   5.757 -0.2754 -0.5743  0.4755
   64SAPC  H13A 5130   6.579   3.595   5.814  1.2740 -0.9703  0.0428
   64SAPC  H13B 5131   6.490   3.738   5.755 -1.3444 -2.4693  0.3750
   64SAPC  H13C 5132   6.609   3.677   5.652 -2.9663 -0.4889 -0.2233
   64SAPC   C14 5133   6.707   3.896   5.722  0.3515  0.1596 -0.1385
   64SAPC  H14A 5134   6.727   3.860   5.622 -0.5519 -1.5394  0.2489
   64SAPC  H14B 5135   6.618   3.958   5.721  0.1241 -0.0844  1.7521
   64SAPC  H14C 5136   6.798   3.945   5.752  0.9391 -0.4471 -0.8946
   64SAPC   C15 5137   6.835   3.704   5.778  0.1462 -0.4682  0.0496
   64SAPC  H15A 5138   6.839   3.611   5.832 -1.6482 -0.3533  0.4537
   64SAPC  H15B 5139   6.858   3.685   5.674  0.3980 -2.7212  0.4761
   64SAPC  H15C 5140   6.911   3.769   5.819 -1.9332  1.4156  1.1040
   64SAPC   C11 5141   6.589   3.902   6.008  0.6339 -0.0881  0.2197
   64SAPC  H11A 5142   6.602   4.003   5.963  0.2696  0.6251  1.6415
   64SAPC  H11B 5143   6.613   3.925   6.114  1.2722  0.7096 -0.0858
   64SAPC     P 5144   6.390   3.747   6.080  0.0124  0.2440  0.1755
   64SAPC   O13 5145   6.293   3.673   5.993 -0.1854 -0.7760 -1.0014
   64SAPC   O14 5146   6.488   3.668   6.150 -0.7072  0.1662  0.0045
   64SAPC   O12 5147   6.453   3.861   5.992  0.0679 -0.4975 -0.0795
   64SAPC   O11 5148   6.308   3.828   6.186 -0.7338 -0.2750 -0.0825
   64SAPC    C1 5149   6.351   3.958   6.231 -0.1279  0.8843  0.4385
   64SAPC    HA 5150   6.455   3.961   6.268 -0.2600  0.2115  0.8769
   64SAPC    HB 5151   6.333   4.027   6.145  3.2407  0.4935 -0.7134
   64SAPC    C2 5152   6.280   4.013   6.351 -0.3101  0.6968  0.3887
   64SAPC    HS 5153   6.327   4.110   6.379  2.9823 -0.0951 -1.8158
   64SAPC   O21 5154   6.265   3.916   6.462  0.1522 -0.2257  0.7854
   64SAPC   C21 5155   6.360   3.916   6.548 -0.2494  0.8706 -0.3551
   64SAPC   O22 5156   6.448   3.997   6.558  0.3142  0.2105 -0.2275
   64SAPC   C22 5157   6.357   3.786   6.619  0.1948  0.8038 -0.3270
   64SAPC   H2R 5158   6.247   3.766   6.624  0.3357  0.2682  1.2811
   64SAPC   H2S 5159   6.406   3.709   6.556 -2.5713 -2.0898  0.7935
   64SAPC    C3 5160   6.135   4.052   6.312  0.3352 -0.6146 -0.6450
   64SAPC    HX 5161   6.101   3.971   6.244 -0.3736 -0.6712 -0.2298
   64SAPC    HY 5162   6.142   4.149   6.258  0.5043  0.4472  1.2041
   64SAPC   O31 5163   6.032   4.064   6.424 -1.0139 -0.1655  0.5736
   64SAPC   C31 5164   6.056   4.171   6.501 -1.2593 -0.3889  0.0279
   64SAPC   O32 5165   6.138   4.258   6.470 -0.8004 -0.2267 -0.3907
   64SAPC   C32 5166   5.967   4.175   6.623 -0.0759 -0.5957  0.7322
   64SAPC   H2X 5167   5.894   4.091   6.630  1.2757 -1.8635  0.0702
   64SAPC   H2Y 5168   5.911   4.271   6.623  0.9572  0.0630 -1.2921
   64SAPC   C23 5169   6.427   3.795   6.755 -0.3094  0.4408  0.2757
   64SAPC   H3R 5170   6.391   3.859   6.839  1.4751 -0.5078  1.8601
   64SAPC   H3S 5171   6.534   3.813   6.731 -0.6730 -1.6825 -3.7291
   64SAPC   C24 5172   6.439   3.656   6.820 -0.7328  0.1012  0.0234
   64SAPC   H4R 5173   6.500   3.669   6.911 -0.9903 -0.1590  0.2375
   64SAPC   H4S 5174   6.491   3.586   6.752  0.1477 -0.6913  1.4600
   64SAPC   C25 5175   6.304   3.600   6.873 -0.0321  1.0552  0.0285
   64SAPC   H5R 5176   6.233   3.597   6.789 -0.5400 -0.0009  0.4846
   64SAPC   C26 5177   6.276   3.553   6.992  0.2429  0.2650 -1.2759
   64SAPC   H6R 5178   6.173   3.518   7.007  0.5542 -0.0686  0.2043
   64SAPC   C27 5179   6.369   3.544   7.114  0.1512  0.3308 -0.5947
   64SAPC   H7R 5180   6.470   3.543   7.067 -0.2948  1.8633 -1.6669
   64SAPC   H7S 5181   6.349   3.445   7.160  1.2306  0.9077  1.1975
   64SAPC   C28 5182   6.359   3.661   7.206  0.3995  0.1840 -1.0576
   64SAPC   H8R 5183   6.333   3.757   7.158 -0.4882 -0.0292 -1.0239
   64SAPC   C29 5184   6.361   3.659   7.343  0.7660  0.3070  0.2589
   64SAPC   H9R 5185   6.328   3.755   7.386 -1.7139  0.0007 -0.8132
   64SAPC  C210 5186   6.385   3.543   7.433 -0.0367 -0.4675 -0.7092
   64SAPC  H10R 5187   6.424   3.453   7.382 -1.4555 -1.3161 -0.3508
   64SAPC  H10S 5188   6.288   3.508   7.475 -0.0899  1.0724  0.5673
   64SAPC  C211 5189   6.485   3.570   7.545  0.1386 -0.5331  0.2675
   64SAPC  H11R 5190   6.568   3.640   7.529  1.4594 -1.2705  3.1699
   64SAPC  C212 5191   6.487   3.487   7.652 -0.3882 -0.5110 -0.4622
   64SAPC  H12R 5192   6.565   3.510   7.726 -0.4113 -0.2491 -0.5207
   64SAPC  C213 5193   6.408   3.364   7.687  0.1005 -0.7820 -0.5684
   64SAPC  H13R 5194   6.360   3.320   7.597  0.9582  0.6560 -1.7854
   64SAPC  H13S 5195   6.323   3.390   7.753  1.3163  4.1619 -0.5437
   64SAPC  C214 5196   6.507   3.258   7.738  0.7345  0.3896 -0.0008
   64SAPC  H14R 5197   6.574   3.202   7.672  2.6318  0.9922  1.3514
   64SAPC  C215 5198   6.511   3.236   7.869 -0.3460 -0.2993 -0.5073
   64SAPC  H15R 5199   6.595   3.171   7.899  1.2063  0.2512 -3.2752
   64SAPC  C216 5200   6.429   3.294   7.990  0.3789  0.9176 -0.6373
   64SAPC  H16R 5201   6.397   3.209   8.054 -0.8166  0.1596 -2.1806
   64SAPC  H16S 5202   6.335   3.346   7.959  0.2770  0.7669 -0.5786
   64SAPC  C217 5203   6.498   3.400   8.082  0.1179 -0.0814 -0.0930
   64SAPC  H17R 5204   6.549   3.472   8.014 -0.2055 -1.3274 -1.7202
   64SAPC  H17S 5205   6.574   3.347   8.144  0.7965 -0.2153 -1.0114
   64SAPC  C218 5206   6.409   3.497   8.156 -0.1639 -0.3955 -0.1495
   64SAPC  H18R 5207   6.356   3.445   8.239  0.7214  0.7491  1.1595
   64SAPC  H18S 5208   6.329   3.553   8.104  0.2707 -0.0891 -0.4867
   64SAPC  C219 5209   6.493   3.608   8.215  0.0289 -0.1941  0.4962
   64SAPC  H19R 5210   6.526   3.678   8.135 -0.4876 -1.1689 -0.5900
   64SAPC  H19S 5211   6.591   3.565   8.245  0.4220 -3.1846 -4.1474
   64SAPC  C220 5212   6.420   3.682   8.331 -0.5048 -0.1162  0.2411
   64SAPC  H20R 5213   6.439   3.655   8.437  0.1284 -2.7268 -0.4635
   64SAPC  H20S 5214   6.311   3.677   8.313 -0.2163 -0.3101 -1.7953
   64SAPC  H20T 5215   6.449   3.789   8.322 -0.5649 -0.2013 -1.1653
   64SAPC   C33 5216   6.055   4.168   6.745 -0.1208 -0.2559 -0.4057
   64SAPC   H3X 5217   6.155   4.214   6.731 -0.3320 -0.2953 -2.3379
   64SAPC   H3Y 5218   6.084   4.060   6.746  3.0015  0.4733 -0.1076
   64SAPC   C34 5219   6.000   4.214   6.881  0.8823  0.0664 -0.1674
   64SAPC   H4X 5220   5.904   4.162   6.896  0.0142  1.7318  0.3248
   64SAPC   H4Y 5221   5.971   4.322   6.879  2.7688  0.7174 -4.5052
   64SAPC   C35 5222   6.093   4.191   7.005  0.1597 -0.3750  0.2813
   64SAPC   H5X 5223   6.200   4.211   6.982 -0.1496 -0.8765 -1.7724
   64SAPC   H5Y 5224   6.100   4.085   7.038  2.1186 -0.0286  1.1304
   64SAPC   C36 5225   6.068   4.275   7.134  0.2322  0.0819  0.3210
   64SAPC   H6X 5226   5.978   4.238   7.188  0.8217 -1.0394  0.5763
   64SAPC   H6Y 5227   6.047   4.379   7.104  0.4027  0.5443  1.7060
   64SAPC   C37 5228   6.183   4.278   7.229  0.4248  0.2893  0.1883
   64SAPC   H7X 5229   6.276   4.301   7.173  1.0620  0.2705  1.2107
   64SAPC   H7Y 5230   6.200   4.171   7.253 -1.1762 -0.0201  0.0379
   64SAPC   C38 5231   6.162   4.364   7.352 -0.2160 -0.2554  0.3929
   64SAPC   H8X 5232   6.069   4.322   7.396  0.2190 -0.4188  1.1618
   64SAPC   H8Y 5233   6.146   4.470   7.324 -0.6546  0.5849  3.4812
   64SAPC   C39 5234   6.279   4.360   7.443  0.2090 -0.1388 -0.0055
   64SAPC   H9X 5235   6.359   4.419   7.394 -1.3466  1.1023 -1.1671
   64SAPC   H9Y 5236   6.302   4.251   7.450  2.2619  0.2683  0.2673
   64SAPC  C310 5237   6.246   4.400   7.586 -0.3284 -0.7732 -0.1276
   64SAPC  H10X 5238   6.156   4.340   7.611 -0.8181 -0.0861 -0.2222
   64SAPC  H10Y 5239   6.212   4.506   7.585 -2.2567 -1.3480  0.5312
   64SAPC  C311 5240   6.368   4.402   7.678  0.0547  0.0284  0.0969
   64SAPC  H11X 5241   6.449   4.466   7.636  0.4302 -0.5770 -0.1146
   64SAPC  H11Y 5242   6.417   4.303   7.689 -2.1151 -1.2682 -1.2467
   64SAPC  C312 5243   6.331   4.434   7.822  0.4240 -0.2049 -0.1985
   64SAPC  H12X 5244   6.247   4.374   7.862  0.8818 -0.0617  1.0075
   64SAPC  H12Y 5245   6.313   4.542   7.804  2.5674 -0.0350 -1.7051
   64SAPC  C313 5246   6.438   4.433   7.934  0.8265  0.1842  0.2879
   64SAPC  H13X 5247   6.415   4.510   8.010 -2.2554 -0.3230 -0.0120
   64SAPC  H13Y 5248   6.540   4.451   7.892  0.2744  1.1648 -0.6825
   64SAPC  C314 5249   6.436   4.301   8.012  0.9986 -0.2198 -0.8414
   64SAPC  H14X 5250   6.476   4.209   7.965 -0.1161 -2.4850  2.2756
   64SAPC  H14Y 5251   6.333   4.278   8.048  1.8323  1.5241  3.2487
   64SAPC  C315 5252   6.516   4.322   8.138 -0.0858  0.1178 -0.2584
   64SAPC  H15X 5253   6.506   4.426   8.178 -0.2862  0.8010 -1.9828
   64SAPC  H15Y 5254   6.621   4.319   8.103  1.2582  1.5469  3.2182
   64SAPC  C316 5255   6.502   4.205   8.237  0.2181 -0.3437  0.0814
   64SAPC  H16X 5256   6.526   4.107   8.191 -1.2625 -0.4972 -0.4323
   64SAPC  H16Y 5257   6.393   4.193   8.257  0.1911 -1.7941 -0.8243
   64SAPC  C317 5258   6.570   4.212   8.377 -0.2634  0.1532  0.0927
   64SAPC  H17X 5259   6.529   4.304   8.426 -0.8004  1.1156 -2.0392
   64SAPC  H17Y 5260   6.681   4.202   8.377 -0.4327 -2.5004  1.0032
   64SAPC  C318 5261   6.518   4.099   8.464  0.3915 -0.1978  0.5459
   64SAPC  H18X 5262   6.520   3.991   8.436  0.4443 -0.0884  0.1126
   64SAPC  H18Y 5263   6.410   4.112   8.487  0.2824 -0.9385  0.4936
   64SAPC  H18Z 5264   6.573   4.098   8.560  2.1035 -0.6990 -0.3889
   65SAPC     N 5265   5.797   4.634   6.254  0.3670 -0.1383 -0.9624
   65SAPC   C12 5266   5.689   4.735   6.259  0.3422 -0.0269  0.7557
   65SAPC  H12A 5267   5.725   4.824   6.309 -1.3355  1.2378 -0.1921
   65SAPC  H12B 5268   5.607   4.697   6.318 -1.9008  1.4755 -1.2485
   65SAPC   C13 5269   5.754   4.500   6.192  0.3165  0.0776  1.1001
   65SAPC  H13A 5270   5.667   4.513   6.130  0.7993 -1.8620 -0.1079
   65SAPC  H13B 5271   5.825   4.450   6.127 -1.3150 -0.5825 -0.2605
   65SAPC  H13C 5272   5.721   4.425   6.263  0.0526 -2.1808 -1.2671
   65SAPC   C14 5273   5.907   4.685   6.178 -0.1643 -0.5022 -0.5358
   65SAPC  H14A 5274   5.945   4.775   6.223  0.1796 -0.8692 -0.0811
   65SAPC  H14B 5275   5.991   4.618   6.165  0.2060  0.0764 -1.1622
   65SAPC  H14C 5276   5.881   4.716   6.078 -0.3661  0.3368 -0.2257
   65SAPC   C15 5277   5.847   4.601   6.393 -0.2992  0.2222  0.7083
   65SAPC  H15A 5278   5.769   4.577   6.464  0.4172 -1.9449  0.8272
   65SAPC  H15B 5279   5.906   4.511   6.395 -0.3662  0.1921  1.8539
   65SAPC  H15C 5280   5.905   4.678   6.440 -1.2399  2.7601 -1.9180
   65SAPC   C11 5281   5.621   4.786   6.135  0.1984  0.2571 -0.0633
   65SAPC  H11A 5282   5.536   4.850   6.166  0.4712  0.7321 -0.2789
   65SAPC  H11B 5283   5.585   4.695   6.083 -1.0652  0.4445  0.4471
   65SAPC     P 5284   5.728   5.018   6.093 -0.2085  0.1228 -0.0787
   65SAPC   O13 5285   5.856   5.048   6.025  0.3393 -0.4042  0.4052
   65SAPC   O14 5286   5.608   5.093   6.060  0.0780 -0.0430 -0.2669
   65SAPC   O12 5287   5.705   4.865   6.050 -0.3110 -0.1497  0.4398
   65SAPC   O11 5288   5.757   5.024   6.243 -0.0764  0.0608 -0.3325
   65SAPC    C1 5289   5.878   5.061   6.308  0.0473  0.2415  0.1470
   65SAPC    HA 5290   5.935   4.970   6.338 -0.3676 -0.1614 -0.2625
   65SAPC    HB 5291   5.944   5.124   6.245  0.4399  0.0230  0.3382
   65SAPC    C2 5292   5.844   5.134   6.441 -0.6792 -1.0736 -0.0093
   65SAPC    HS 5293   5.941   5.142   6.495 -1.2949  0.5833  0.9194
   65SAPC   O21 5294   5.758   5.063   6.531 -0.0516 -0.0664  0.4870
   65SAPC   C21 5295   5.788   4.937   6.561  0.7455  0.6692 -0.4813
   65SAPC   O22 5296   5.888   4.874   6.531  0.0802 -0.5015 -0.2677
   65SAPC   C22 5297   5.674   4.868   6.643  0.1727  0.1422  0.2892
   65SAPC   H2R 5298   5.572   4.899   6.613  0.7542  3.2612  1.2123
   65SAPC   H2S 5299   5.676   4.759   6.619 -1.6354 -0.1629  1.3641
   65SAPC    C3 5300   5.781   5.277   6.424 -0.6990  0.0324 -0.4434
   65SAPC    HX 5301   5.693   5.262   6.358 -2.6538 -0.1059  2.0190
   65SAPC    HY 5302   5.848   5.354   6.380 -0.0699 -0.7086 -0.8085
   65SAPC   O31 5303   5.730   5.311   6.555 -0.5547 -0.0655  0.2930
   65SAPC   C31 5304   5.822   5.368   6.631 -0.1249 -0.0910  0.3143
   65SAPC   O32 5305   5.941   5.375   6.605 -0.4897  0.4716  0.0112
   65SAPC   C32 5306   5.746   5.432   6.753 -0.2342  0.0721  0.1379
   65SAPC   H2X 5307   5.713   5.345   6.814  3.2655 -1.0848  0.6307
   65SAPC   H2Y 5308   5.661   5.489   6.710  1.2221  1.4414 -1.0518
   65SAPC   C23 5309   5.688   4.898   6.798  0.0181 -0.4360  0.9651
   65SAPC   H3R 5310   5.668   5.000   6.836 -0.4521  0.2045 -0.8836
   65SAPC   H3S 5311   5.795   4.886   6.827 -0.7038 -3.1105  2.9803
   65SAPC   C24 5312   5.611   4.792   6.876  0.2875  0.6409  0.1846
   65SAPC   H4R 5313   5.666   4.776   6.971 -1.9534 -0.9551  1.2896
   65SAPC   H4S 5314   5.614   4.702   6.812 -0.5725  0.6922  0.0583
   65SAPC   C25 5315   5.466   4.838   6.890 -0.0679  0.0974  0.3201
   65SAPC   H5R 5316   5.409   4.868   6.801  1.7650  0.4428 -0.7919
   65SAPC   C26 5317   5.399   4.844   7.009 -0.3411 -0.4021  0.6980
   65SAPC   H6R 5318   5.292   4.869   7.022 -0.0854 -0.1485  2.4177
   65SAPC   C27 5319   5.466   4.818   7.141 -0.1546  0.1989 -0.4046
   65SAPC   H7R 5320   5.523   4.723   7.135  2.0687  1.5468 -2.2559
   65SAPC   H7S 5321   5.391   4.822   7.223 -0.7370  0.2158 -0.9268
   65SAPC   C28 5322   5.583   4.909   7.177  0.2993 -0.8763  0.7559
   65SAPC   H8R 5323   5.644   4.953   7.097 -1.0003 -0.6233 -0.1257
   65SAPC   C29 5324   5.617   4.957   7.298  0.0342  0.5770 -0.0764
   65SAPC   H9R 5325   5.706   5.022   7.306  0.4832 -0.1415  1.1135
   65SAPC  C210 5326   5.554   4.934   7.432 -0.5449  0.1127  0.1310
   65SAPC  H10R 5327   5.452   4.976   7.430 -0.6826 -0.2062  0.2873
   65SAPC  H10S 5328   5.609   4.995   7.507 -0.5465 -0.8823  0.9726
   65SAPC  C211 5329   5.549   4.789   7.474  0.3558  0.2241  0.4086
   65SAPC  H11R 5330   5.560   4.712   7.396  0.5413  1.0054 -0.3406
   65SAPC  C212 5331   5.543   4.739   7.600 -0.1926 -0.0772  0.3409
   65SAPC  H12R 5332   5.564   4.632   7.614  0.4196  0.3185  3.0194
   65SAPC  C213 5333   5.536   4.824   7.727  0.0897 -0.4299 -0.3499
   65SAPC  H13R 5334   5.438   4.819   7.779  0.4145 -2.1246  0.1476
   65SAPC  H13S 5335   5.548   4.931   7.699  0.9442  0.0401  1.6891
   65SAPC  C214 5336   5.652   4.800   7.816 -0.2795  0.1933 -0.1111
   65SAPC  H14R 5337   5.749   4.844   7.788  1.7371 -3.6879  0.1824
   65SAPC  C215 5338   5.655   4.701   7.907  0.2032  0.8537 -0.1506
   65SAPC  H15R 5339   5.745   4.703   7.970  0.6160  0.1538 -0.7040
   65SAPC  C216 5340   5.544   4.606   7.943 -0.3696 -0.1289  0.0878
   65SAPC  H16R 5341   5.570   4.509   7.896  0.4173 -0.3157  0.8902
   65SAPC  H16S 5342   5.452   4.630   7.886 -2.1788 -1.9923  2.0366
   65SAPC  C217 5343   5.498   4.595   8.096 -0.2737 -0.2537 -0.0386
   65SAPC  H17R 5344   5.410   4.528   8.090 -1.6099  1.2888  1.2254
   65SAPC  H17S 5345   5.470   4.695   8.137  1.1298 -0.3404  1.2030
   65SAPC  C218 5346   5.609   4.538   8.187 -0.6855  0.1077 -0.4700
   65SAPC  H18R 5347   5.670   4.629   8.206 -1.7046  0.5562  0.8376
   65SAPC  H18S 5348   5.674   4.467   8.133 -0.6841 -0.9274  0.8332
   65SAPC  C219 5349   5.559   4.480   8.317  1.0964  0.0931  0.5004
   65SAPC  H19R 5350   5.640   4.453   8.388  0.5810 -0.9129  0.7278
   65SAPC  H19S 5351   5.510   4.381   8.298  2.8292 -0.7897  0.4459
   65SAPC  C220 5352   5.464   4.563   8.401  0.3880 -0.2528 -0.1099
   65SAPC  H20R 5353   5.368   4.577   8.347  0.8723  1.2922 -0.6132
   65SAPC  H20S 5354   5.508   4.659   8.436  0.2502 -0.2153 -0.0393
   65SAPC  H20T 5355   5.433   4.509   8.493 -0.4192 -2.2328 -1.4582
   65SAPC   C33 5356   5.830   5.532   6.836 -0.4758  0.3296  0.5591
   65SAPC   H3X 5357   5.838   5.631   6.785 -4.8053  0.8091  0.4305
   65SAPC   H3Y 5358   5.934   5.494   6.829 -0.3834  0.8177 -1.9579
   65SAPC   C34 5359   5.792   5.553   6.984 -0.4352  0.5489  1.1378
   65SAPC   H4X 5360   5.800   5.456   7.037 -0.1522 -0.2161 -0.2449
   65SAPC   H4Y 5361   5.685   5.580   6.974 -0.4660 -0.0094 -0.3210
   65SAPC   C35 5362   5.889   5.655   7.047 -0.4949 -0.0672 -0.4100
   65SAPC   H5X 5363   5.918   5.728   6.969 -1.4176  1.9959  1.0786
   65SAPC   H5Y 5364   5.978   5.593   7.072 -0.7077 -1.3062 -2.5054
   65SAPC   C36 5365   5.830   5.718   7.170  0.1137 -0.6294  0.1371
   65SAPC   H6X 5366   5.730   5.759   7.143  0.4553  0.3062  0.2325
   65SAPC   H6Y 5367   5.893   5.809   7.183 -0.6559  0.2861 -1.9621
   65SAPC   C37 5368   5.833   5.634   7.293  0.1950 -0.6728  0.0663
   65SAPC   H7X 5369   5.937   5.604   7.319  0.7720  0.8702 -0.3813
   65SAPC   H7Y 5370   5.770   5.545   7.269 -0.6377  0.0488 -0.4881
   65SAPC   C38 5371   5.769   5.720   7.409  0.6195 -0.2944 -0.1548
   65SAPC   H8X 5372   5.676   5.761   7.364  1.6045  0.0766 -1.9443
   65SAPC   H8Y 5373   5.831   5.804   7.447 -1.2006  0.6288  0.9078
   65SAPC   C39 5374   5.721   5.639   7.532 -0.9775 -0.1103 -0.0572
   65SAPC   H9X 5375   5.800   5.586   7.590 -0.2902  1.0273  0.0802
   65SAPC   H9Y 5376   5.649   5.565   7.491 -0.0466 -1.2415  0.2987
   65SAPC  C310 5377   5.641   5.728   7.625  0.0067 -0.4281  0.0895
   65SAPC  H10X 5378   5.546   5.749   7.572  0.4723  0.5268 -0.3719
   65SAPC  H10Y 5379   5.698   5.820   7.650 -0.5960  0.1910 -0.7705
   65SAPC  C311 5380   5.588   5.665   7.763 -0.1966  0.5176  1.0366
   65SAPC  H11X 5381   5.523   5.578   7.743  0.4577  0.7313 -2.5744
   65SAPC  H11Y 5382   5.520   5.744   7.802 -1.3134  0.5521 -0.8825
   65SAPC  C312 5383   5.701   5.638   7.868  0.8112  0.7763  0.4987
   65SAPC  H12X 5384   5.804   5.678   7.850  2.0902 -2.3343  0.3806
   65SAPC  H12Y 5385   5.705   5.527   7.865  0.7726  0.7122  2.0325
   65SAPC  C313 5386   5.672   5.686   8.011 -0.8414  0.3004 -0.5941
   65SAPC  H13X 5387   5.753   5.635   8.068 -2.0944 -0.6091  0.4474
   65SAPC  H13Y 5388   5.578   5.639   8.046  0.3990 -1.1462  1.0007
   65SAPC  C314 5389   5.679   5.837   8.029 -0.4842 -0.0608 -0.2329
   65SAPC  H14X 5390   5.581   5.890   8.026 -1.0982 -1.0815  0.6595
   65SAPC  H14Y 5391   5.747   5.878   7.951  0.0241 -0.0640  0.2035
   65SAPC  C315 5392   5.747   5.895   8.154 -0.2180  0.6575 -0.0451
   65SAPC  H15X 5393   5.780   6.000   8.138  2.5364 -0.2071 -0.4753
   65SAPC  H15Y 5394   5.843   5.843   8.172  0.1655  1.4833  0.3557
   65SAPC  C316 5395   5.663   5.879   8.282 -0.1963  0.3958  0.5281
   65SAPC  H16X 5396   5.739   5.899   8.360  1.2584  0.8585 -0.9445
   65SAPC  H16Y 5397   5.627   5.775   8.284 -0.5435  0.4854  3.5140
   65SAPC  C317 5398   5.543   5.968   8.307  0.1940 -0.7597 -0.0147
   65SAPC  H17X 5399   5.490   5.927   8.396 -0.4071 -1.7684 -0.8270
   65SAPC  H17Y 5400   5.467   5.961   8.227  1.0812 -0.2663 -0.9183
   65SAPC  C318 5401   5.568   6.121   8.329 -0.5152 -0.6650 -0.0689
   65SAPC  H18X 5402   5.650   6.130   8.403 -0.9824  0.3574  0.3421
   65SAPC  H18Y 5403   5.480   6.181   8.362 -1.6653 -0.7203 -2.7797
   65SAPC  H18Z 5404   5.593   6.179   8.238 -3.7057  2.7905  1.0041
   66SAPC     N 5405   3.318   4.728   5.863 -0.4517  0.1352  0.0925
   66SAPC   C12 5406   3.217   4.612   5.848 -0.0940 -0.6763 -0.2177
   66SAPC  H12A 5407   3.253   4.543   5.773  1.4186 -0.5957  0.3947
   66SAPC  H12B 5408   3.128   4.661   5.811 -0.2937 -0.0147  1.0696
   66SAPC   C13 5409   3.440   4.689   5.949  0.4281 -0.2705 -0.1429
   66SAPC  H13A 5410   3.510   4.770   5.933 -1.5279  1.1193 -2.2743
   66SAPC  H13B 5411   3.401   4.692   6.050  1.0315 -0.9439  0.1228
   66SAPC  H13C 5412   3.485   4.592   5.938  3.0061  0.4742  2.4820
   66SAPC   C14 5413   3.363   4.782   5.735  0.2778 -0.4583 -0.2114
   66SAPC  H14A 5414   3.417   4.872   5.762 -1.8148  0.2661  1.9202
   66SAPC  H14B 5415   3.430   4.718   5.680  0.4896  0.2042 -0.7415
   66SAPC  H14C 5416   3.282   4.817   5.673  0.9328  0.5256 -0.5476
   66SAPC   C15 5417   3.250   4.847   5.939  0.2526  0.6381  0.1739
   66SAPC  H15A 5418   3.169   4.889   5.880 -2.9510 -0.7084  3.2251
   66SAPC  H15B 5419   3.215   4.817   6.037 -0.9168 -0.1253 -0.4519
   66SAPC  H15C 5420   3.321   4.928   5.947 -0.4919  1.5904 -2.0491
   66SAPC   C11 5421   3.189   4.538   5.976  0.7689  0.1309 -0.0229
   66SAPC  H11A 5422   3.277   4.526   6.043 -2.7351 -1.2048  4.8949
   66SAPC  H11B 5423   3.169   4.432   5.947  1.8058  0.2026 -1.0786
   66SAPC     P 5424   2.938   4.588   6.012  0.4436  0.2930 -0.0466
   66SAPC   O13 5425   2.925   4.650   5.876  0.4074  0.2385 -0.1739
   66SAPC   O14 5426   2.889   4.448   6.035  0.0820  0.2689  0.1443
   66SAPC   O12 5427   3.091   4.600   6.055 -0.2092 -0.1378  0.1144
   66SAPC   O11 5428   2.861   4.678   6.123 -0.2095 -0.0799  0.3018
   66SAPC    C1 5429   2.890   4.818   6.131  0.4139  0.2619 -0.0230
   66SAPC    HA 5430   2.961   4.853   6.052 -0.3760 -0.7979 -1.2392
   66SAPC    HB 5431   2.800   4.881   6.118  1.2924  1.6624  0.3551
   66SAPC    C2 5432   2.944   4.864   6.265  1.1679 -0.5426  0.3019
   66SAPC    HS 5433   3.047   4.825   6.279  1.4369  0.2129  0.4562
   66SAPC   O21 5434   2.846   4.824   6.366  0.0091 -0.8268 -0.0074
   66SAPC   C21 5435   2.904   4.770   6.476  0.3559  0.3542  0.0537
   66SAPC   O22 5436   3.019   4.738   6.484  0.7254  0.2604 -0.1927
   66SAPC   C22 5437   2.799   4.758   6.572  0.3319 -0.5190  0.5505
   66SAPC   H2R 5438   2.732   4.847   6.569  1.4136  0.2829 -1.2902
   66SAPC   H2S 5439   2.739   4.671   6.537 -1.4776  1.4345 -1.5748
   66SAPC    C3 5440   2.967   5.018   6.284 -0.7309  0.0296  0.5691
   66SAPC    HX 5441   2.869   5.069   6.272 -0.4701  1.5750  3.9697
   66SAPC    HY 5442   3.042   5.045   6.206  0.8034 -0.0558  1.9541
   66SAPC   O31 5443   3.020   5.048   6.411  0.3083 -0.0663  0.5073
   66SAPC   C31 5444   3.020   5.171   6.454  0.0406  0.2340 -0.4445
   66SAPC   O32 5445   2.988   5.272   6.395  0.2661  0.0156 -0.1294
   66SAPC   C32 5446   3.081   5.167   6.595 -0.5873  0.0346 -0.2252
   66SAPC   H2X 5447   3.168   5.098   6.589  0.1619  0.7701  1.6237
   66SAPC   H2Y 5448   3.005   5.117   6.659 -0.2815  0.3018  0.3492
   66SAPC   C23 5449   2.851   4.725   6.712  0.3679  0.4505 -0.3401
   66SAPC   H3R 5450   2.937   4.786   6.748  0.1908 -0.3680  1.6068
   66SAPC   H3S 5451   2.885   4.620   6.716 -1.8704 -0.3047  1.5495
   66SAPC   C24 5452   2.728   4.715   6.811  0.1751  0.5153  0.1696
   66SAPC   H4R 5453   2.749   4.645   6.894  3.1216  0.2352 -0.6687
   66SAPC   H4S 5454   2.661   4.657   6.745  0.7389  1.3842 -1.2046
   66SAPC   C25 5455   2.659   4.845   6.839  0.7268 -0.0617  0.3528
   66SAPC   H5R 5456   2.619   4.883   6.744  0.8160 -2.2008 -0.6048
   66SAPC   C26 5457   2.653   4.912   6.954  0.1655 -0.6177 -0.5392
   66SAPC   H6R 5458   2.604   5.011   6.953 -0.0447 -0.7185 -0.3677
   66SAPC   C27 5459   2.701   4.883   7.094  0.3576 -0.1767 -0.2074
   66SAPC   H7R 5460   2.647   4.789   7.120 -1.4699  1.1413  1.0316
   66SAPC   H7S 5461   2.670   4.957   7.170  0.0609 -0.2182 -0.2848
   66SAPC   C28 5462   2.847   4.855   7.128 -0.5002  0.4043 -0.4973
   66SAPC   H8R 5463   2.916   4.880   7.047  0.8600 -3.3744 -0.7069
   66SAPC   C29 5464   2.889   4.803   7.239  0.1502 -0.1701 -0.5614
   66SAPC   H9R 5465   2.996   4.786   7.258  0.0738 -0.5144 -0.4341
   66SAPC  C210 5466   2.803   4.759   7.353  0.3667 -0.4243 -0.5438
   66SAPC  H10R 5467   2.848   4.666   7.394 -0.8916 -0.5020  0.7367
   66SAPC  H10S 5468   2.698   4.739   7.323 -0.2326  1.8045 -0.1126
   66SAPC  C211 5469   2.797   4.866   7.459 -0.0822  0.0520  0.5474
   66SAPC  H11R 5470   2.739   4.951   7.420  0.0515 -1.0053 -2.1924
   66SAPC  C212 5471   2.845   4.870   7.586  0.6548  0.8015  0.2540
   66SAPC  H12R 5472   2.809   4.947   7.656 -0.4192 -1.2073  2.0455
   66SAPC  C213 5473   2.923   4.747   7.643 -0.2451 -0.5509 -0.0530
   66SAPC  H13R 5474   2.952   4.668   7.571 -0.1493 -1.3075  0.7915
   66SAPC  H13S 5475   2.858   4.693   7.715 -2.2708 -1.5859 -2.5161
   66SAPC  C214 5476   3.048   4.796   7.710  0.6596  0.1926  0.6585
   66SAPC  H14R 5477   3.093   4.886   7.665  2.3472 -1.0872 -0.3110
   66SAPC  C215 5478   3.111   4.760   7.821  0.4370  0.0828 -0.3616
   66SAPC  H15R 5479   3.191   4.826   7.857 -1.0568  1.1052  1.2637
   66SAPC  C216 5480   3.065   4.651   7.921 -0.9029 -0.3863  1.1058
   66SAPC  H16R 5481   3.114   4.558   7.884  0.4823 -0.3856  2.7926
   66SAPC  H16S 5482   2.954   4.645   7.925 -0.9576 -0.0178  0.3764
   66SAPC  C217 5483   3.105   4.683   8.067  0.1365  0.5390 -0.6783
   66SAPC  H17R 5484   3.215   4.688   8.083 -0.3081  1.7484  3.0911
   66SAPC  H17S 5485   3.067   4.600   8.130  2.4719  0.0170  0.1777
   66SAPC  C218 5486   3.044   4.811   8.122 -0.0591 -0.0032  0.4354
   66SAPC  H18R 5487   2.934   4.813   8.106 -0.1790 -1.9485  0.7326
   66SAPC  H18S 5488   3.084   4.893   8.059 -0.7484 -0.7253 -1.0016
   66SAPC  C219 5489   3.061   4.850   8.265  0.3174 -0.0061 -0.1008
   66SAPC  H19R 5490   3.164   4.888   8.280 -0.6388  2.0983  1.6694
   66SAPC  H19S 5491   3.044   4.766   8.337  0.6511  1.5252  1.8423
   66SAPC  C220 5492   2.978   4.969   8.302  0.7558  0.3006  0.8661
   66SAPC  H20R 5493   3.028   5.054   8.250  1.9861  0.0353  1.5734
   66SAPC  H20S 5494   2.989   4.995   8.410 -1.6543  1.5884  0.8753
   66SAPC  H20T 5495   2.871   4.961   8.272  1.1263  0.9404 -0.7242
   66SAPC   C33 5496   3.124   5.292   6.663 -0.1797 -0.3908 -0.1304
   66SAPC   H3X 5497   3.030   5.341   6.697 -1.0031 -2.2405  0.3809
   66SAPC   H3Y 5498   3.181   5.361   6.598  1.0992 -1.0142  0.2981
   66SAPC   C34 5499   3.205   5.289   6.789 -0.2544 -0.0689  0.1543
   66SAPC   H4X 5500   3.199   5.390   6.834 -0.2162  0.8419 -1.7800
   66SAPC   H4Y 5501   3.313   5.263   6.778 -0.3808 -0.5561  0.0596
   66SAPC   C35 5502   3.156   5.186   6.891 -0.2738 -0.0170 -0.6958
   66SAPC   H5X 5503   3.191   5.083   6.866  2.0127  1.1013 -2.4587
   66SAPC   H5Y 5504   3.045   5.187   6.898 -0.2164  0.3920  0.2895
   66SAPC   C36 5505   3.217   5.226   7.030 -0.0669 -1.0019  0.3476
   66SAPC   H6X 5506   3.211   5.337   7.036 -0.9690 -1.1345  3.2290
   66SAPC   H6Y 5507   3.326   5.212   7.016  0.1554  1.1303 -0.5251
   66SAPC   C37 5508   3.157   5.161   7.157 -0.7041 -0.7101 -0.2130
   66SAPC   H7X 5509   3.189   5.055   7.155  2.9927  0.2533 -0.3636
   66SAPC   H7Y 5510   3.049   5.184   7.174 -1.0968  1.0322 -3.9818
   66SAPC   C38 5511   3.227   5.216   7.286 -0.7369 -0.2423  0.7571
   66SAPC   H8X 5512   3.224   5.327   7.286  0.5530 -0.1686 -0.8533
   66SAPC   H8Y 5513   3.332   5.180   7.281 -1.0068 -0.8694 -0.7545
   66SAPC   C39 5514   3.164   5.176   7.419 -0.2894 -0.3194  0.3042
   66SAPC   H9X 5515   3.173   5.066   7.433 -1.0108 -0.3478  0.5894
   66SAPC   H9Y 5516   3.061   5.213   7.435 -0.5548 -0.9993  0.2150
   66SAPC  C310 5517   3.240   5.239   7.532 -0.1611 -0.1872 -0.5071
   66SAPC  H10X 5518   3.241   5.348   7.507  1.4332  0.2468  1.2087
   66SAPC  H10Y 5519   3.346   5.206   7.533  0.1822  0.5887 -2.9629
   66SAPC  C311 5520   3.168   5.223   7.663 -0.0717 -0.5136  0.2006
   66SAPC  H11X 5521   3.142   5.116   7.682  2.0456 -0.9949  0.5693
   66SAPC  H11Y 5522   3.069   5.272   7.656  0.4558  0.5108 -0.1575
   66SAPC  C312 5523   3.250   5.285   7.777  0.2022 -0.0086 -0.8918
   66SAPC  H12X 5524   3.262   5.391   7.749 -1.9264  0.2826 -0.8152
   66SAPC  H12Y 5525   3.352   5.241   7.788 -0.3861 -0.8109  2.2243
   66SAPC  C313 5526   3.179   5.286   7.918  0.4971 -0.0541 -0.5740
   66SAPC  H13X 5527   3.140   5.186   7.947  0.2826  0.4518  0.9636
   66SAPC  H13Y 5528   3.090   5.353   7.913  0.7053  0.4537  1.5951
   66SAPC  C314 5529   3.270   5.343   8.035 -0.5182 -0.0396  0.3624
   66SAPC  H14X 5530   3.210   5.367   8.126  1.3066  0.2392  1.5504
   66SAPC  H14Y 5531   3.313   5.439   7.997 -0.9951 -0.1519 -0.4827
   66SAPC  C315 5532   3.376   5.245   8.077 -0.7045 -0.4460 -0.0190
   66SAPC  H15X 5533   3.423   5.299   8.161 -0.8037  2.5630 -1.7493
   66SAPC  H15Y 5534   3.452   5.226   7.998 -1.9931 -4.3366 -0.5557
   66SAPC  C316 5535   3.329   5.106   8.127  0.9630  0.2755 -0.1926
   66SAPC  H16X 5536   3.303   5.044   8.038  1.0632  1.4882 -1.0920
   66SAPC  H16Y 5537   3.236   5.127   8.185  1.1438  1.8943 -0.4247
   66SAPC  C317 5538   3.425   5.047   8.231  0.4552  0.3382 -0.2844
   66SAPC  H17X 5539   3.394   4.945   8.259  0.9847 -0.2909 -1.8854
   66SAPC  H17Y 5540   3.414   5.105   8.325 -0.4801 -0.5497  0.1738
   66SAPC  C318 5541   3.577   5.047   8.184 -0.0873  0.0906  0.0948
   66SAPC  H18X 5542   3.645   5.001   8.259  1.0235  0.7858 -0.4579
   66SAPC  H18Y 5543   3.604   5.154   8.171  0.9537 -0.2373 -0.5446
   66SAPC  H18Z 5544   3.579   4.987   8.091 -2.2330 -1.9883  1.2759
   67SAPC     N 5545   4.872   0.299   6.097 -0.9285  0.3354 -0.0491
   67SAPC   C12 5546   4.777   0.361   6.198  0.5302 -0.3629  0.3676
   67SAPC  H12A 5547   4.681   0.364   6.148  0.8496 -2.9167 -0.6047
   67SAPC  H12B 5548   4.805   0.463   6.217  1.7809 -0.0438 -2.5426
   67SAPC   C13 5549   4.850   0.149   6.075 -0.8275 -0.5354 -0.2398
   67SAPC  H13A 5550   4.828   0.102   6.169 -1.0522 -1.1484 -0.5908
   67SAPC  H13B 5551   4.764   0.121   6.016 -2.4441  2.3108  0.5500
   67SAPC  H13C 5552   4.937   0.102   6.033  0.1516  0.0581  1.0460
   67SAPC   C14 5553   4.861   0.372   5.973 -0.1843 -0.4250  1.1500
   67SAPC  H14A 5554   4.894   0.471   5.998 -0.9392 -0.0537  0.7041
   67SAPC  H14B 5555   4.920   0.329   5.893  0.5719  0.0929  1.4259
   67SAPC  H14C 5556   4.761   0.393   5.938 -0.2129 -1.9551  0.1914
   67SAPC   C15 5557   5.017   0.306   6.141 -0.6777 -0.2050  0.3817
   67SAPC  H15A 5558   5.048   0.409   6.147 -0.4694 -0.3048  1.1576
   67SAPC  H15B 5559   5.043   0.257   6.234 -1.1986 -0.3385  0.4637
   67SAPC  H15C 5560   5.088   0.269   6.069  0.2357  0.0993  1.1041
   67SAPC   C11 5561   4.735   0.294   6.333  0.5521 -0.1578 -0.2406
   67SAPC  H11A 5562   4.687   0.197   6.306  2.1153 -1.0412  0.0494
   67SAPC  H11B 5563   4.655   0.359   6.375  0.1211 -1.2689  0.7345
   67SAPC     P 5564   4.905   0.136   6.461  0.0457 -0.1728  0.2281
   67SAPC   O13 5565   4.819   0.037   6.389  0.1009 -0.1752 -0.1749
   67SAPC   O14 5566   5.052   0.130   6.440  0.0488 -0.1711  0.3684
   67SAPC   O12 5567   4.851   0.280   6.414 -0.9944  0.0312  0.2467
   67SAPC   O11 5568   4.871   0.128   6.615 -0.6483  0.7774 -0.0849
   67SAPC    C1 5569   4.794   0.217   6.688 -0.0179 -0.9019  0.5685
   67SAPC    HA 5570   4.854   0.311   6.695 -0.1415 -0.8808  1.4523
   67SAPC    HB 5571   4.695   0.238   6.642  0.2511 -2.1026 -0.6438
   67SAPC    C2 5572   4.771   0.158   6.829  0.2958 -0.6832  0.1520
   67SAPC    HS 5573   4.719   0.226   6.899  0.2210 -0.9642  0.3686
   67SAPC   O21 5574   4.891   0.113   6.892  0.3206  0.1268 -0.0614
   67SAPC   C21 5575   4.972   0.199   6.936  0.4094 -0.2714 -0.7127
   67SAPC   O22 5576   4.953   0.322   6.943  0.4733  0.0346 -0.5067
   67SAPC   C22 5577   5.101   0.142   6.976 -0.5132 -0.3364 -0.0522
   67SAPC   H2R 5578   5.172   0.149   6.891  0.5716  0.3363  0.8813
   67SAPC   H2S 5579   5.157   0.196   7.056  2.3325 -0.2363 -1.9787
   67SAPC    C3 5580   4.679   0.031   6.799  0.2228 -0.1930  0.1445
   67SAPC    HX 5581   4.734  -0.045   6.738 -0.9786  0.2725 -1.6018
   67SAPC    HY 5582   4.602   0.079   6.735  2.7445  1.5846 -1.7712
   67SAPC   O31 5583   4.621  -0.029   6.924 -0.3571  0.0448  0.0249
   67SAPC   C31 5584   4.505   0.020   6.978 -0.2093 -0.7877  0.8367
   67SAPC   O32 5585   4.434   0.101   6.924  0.1455 -0.4509  0.6222
   67SAPC   C32 5586   4.463  -0.048   7.108  0.3543 -0.0605  0.2884
   67SAPC   H2X 5587   4.549  -0.096   7.160  2.2579  0.9538 -1.7518
   67SAPC   H2Y 5588   4.388  -0.123   7.075  0.3846 -0.1736  0.4770
   67SAPC   C23 5589   5.089  -0.003   7.032  0.1709  0.0954  0.0993
   67SAPC   H3R 5590   5.193  -0.041   7.024  0.7979  1.8318 -0.4565
   67SAPC   H3S 5591   5.016  -0.070   6.982  0.8783 -0.5193 -0.1357
   67SAPC   C24 5592   5.049  -0.013   7.175 -0.1386  0.0832 -0.2873
   67SAPC   H4R 5593   5.086   0.066   7.245 -0.6875  1.2443 -1.2651
   67SAPC   H4S 5594   5.105  -0.105   7.202  3.8834  1.8794 -1.7046
   67SAPC   C25 5595   4.902  -0.037   7.197  1.1931 -0.1573 -0.0022
   67SAPC   H5R 5596   4.873  -0.137   7.163  2.4800  0.5543 -3.7752
   67SAPC   C26 5597   4.820   0.055   7.255  0.6391 -0.5337 -0.2338
   67SAPC   H6R 5598   4.711   0.042   7.257  0.4532  0.9649 -0.0279
   67SAPC   C27 5599   4.862   0.190   7.296  0.1208 -0.3382  0.2546
   67SAPC   H7R 5600   4.917   0.249   7.219 -0.9022  0.6092  0.2062
   67SAPC   H7S 5601   4.940   0.176   7.374 -1.1051 -0.4263  1.5071
   67SAPC   C28 5602   4.744   0.276   7.336 -0.7700  0.7373 -0.4326
   67SAPC   H8R 5603   4.714   0.347   7.258 -1.1251  1.7523  0.5881
   67SAPC   C29 5604   4.698   0.290   7.461  0.1413 -0.7203 -0.8332
   67SAPC   H9R 5605   4.607   0.351   7.469  0.2749 -0.7381  1.3264
   67SAPC  C210 5606   4.750   0.224   7.585  0.1720  0.3079 -0.1410
   67SAPC  H10R 5607   4.764   0.299   7.666 -1.6691 -0.1821  0.6895
   67SAPC  H10S 5608   4.848   0.179   7.559 -1.2338 -1.2044 -3.4910
   67SAPC  C211 5609   4.652   0.120   7.626  0.0720  1.0409  0.2307
   67SAPC  H11R 5610   4.634   0.044   7.549 -2.0578  1.7171  0.0030
   67SAPC  C212 5611   4.583   0.110   7.742  0.3638 -0.2874  0.4569
   67SAPC  H12R 5612   4.506   0.033   7.759 -0.9966  1.1105  0.9198
   67SAPC  C213 5613   4.595   0.204   7.863  0.0558 -0.6066  0.8841
   67SAPC  H13R 5614   4.702   0.224   7.884 -0.3337  1.6365  1.0090
   67SAPC  H13S 5615   4.551   0.147   7.947  2.3937 -0.1153  2.5209
   67SAPC  C214 5616   4.530   0.337   7.841 -0.3825  0.0487  0.1550
   67SAPC  H14R 5617   4.578   0.399   7.765 -0.1765 -2.1341 -1.6012
   67SAPC  C215 5618   4.421   0.382   7.914 -1.4758 -0.3795  0.0291
   67SAPC  H15R 5619   4.373   0.477   7.886 -0.0979  0.1576 -0.6025
   67SAPC  C216 5620   4.368   0.303   8.028  0.1214  0.2484 -0.4893
   67SAPC  H16R 5621   4.356   0.194   8.008 -1.4296  0.5185 -1.2773
   67SAPC  H16S 5622   4.264   0.341   8.044  0.1044 -0.7392  2.1598
   67SAPC  C217 5623   4.432   0.339   8.164 -0.5954 -0.4198  0.4501
   67SAPC  H17R 5624   4.416   0.447   8.183  1.8943 -0.0465  0.8408
   67SAPC  H17S 5625   4.542   0.325   8.148 -0.5376  0.3418  0.1671
   67SAPC  C218 5626   4.377   0.264   8.285  0.7649 -0.0030  0.3904
   67SAPC  H18R 5627   4.411   0.160   8.266 -1.7561 -1.2509  2.1845
   67SAPC  H18S 5628   4.266   0.261   8.283  0.7139  0.7375  1.4311
   67SAPC  C219 5629   4.422   0.303   8.424 -0.1857 -0.6816  0.0356
   67SAPC  H19R 5630   4.357   0.248   8.495  0.1916  0.2423  1.1257
   67SAPC  H19S 5631   4.403   0.411   8.436 -1.8478 -1.1985  3.0840
   67SAPC  C220 5632   4.571   0.274   8.459  0.6660  0.9792 -0.5852
   67SAPC  H20R 5633   4.591   0.306   8.563 -1.2353 -1.8782  0.8067
   67SAPC  H20S 5634   4.631   0.334   8.388 -0.5279  1.1922 -1.4577
   67SAPC  H20T 5635   4.598   0.167   8.448  0.3238  0.5404  2.0443
   67SAPC   C33 5636   4.395   0.054   7.202 -0.0482 -0.3644  0.3919
   67SAPC   H3X 5637   4.335   0.128   7.145  2.0618  1.6990  0.6956
   67SAPC   H3Y 5638   4.470   0.112   7.260 -2.0181  1.2818  1.4424
   67SAPC   C34 5639   4.304  -0.006   7.304  0.1375 -0.0441  0.5038
   67SAPC   H4X 5640   4.241  -0.073   7.243 -1.9045  2.5381 -0.4349
   67SAPC   H4Y 5641   4.238   0.070   7.351  2.6855  1.3172  2.0957
   67SAPC   C35 5642   4.381  -0.099   7.397 -0.2502  0.2864 -0.0668
   67SAPC   H5X 5643   4.470  -0.055   7.446 -0.2194 -2.2587  2.4162
   67SAPC   H5Y 5644   4.395  -0.188   7.330  0.3906  1.0823 -1.0146
   67SAPC   C36 5645   4.298  -0.154   7.516  0.7060 -0.6597 -0.3783
   67SAPC   H6X 5646   4.357  -0.221   7.583  1.6790 -0.5766 -1.1306
   67SAPC   H6Y 5647   4.208  -0.203   7.474 -2.4222  2.2095  2.3554
   67SAPC   C37 5648   4.250  -0.032   7.609 -0.0674 -0.4996  0.7139
   67SAPC   H7X 5649   4.175   0.029   7.553  0.0311 -0.0991  1.0160
   67SAPC   H7Y 5650   4.340   0.026   7.637  0.9742 -1.2428 -0.9306
   67SAPC   C38 5651   4.171  -0.079   7.735  0.0201  0.5251  0.1283
   67SAPC   H8X 5652   4.095  -0.156   7.709  0.7562  0.4811 -2.1387
   67SAPC   H8Y 5653   4.121   0.013   7.771 -2.5172 -0.5029 -0.5272
   67SAPC   C39 5654   4.258  -0.128   7.850  0.0466  0.9160 -0.6819
   67SAPC   H9X 5655   4.345  -0.058   7.857  1.2959 -0.2489 -3.2182
   67SAPC   H9Y 5656   4.303  -0.223   7.814 -0.0312 -0.0859  1.6908
   67SAPC  C310 5657   4.180  -0.148   7.974 -0.1294 -0.8437 -0.4238
   67SAPC  H10X 5658   4.074  -0.159   7.944  0.1528 -1.7389 -1.1503
   67SAPC  H10Y 5659   4.190  -0.061   8.043 -0.4846 -1.6315  0.6486
   67SAPC  C311 5660   4.224  -0.275   8.045  0.2600  0.7418 -0.2192
   67SAPC  H11X 5661   4.334  -0.267   8.062  0.3864 -0.1641 -0.5567
   67SAPC  H11Y 5662   4.197  -0.354   7.973  0.6984 -1.4959  1.9345
   67SAPC  C312 5663   4.166  -0.309   8.179  0.1801 -0.4115 -0.5178
   67SAPC  H12X 5664   4.181  -0.418   8.192  1.2027 -0.0509  1.8868
   67SAPC  H12Y 5665   4.058  -0.286   8.166  0.7192  2.5086 -0.4711
   67SAPC  C313 5666   4.221  -0.226   8.294 -0.6769  0.8865  0.6227
   67SAPC  H13X 5667   4.217  -0.116   8.277 -1.1459  1.0397  1.6081
   67SAPC  H13Y 5668   4.330  -0.242   8.304  0.0841  3.3649 -2.1512
   67SAPC  C314 5669   4.157  -0.262   8.429 -0.1862  0.3273  0.1892
   67SAPC  H14X 5670   4.168  -0.372   8.443  1.0104  0.4940  0.6923
   67SAPC  H14Y 5671   4.048  -0.239   8.420 -0.1128  0.8889  0.6845
   67SAPC  C315 5672   4.220  -0.200   8.549 -0.8089 -0.3825  0.8656
   67SAPC  H15X 5673   4.328  -0.226   8.547 -0.5274  0.7386 -0.3189
   67SAPC  H15Y 5674   4.190  -0.231   8.651 -2.3090  3.3674  1.7493
   67SAPC  C316 5675   4.210  -0.048   8.543 -0.6348  0.2506 -0.0289
   67SAPC  H16X 5676   4.262  -0.014   8.451  4.5547  0.4154  2.6248
   67SAPC  H16Y 5677   4.257  -0.004   8.634 -1.4146 -2.1627  1.6395
   67SAPC  C317 5678   4.069   0.008   8.536  0.6208  0.6254  0.3776
   67SAPC  H17X 5679   4.012  -0.058   8.604  1.8869 -0.9295 -0.0057
   67SAPC  H17Y 5680   4.032  -0.005   8.431  3.8106 -3.5913 -0.4782
   67SAPC  C318 5681   4.067   0.149   8.585  0.2049 -0.0772  0.2885
   67SAPC  H18X 5682   4.109   0.147   8.688  0.4359 -0.0761  0.1939
   67SAPC  H18Y 5683   3.962   0.183   8.576 -0.4923 -2.3999 -1.4454
   67SAPC  H18Z 5684   4.125   0.222   8.526 -1.9016  1.0296 -0.5067
   68SAPC     N 5685   5.426   5.749   5.812  0.1097  0.7149  0.1503
   68SAPC   C12 5686   5.387   5.801   5.955  0.7458  0.1762  0.4367
   68SAPC  H12A 5687   5.282   5.781   5.963  0.0947  1.5460 -2.8792
   68SAPC  H12B 5688   5.409   5.907   5.952 -0.2561  0.7683  5.6820
   68SAPC   C13 5689   5.336   5.819   5.714  0.3862 -0.0826  0.0571
   68SAPC  H13A 5690   5.242   5.770   5.694 -0.5398  0.1207  3.3024
   68SAPC  H13B 5691   5.309   5.920   5.744 -2.0944 -0.5633 -0.3441
   68SAPC  H13C 5692   5.382   5.825   5.617 -0.2857  2.0398 -0.1889
   68SAPC   C14 5693   5.569   5.766   5.791  0.4030 -0.1532 -0.7915
   68SAPC  H14A 5694   5.601   5.721   5.698  1.1145 -2.9014  0.6742
   68SAPC  H14B 5695   5.589   5.872   5.798  0.7843 -0.2757  0.1340
   68SAPC  H14C 5696   5.623   5.718   5.871  1.1722  0.6122 -0.8323
   68SAPC   C15 5697   5.381   5.602   5.808  0.1814 -0.4804 -0.3891
   68SAPC  H15A 5698   5.372   5.561   5.709 -1.8881 -1.0389  0.0021
   68SAPC  H15B 5699   5.451   5.545   5.867  0.1720  0.1273  0.2245
   68SAPC  H15C 5700   5.287   5.599   5.860  0.7565 -1.5923  0.6525
   68SAPC   C11 5701   5.458   5.750   6.078  0.5411  0.6548  0.5039
   68SAPC  H11A 5702   5.414   5.819   6.153  1.4545  1.6033  0.1844
   68SAPC  H11B 5703   5.567   5.767   6.067  0.3439  1.1683 -0.9472
   68SAPC     P 5704   5.292   5.559   6.153  0.5797  0.2424  0.0989
   68SAPC   O13 5705   5.178   5.617   6.081  0.7907 -0.2759 -0.0734
   68SAPC   O14 5706   5.299   5.412   6.164 -0.5193  0.2241 -0.1193
   68SAPC   O12 5707   5.430   5.616   6.097  0.1853 -0.0762  0.3673
   68SAPC   O11 5708   5.302   5.616   6.293  0.5035  0.4926  0.0336
   68SAPC    C1 5709   5.414   5.606   6.377 -0.1810 -0.0760  0.1122
   68SAPC    HA 5710   5.493   5.541   6.335  0.4132 -1.1916  2.7368
   68SAPC    HB 5711   5.454   5.709   6.379 -0.4483  0.0460 -0.6874
   68SAPC    C2 5712   5.367   5.556   6.516 -0.7335 -0.0000 -0.0541
   68SAPC    HS 5713   5.269   5.603   6.542 -1.7172 -1.1168 -1.6252
   68SAPC   O21 5714   5.465   5.592   6.622 -0.1098  0.1526  0.5079
   68SAPC   C21 5715   5.468   5.720   6.642  0.3171  0.2713  1.1908
   68SAPC   O22 5716   5.395   5.801   6.584 -0.5454 -0.4821 -0.4041
   68SAPC   C22 5717   5.581   5.765   6.739 -0.0167  0.2053 -0.8027
   68SAPC   H2R 5718   5.557   5.707   6.832 -3.8420  1.7639 -0.6053
   68SAPC   H2S 5719   5.673   5.727   6.690  0.7304 -1.6898  1.8525
   68SAPC    C3 5720   5.351   5.401   6.527  0.2416  0.5386 -0.6001
   68SAPC    HX 5721   5.453   5.359   6.517 -0.5694 -1.3205 -1.5240
   68SAPC    HY 5722   5.286   5.363   6.445  0.8607 -1.9033 -0.0387
   68SAPC   O31 5723   5.278   5.370   6.650  0.1497  0.6505  0.1443
   68SAPC   C31 5724   5.341   5.269   6.718 -0.0015 -0.2658  0.4453
   68SAPC   O32 5725   5.440   5.212   6.677 -0.4602 -0.2913  0.3019
   68SAPC   C32 5726   5.270   5.237   6.839  1.2608  0.2116  0.5799
   68SAPC   H2X 5727   5.261   5.127   6.844  4.9072 -0.4970 -2.9547
   68SAPC   H2Y 5728   5.165   5.267   6.821  0.8855 -2.0957 -1.6501
   68SAPC   C23 5729   5.586   5.918   6.760 -0.6305  0.2313  0.2766
   68SAPC   H3R 5730   5.591   5.964   6.659 -0.6717 -0.6266 -0.1247
   68SAPC   H3S 5731   5.686   5.949   6.796  1.3841 -1.7360 -3.0931
   68SAPC   C24 5732   5.479   5.983   6.843  0.2852 -0.3568 -0.0446
   68SAPC   H4R 5733   5.396   5.973   6.769  0.5765 -0.6821 -0.3333
   68SAPC   H4S 5734   5.510   6.088   6.864 -0.5656 -0.0606 -0.2162
   68SAPC   C25 5735   5.449   5.915   6.973 -0.1151  0.4765 -0.6220
   68SAPC   H5R 5736   5.528   5.903   7.048 -0.5232  1.1854 -0.0543
   68SAPC   C26 5737   5.327   5.867   7.023 -0.8490  0.2438 -0.1492
   68SAPC   H6R 5738   5.335   5.817   7.120 -0.7521  0.7349  0.1006
   68SAPC   C27 5739   5.190   5.872   6.956  0.5223 -0.1016 -0.6095
   68SAPC   H7R 5740   5.172   5.961   6.892 -1.2537  0.4839  0.6173
   68SAPC   H7S 5741   5.106   5.879   7.028  0.2683  1.7117 -1.0388
   68SAPC   C28 5742   5.167   5.743   6.869  0.1707  0.4956  1.0199
   68SAPC   H8R 5743   5.178   5.762   6.761  1.8209  1.6874  1.3512
   68SAPC   C29 5744   5.143   5.624   6.923 -0.0769  0.4340  0.2515
   68SAPC   H9R 5745   5.134   5.536   6.857 -2.2816 -0.3245  1.4607
   68SAPC  C210 5746   5.113   5.593   7.069  0.5446 -0.2074  0.8737
   68SAPC  H10R 5747   5.065   5.681   7.117  1.9780  0.0401  1.8992
   68SAPC  H10S 5748   5.207   5.581   7.126  0.5219  0.5225  1.0814
   68SAPC  C211 5749   5.033   5.463   7.072 -0.3831  0.0866 -0.1856
   68SAPC  H11R 5750   5.000   5.420   6.976 -0.5030 -2.1425  0.7781
   68SAPC  C212 5751   4.971   5.423   7.184  0.5238  0.1570  0.1005
   68SAPC  H12R 5752   4.897   5.342   7.179  1.8026 -1.0367 -0.2173
   68SAPC  C213 5753   4.958   5.472   7.324  0.2716 -0.3586 -0.6283
   68SAPC  H13R 5754   4.856   5.439   7.353  0.0959  0.2183 -0.5688
   68SAPC  H13S 5755   4.962   5.582   7.343  1.1940 -0.3107 -1.0232
   68SAPC  C214 5756   5.070   5.411   7.398  0.4475 -0.3211 -0.2936
   68SAPC  H14R 5757   5.172   5.445   7.380  1.3944 -0.2189  4.0991
   68SAPC  C215 5758   5.057   5.335   7.510 -0.3485  0.3223  0.1496
   68SAPC  H15R 5759   5.143   5.293   7.566 -0.6131 -0.6185 -0.1312
   68SAPC  C216 5760   4.926   5.291   7.580 -0.2860 -0.1376  0.0923
   68SAPC  H16R 5761   4.922   5.180   7.577 -1.1489 -0.1284  0.4086
   68SAPC  H16S 5762   4.834   5.336   7.535  0.1624 -1.8827 -2.8737
   68SAPC  C217 5763   4.923   5.358   7.720  0.8715 -0.7295 -0.4138
   68SAPC  H17R 5764   4.888   5.463   7.704 -1.7423 -1.2341  1.3211
   68SAPC  H17S 5765   5.013   5.371   7.783  1.5775 -0.8312 -1.3683
   68SAPC  C218 5766   4.805   5.297   7.798  0.2269 -0.7669 -0.6102
   68SAPC  H18R 5767   4.821   5.187   7.804  0.4527 -0.7152 -0.2076
   68SAPC  H18S 5768   4.712   5.317   7.741 -1.0207  1.4818  2.0392
   68SAPC  C219 5769   4.769   5.359   7.929 -0.1562  0.1922  0.1695
   68SAPC  H19R 5770   4.673   5.327   7.974 -1.6840 -1.4697 -3.8443
   68SAPC  H19S 5771   4.759   5.467   7.909 -0.3445  0.1499  0.0386
   68SAPC  C220 5772   4.872   5.343   8.039  0.0242  0.2562 -0.1817
   68SAPC  H20R 5773   4.836   5.387   8.135  0.7587 -0.6484  0.5244
   68SAPC  H20S 5774   4.967   5.401   8.029 -0.2591  0.7796  0.0945
   68SAPC  H20T 5775   4.901   5.237   8.051  2.6523  0.8943 -0.0816
   68SAPC   C33 5776   5.329   5.298   6.967 -0.7438  0.6413  0.5361
   68SAPC   H3X 5777   5.256   5.276   7.048 -0.7713  2.8657  1.1715
   68SAPC   H3Y 5778   5.326   5.408   6.948 -3.2584  0.6974  0.8818
   68SAPC   C34 5779   5.469   5.250   6.994  0.3582 -0.1102  0.0310
   68SAPC   H4X 5780   5.541   5.245   6.909  0.6789 -0.9366  0.3417
   68SAPC   H4Y 5781   5.469   5.146   7.032  1.5559 -0.2248 -0.2384
   68SAPC   C35 5782   5.520   5.338   7.104  0.2926  0.3286 -0.1347
   68SAPC   H5X 5783   5.521   5.446   7.078 -1.0420  0.2614 -0.5475
   68SAPC   H5Y 5784   5.628   5.316   7.116 -0.4712 -2.4423  2.6939
   68SAPC   C36 5785   5.457   5.300   7.242 -0.2217 -0.0970  0.8228
   68SAPC   H6X 5786   5.447   5.189   7.238  0.1801 -0.1533 -3.3980
   68SAPC   H6Y 5787   5.356   5.345   7.235  0.4553  1.3868  0.1484
   68SAPC   C37 5788   5.520   5.356   7.374  0.2489 -0.4189 -0.3880
   68SAPC   H7X 5789   5.532   5.463   7.346  0.4097 -0.4222 -0.3326
   68SAPC   H7Y 5790   5.615   5.303   7.397  0.6071  0.5694  0.4921
   68SAPC   C38 5791   5.411   5.338   7.481 -0.5393 -0.5131  0.5053
   68SAPC   H8X 5792   5.347   5.253   7.447 -0.8710 -0.3229  0.6510
   68SAPC   H8Y 5793   5.362   5.437   7.483 -0.4662 -0.4845  0.9179
   68SAPC   C39 5794   5.461   5.305   7.621  0.0660 -0.3746  0.1778
   68SAPC   H9X 5795   5.539   5.380   7.648  0.0910 -0.5584  0.6218
   68SAPC   H9Y 5796   5.506   5.205   7.633  0.6734 -0.2564 -0.9949
   68SAPC  C310 5797   5.350   5.306   7.721  0.0806  0.6396 -0.5157
   68SAPC  H10X 5798   5.279   5.225   7.695  1.1534 -0.3555 -0.4106
   68SAPC  H10Y 5799   5.297   5.403   7.709  1.6753  1.9474  2.0328
   68SAPC  C311 5800   5.390   5.299   7.872  0.0029 -0.0782  0.3317
   68SAPC  H11X 5801   5.462   5.378   7.905 -0.8116  0.4616  0.8562
   68SAPC  H11Y 5802   5.430   5.197   7.891 -1.7020 -0.9043 -0.3538
   68SAPC  C312 5803   5.264   5.324   7.962  0.1625  0.3381  0.2300
   68SAPC  H12X 5804   5.170   5.289   7.914  0.4512 -0.8644  0.5294
   68SAPC  H12Y 5805   5.252   5.435   7.962  0.5200  0.3927 -1.3386
   68SAPC  C313 5806   5.266   5.275   8.107  0.9427  0.3695 -0.7449
   68SAPC  H13X 5807   5.283   5.165   8.102 -1.2361  0.0394 -2.7101
   68SAPC  H13Y 5808   5.168   5.298   8.155  0.9414  2.9236 -1.8184
   68SAPC  C314 5809   5.363   5.337   8.203  0.4250 -0.2488 -0.3219
   68SAPC  H14X 5810   5.313   5.352   8.301 -1.7889 -1.7133 -1.1452
   68SAPC  H14Y 5811   5.372   5.440   8.163 -0.6881  0.4224  1.0840
   68SAPC  C315 5812   5.497   5.280   8.220 -0.1717  0.5116 -0.3459
   68SAPC  H15X 5813   5.541   5.346   8.298 -0.8350 -0.0722  0.5455
   68SAPC  H15Y 5814   5.552   5.292   8.124 -0.6632  1.7683 -0.4795
   68SAPC  C316 5815   5.503   5.135   8.287 -0.2400 -0.5329 -0.5140
   68SAPC  H16X 5816   5.423   5.138   8.363  0.6226  0.8484  0.4023
   68SAPC  H16Y 5817   5.595   5.133   8.350 -1.1265  0.7817  0.8979
   68SAPC  C317 5818   5.510   5.015   8.190 -0.1604  0.1249 -0.2527
   68SAPC  H17X 5819   5.434   5.028   8.109 -2.8383 -1.4933  1.8124
   68SAPC  H17Y 5820   5.477   4.928   8.251  0.8556  0.8656  1.4023
   68SAPC  C318 5821   5.644   5.003   8.127 -0.1606 -0.1121 -0.0110
   68SAPC  H18X 5822   5.675   5.075   8.047 -1.6463 -0.6766 -1.1307
   68SAPC  H18Y 5823   5.657   4.900   8.089  1.0203  0.3638 -0.9749
   68SAPC  H18Z 5824   5.726   5.006   8.202  1.3972 -1.3067 -1.5960
   69SLPC     N 5825   1.504   3.728  10.965  0.4237 -1.0399  0.2559
   69SLPC   C13 5826   1.389   3.766  11.057 -0.2445  0.5058 -0.1819
   69SLPC  H13A 5827   1.415   3.862  11.101 -0.5702  1.9347 -2.9094
   69SLPC  H13B 5828   1.292   3.779  11.012 -1.5966  0.0952  2.4377
   69SLPC  H13C 5829   1.386   3.696  11.139  1.3075 -2.0305 -2.1405
   69SLPC   C14 5830   1.477   3.596  10.894 -0.2262  0.3483 -0.2027
   69SLPC  H14A 5831   1.571   3.546  10.874  0.7658  1.7815  0.6509
   69SLPC  H14B 5832   1.434   3.522  10.961  0.3419 -0.6018 -0.8600
   69SLPC  H14C 5833   1.423   3.616  10.803 -1.1765 -0.8027  0.0800
   69SLPC   C15 5834   1.637   3.716  11.045 -0.2432 -0.4156 -0.1827
   69SLPC  H15A 5835   1.680   3.815  11.055  1.8065 -1.3885  1.1202
   69SLPC  H15B 5836   1.631   3.665  11.140  0.5978  0.1796  0.2021
   69SLPC  H15C 5837   1.718   3.666  10.995  0.6446  1.7257 -0.9956
   69SLPC   C12 5838   1.521   3.847  10.871  0.0725  0.5935 -0.5649
   69SLPC  H12A 5839   1.450   3.837  10.790  1.1739 -0.8094 -1.3940
   69SLPC  H12B 5840   1.619   3.845  10.826  0.0326  2.6139 -0.8596
   69SLPC   C11 5841   1.513   3.993  10.930 -0.5828 -0.1523  0.4457
   69SLPC  H11A 5842   1.571   4.066  10.870  2.3009 -0.1670  2.9575
   69SLPC  H11B 5843   1.563   3.992  11.029 -0.8699 -0.2749  0.5929
   69SLPC     P 5844   1.337   4.159  11.049  0.2844  0.2816  0.4440
   69SLPC   O13 5845   1.189   4.150  11.072 -0.2429 -0.6664  0.3072
   69SLPC   O14 5846   1.423   4.178  11.170  0.1803 -0.5564  0.7089
   69SLPC   O12 5847   1.379   4.033  10.959  0.5720 -0.3753 -0.4265
   69SLPC   O11 5848   1.363   4.275  10.945  0.6173 -0.4375 -0.2381
   69SLPC    C1 5849   1.490   4.331  10.908  0.0074  0.3591  0.6820
   69SLPC    HA 5850   1.500   4.434  10.950 -1.7211  1.5544 -1.5928
   69SLPC    HB 5851   1.576   4.270  10.941 -0.2837  0.5184  1.7693
   69SLPC    C2 5852   1.506   4.354  10.761  0.3663 -0.2563  0.2602
   69SLPC    HS 5853   1.419   4.415  10.728  0.1903 -0.1844  0.8334
   69SLPC   O21 5854   1.513   4.228  10.689 -0.0562 -0.1673  0.6011
   69SLPC   C21 5855   1.475   4.240  10.560  0.1922 -1.2717  0.4587
   69SLPC   O22 5856   1.414   4.334  10.510  0.3055 -0.2046 -0.0186
   69SLPC   C22 5857   1.518   4.121  10.483  0.1309 -0.0790  0.2184
   69SLPC   H2R 5858   1.629   4.107  10.480  0.1195 -0.2755  0.6790
   69SLPC   H2S 5859   1.491   4.020  10.520 -0.7625 -0.1002 -0.4548
   69SLPC    C3 5860   1.632   4.447  10.733  0.5178  0.7955 -0.0843
   69SLPC    HX 5861   1.715   4.380  10.767 -0.5219 -0.6428 -0.2927
   69SLPC    HY 5862   1.643   4.529  10.807 -1.3224  0.4879  0.5863
   69SLPC   O31 5863   1.661   4.472  10.599  0.3910 -0.1564 -0.0767
   69SLPC   C31 5864   1.601   4.590  10.555  0.2568  0.1174  0.1717
   69SLPC   O32 5865   1.516   4.643  10.620  0.0296 -0.2199 -0.4540
   69SLPC   C32 5866   1.647   4.628  10.409  0.0206 -0.7162  0.2145
   69SLPC   H2X 5867   1.756   4.607  10.409  0.1043 -0.2818  0.5365
   69SLPC   H2Y 5868   1.634   4.738  10.398 -3.0326 -1.1350 -1.5400
   69SLPC   C23 5869   1.469   4.122  10.333  0.5466  0.2235 -0.0362
   69SLPC   H3R 5870   1.505   4.213  10.280  1.6168 -0.4605 -0.5136
   69SLPC   H3S 5871   1.360   4.105  10.325  0.5827 -0.3952  0.6939
   69SLPC   C24 5872   1.526   3.998  10.259  0.9177 -0.0888  0.3469
   69SLPC   H4R 5873   1.522   3.916  10.334 -1.2494  0.0748  0.4721
   69SLPC   H4S 5874   1.627   4.006  10.213  1.1437  0.8955  0.9847
   69SLPC   C25 5875   1.427   3.945  10.142  0.1082 -0.6906 -0.1905
   69SLPC   H5R 5876   1.331   3.920  10.193  0.3025  0.0595  0.5594
   69SLPC   H5S 5877   1.459   3.852  10.089 -0.7529 -0.4877 -1.0780
   69SLPC   C26 5878   1.397   4.039  10.021 -0.1310  0.1303  0.2814
   69SLPC   H6R 5879   1.381   4.141  10.063 -0.9119  1.0637 -2.1322
   69SLPC   H6S 5880   1.303   4.011   9.969  0.6955  0.2737 -1.3468
   69SLPC   C27 5881   1.516   4.054   9.925  0.1572  0.4961 -0.0461
   69SLPC   H7R 5882   1.536   3.950   9.894 -0.3891  0.8144 -1.5505
   69SLPC   H7S 5883   1.608   4.084   9.979 -0.4490  1.7653  0.3439
   69SLPC   C28 5884   1.486   4.147   9.803 -0.0417  0.9819  0.5052
   69SLPC   H8R 5885   1.388   4.106   9.772  1.3634 -1.9662 -0.4367
   69SLPC   H8S 5886   1.559   4.120   9.723  1.1672  0.3906  1.7680
   69SLPC   C29 5887   1.488   4.296   9.841 -0.3937  0.1413  0.0249
   69SLPC   H9R 5888   1.452   4.318   9.942 -0.6504  2.3424 -0.5028
   69SLPC  C210 5889   1.543   4.394   9.758 -0.7924  0.1190  0.2140
   69SLPC  H10R 5890   1.513   4.498   9.777 -0.2559  0.5684 -1.2648
   69SLPC  C211 5891   1.605   4.364   9.621  0.6913  0.2453  0.2198
   69SLPC  H11R 5892   1.626   4.255   9.613  0.2808  0.2555 -1.6177
   69SLPC  H11S 5893   1.705   4.412   9.615  0.7416  0.0045 -1.7943
   69SLPC  C212 5894   1.512   4.403   9.506  0.1044  0.7876  0.4503
   69SLPC  H12R 5895   1.405   4.420   9.526  0.3228  1.8313  0.8123
   69SLPC  C213 5896   1.546   4.429   9.374 -0.3418 -0.1659  0.1508
   69SLPC  H13R 5897   1.472   4.465   9.301 -0.5532 -0.8176  0.0350
   69SLPC  C214 5898   1.686   4.416   9.311 -0.5182  0.3247 -0.1719
   69SLPC  H14R 5899   1.710   4.308   9.297  1.4732  0.8576 -1.1559
   69SLPC  H14S 5900   1.770   4.439   9.379  0.9515 -3.1604 -0.5958
   69SLPC  C215 5901   1.715   4.480   9.173  0.6860  0.2417 -0.1307
   69SLPC  H15R 5902   1.825   4.497   9.171  0.9918 -1.4920 -0.0598
   69SLPC  H15S 5903   1.669   4.580   9.179 -2.7011 -1.0629 -1.8736
   69SLPC  C216 5904   1.674   4.389   9.057 -0.0357 -0.0391  0.2166
   69SLPC  H16R 5905   1.570   4.353   9.071  0.6501 -2.2084  0.1776
   69SLPC  H16S 5906   1.740   4.300   9.064  3.4617  2.4368  1.1994
   69SLPC  C217 5907   1.693   4.446   8.918 -0.1434  0.3410 -0.4345
   69SLPC  H17R 5908   1.798   4.484   8.911  0.9556 -2.3900  0.0577
   69SLPC  H17S 5909   1.623   4.531   8.902 -0.0606  0.3015 -1.0428
   69SLPC  C218 5910   1.675   4.339   8.812  0.4160  0.1555  0.3437
   69SLPC  H18R 5911   1.714   4.237   8.834 -1.7673 -0.9235 -0.5328
   69SLPC  H18S 5912   1.715   4.387   8.719 -0.6105  0.3089 -0.0250
   69SLPC  H18T 5913   1.570   4.329   8.777  0.8269 -0.9445 -0.6231
   69SLPC   C33 5914   1.578   4.550  10.297 -0.4940 -0.0200  0.0316
   69SLPC   H3X 5915   1.603   4.441  10.296  2.7492  0.6228  0.2055
   69SLPC   H3Y 5916   1.621   4.580  10.199 -1.0750  0.6133 -0.0353
   69SLPC   C34 5917   1.427   4.566  10.287 -0.3143  0.2657  0.1293
   69SLPC   H4X 5918   1.382   4.558  10.388  1.2442 -0.7554  0.7833
   69SLPC   H4Y 5919   1.387   4.484  10.223 -1.1909  0.7100  0.1014
   69SLPC   C35 5920   1.389   4.701  10.224 -0.1889  0.2075  0.4274
   69SLPC   H5X 5921   1.442   4.698  10.126 -1.9279 -0.4976 -0.5494
   69SLPC   H5Y 5922   1.434   4.781  10.285  0.9413  1.5253 -1.9986
   69SLPC   C36 5923   1.241   4.711  10.211 -0.1586 -0.8248  0.0352
   69SLPC   H6X 5924   1.230   4.821  10.221  0.7283 -0.7130 -0.1485
   69SLPC   H6Y 5925   1.197   4.666  10.303 -1.3632  1.8890  0.8706
   69SLPC   C37 5926   1.173   4.650  10.088 -1.0584  0.7222 -0.5181
   69SLPC   H7X 5927   1.067   4.685  10.088 -1.2396  0.2114 -1.6139
   69SLPC   H7Y 5928   1.168   4.542  10.112 -2.4272  0.7654 -0.5425
   69SLPC   C38 5929   1.228   4.667   9.948 -0.5741  0.1740  0.8841
   69SLPC   H8X 5930   1.163   4.619   9.873 -0.3928 -1.6172  1.8190
   69SLPC   H8Y 5931   1.324   4.611   9.948 -0.9110 -0.4101  0.5904
   69SLPC   C39 5932   1.258   4.812   9.918 -0.9827 -0.3665  1.2034
   69SLPC   H9X 5933   1.361   4.837   9.953 -0.9071  0.8727  0.1707
   69SLPC   H9Y 5934   1.187   4.876   9.975 -0.7000  1.9761 -0.8942
   69SLPC  C310 5935   1.225   4.847   9.771  0.2712 -0.5535 -0.0612
   69SLPC  H10X 5936   1.228   4.958   9.764  0.1576 -0.5314  0.2379
   69SLPC  H10Y 5937   1.131   4.799   9.736  1.0157 -2.8120  0.8942
   69SLPC  C311 5938   1.332   4.798   9.673 -0.0959  0.3853 -0.1141
   69SLPC  H11X 5939   1.339   4.688   9.688 -1.0520  0.5747  2.2782
   69SLPC  H11Y 5940   1.421   4.862   9.688  0.7401 -0.9691  1.0070
   69SLPC  C312 5941   1.297   4.817   9.526 -0.3693 -0.2098 -0.5187
   69SLPC  H12X 5942   1.250   4.916   9.510  0.4449  0.1714 -0.5848
   69SLPC  H12Y 5943   1.225   4.737   9.499  0.8756 -1.8922  0.9250
   69SLPC  C313 5944   1.418   4.792   9.436 -0.4135 -0.2987  0.4445
   69SLPC  H13X 5945   1.450   4.686   9.447 -1.2007 -0.5799  0.0685
   69SLPC  H13Y 5946   1.504   4.851   9.473  0.3055 -1.4327  0.6277
   69SLPC  C314 5947   1.393   4.833   9.290  1.0659 -0.6275 -0.0072
   69SLPC  H14X 5948   1.489   4.848   9.236  0.1699 -0.1111 -1.4926
   69SLPC  H14Y 5949   1.364   4.940   9.293  2.1395 -0.2189 -2.2040
   69SLPC  C315 5950   1.279   4.762   9.212  0.0690  0.3813  0.1523
   69SLPC  H15X 5951   1.188   4.751   9.276  0.8583 -0.8132  1.1183
   69SLPC  H15Y 5952   1.314   4.657   9.198  1.6839  0.6187  1.9299
   69SLPC  C316 5953   1.249   4.824   9.071 -0.0959  0.7844  1.1985
   69SLPC  H16X 5954   1.211   4.925   9.095 -1.7562  0.6901 -0.7774
   69SLPC  H16Y 5955   1.181   4.755   9.017  2.2733 -0.7127 -0.0623
   69SLPC  C317 5956   1.371   4.853   8.982 -0.5843 -0.4154  0.0478
   69SLPC  H17X 5957   1.432   4.761   8.970  0.1076  0.0529 -0.0878
   69SLPC  H17Y 5958   1.435   4.932   9.028 -2.0822  0.5623  0.5554
   69SLPC  C318 5959   1.340   4.912   8.849 -0.0024  0.4989 -0.1004
   69SLPC  H18X 5960   1.433   4.929   8.790  0.1977  1.0101  0.3530
   69SLPC  H18Y 5961   1.291   5.011   8.861  0.6069  0.9853 -1.4891
   69SLPC  H18Z 5962   1.261   4.857   8.794 -0.2487  0.6026  0.1441
   70SLPC     N 5963   1.473   2.899  11.119 -0.7237  0.2039  0.6109
   70SLPC   C13 5964   1.405   2.863  11.248  0.7634 -0.7079 -0.5172
   70SLPC  H13A 5965   1.435   2.764  11.280 -0.8401 -0.7718  0.9353
   70SLPC  H13B 5966   1.417   2.936  11.326 -2.2642  1.1862 -1.6518
   70SLPC  H13C 5967   1.298   2.850  11.236  0.8291 -1.7240 -0.1517
   70SLPC   C14 5968   1.423   3.037  11.066 -0.5125  0.3981 -0.2277
   70SLPC  H14A 5969   1.320   3.037  11.035 -0.5093  0.1705 -0.2380
   70SLPC  H14B 5970   1.430   3.102  11.152  0.7333 -0.6087  0.4698
   70SLPC  H14C 5971   1.486   3.069  10.984  0.3173 -3.2611 -1.2182
   70SLPC   C15 5972   1.431   2.798  11.020 -0.5256  0.4697 -0.1349
   70SLPC  H15A 5973   1.328   2.791  10.989 -0.0236 -3.4647 -1.5103
   70SLPC  H15B 5974   1.475   2.827  10.926 -1.8229 -0.1571 -0.9547
   70SLPC  H15C 5975   1.452   2.694  11.044 -1.4106 -0.3148 -2.4923
   70SLPC   C12 5976   1.627   2.907  11.134 -0.2943 -0.1536 -0.3640
   70SLPC  H12A 5977   1.664   2.816  11.178 -2.6620 -0.8783  0.2420
   70SLPC  H12B 5978   1.649   2.985  11.206  0.5191 -0.8653  0.1878
   70SLPC   C11 5979   1.715   2.952  11.012  0.5154 -0.0457  0.2469
   70SLPC  H11A 5980   1.818   2.963  11.051  0.0300  1.5711  1.1859
   70SLPC  H11B 5981   1.696   3.055  10.973  1.2016 -0.6568 -1.7682
   70SLPC     P 5982   1.806   2.862  10.794  0.1214  0.5498  0.2611
   70SLPC   O13 5983   1.936   2.881  10.854  0.1634  0.2680 -0.5927
   70SLPC   O14 5984   1.784   2.742  10.712 -0.1236  0.4813 -0.2436
   70SLPC   O12 5985   1.707   2.853  10.916 -0.4834 -0.9567  0.2819
   70SLPC   O11 5986   1.765   2.997  10.726 -0.1466 -0.5635  0.1627
   70SLPC    C1 5987   1.629   3.043  10.701 -0.8365 -0.1307 -0.1859
   70SLPC    HA 5988   1.556   2.979  10.755 -1.9982  1.6377  0.4232
   70SLPC    HB 5989   1.623   3.144  10.747 -4.1255  0.1428 -0.9775
   70SLPC    C2 5990   1.605   3.045  10.549 -0.1176  0.5355  0.0764
   70SLPC    HS 5991   1.501   3.079  10.531 -0.3012 -0.4082 -0.7201
   70SLPC   O21 5992   1.623   2.911  10.489  0.1536 -0.2748  0.6442
   70SLPC   C21 5993   1.515   2.856  10.444  0.0363  0.4215  0.4215
   70SLPC   O22 5994   1.407   2.910  10.424 -0.6254  0.3264 -0.9376
   70SLPC   C22 5995   1.569   2.727  10.387 -0.6858  1.3965 -0.1846
   70SLPC   H2R 5996   1.661   2.735  10.326  0.6305 -0.8749  1.3504
   70SLPC   H2S 5997   1.598   2.670  10.479  1.6922  2.5585 -0.1408
   70SLPC    C3 5998   1.709   3.150  10.490  0.1312  0.7046  1.1743
   70SLPC    HX 5999   1.810   3.105  10.488 -0.7155 -1.2967  1.3614
   70SLPC    HY 6000   1.713   3.229  10.569  0.3704 -0.0597  1.9479
   70SLPC   O31 6001   1.670   3.195  10.361 -0.0492 -0.3713  0.3786
   70SLPC   C31 6002   1.585   3.293  10.361  0.5783 -0.0545 -0.1467
   70SLPC   O32 6003   1.533   3.341  10.463 -0.0703 -0.3573 -0.6369
   70SLPC   C32 6004   1.557   3.339  10.225  0.2431 -0.0508 -0.2588
   70SLPC   H2X 6005   1.622   3.287  10.152  0.7134  1.1786 -0.7456
   70SLPC   H2Y 6006   1.581   3.448  10.221  2.4425 -0.5385 -2.5364
   70SLPC   C23 6007   1.463   2.641  10.321  0.9002  0.2388  0.1995
   70SLPC   H3R 6008   1.358   2.648  10.355  1.1270  0.4820  0.8704
   70SLPC   H3S 6009   1.484   2.533  10.338  2.9563  0.7059  0.9812
   70SLPC   C24 6010   1.466   2.654  10.163  0.4297 -0.0171 -0.4715
   70SLPC   H4R 6011   1.402   2.575  10.119 -0.1351  0.3886 -0.4018
   70SLPC   H4S 6012   1.572   2.635  10.138  0.5244  1.0501 -0.9451
   70SLPC   C25 6013   1.438   2.794  10.094  0.1215  0.1458  0.0828
   70SLPC   H5R 6014   1.525   2.863  10.095 -1.1095  1.8726  3.5267
   70SLPC   H5S 6015   1.346   2.828  10.147 -1.3294 -0.7829 -1.7361
   70SLPC   C26 6016   1.396   2.774   9.950 -0.6305 -0.4268 -0.6432
   70SLPC   H6R 6017   1.312   2.703   9.931 -1.0646 -0.8930  2.5634
   70SLPC   H6S 6018   1.486   2.737   9.895  0.4432  0.8600  0.2064
   70SLPC   C27 6019   1.352   2.911   9.874 -0.3757 -0.8168  0.7232
   70SLPC   H7R 6020   1.425   2.989   9.903  0.0070  0.3640 -2.9247
   70SLPC   H7S 6021   1.252   2.942   9.910  0.6631  1.4895  1.8351
   70SLPC   C28 6022   1.378   2.901   9.714 -0.1032  0.3030 -0.3145
   70SLPC   H8R 6023   1.485   2.873   9.703 -0.2658 -0.1141 -0.8519
   70SLPC   H8S 6024   1.360   3.003   9.674  0.6681  0.0638 -1.3095
   70SLPC   C29 6025   1.278   2.797   9.661 -0.0927  0.0492  0.7278
   70SLPC   H9R 6026   1.174   2.804   9.694 -0.2818 -1.7950  0.6021
   70SLPC  C210 6027   1.303   2.690   9.596 -0.2922  0.0126  0.1858
   70SLPC  H10R 6028   1.226   2.615   9.571  1.9735 -2.7588  0.9937
   70SLPC  C211 6029   1.440   2.632   9.558  0.1900  0.2309  0.5471
   70SLPC  H11R 6030   1.486   2.592   9.651 -1.3491  0.9348  1.6537
   70SLPC  H11S 6031   1.513   2.705   9.516 -0.9570  0.0089 -1.9870
   70SLPC  C212 6032   1.427   2.525   9.453 -0.3911  0.1460 -0.3377
   70SLPC  H12R 6033   1.442   2.424   9.494  0.3101  0.3726 -0.0165
   70SLPC  C213 6034   1.411   2.550   9.323  0.4665  0.0458 -0.5824
   70SLPC  H13R 6035   1.386   2.466   9.257 -1.5138  1.8622 -2.3486
   70SLPC  C214 6036   1.394   2.687   9.263 -0.6494 -0.2843  0.4510
   70SLPC  H14R 6037   1.393   2.765   9.342  0.1412  1.3710 -1.0850
   70SLPC  H14S 6038   1.306   2.691   9.196  0.7999 -1.8663 -1.6829
   70SLPC  C215 6039   1.511   2.719   9.165 -0.3015  0.6488  0.1124
   70SLPC  H15R 6040   1.529   2.641   9.089 -0.1220 -0.9253  1.6930
   70SLPC  H15S 6041   1.606   2.719   9.224  0.7106 -0.3615 -1.4408
   70SLPC  C216 6042   1.500   2.860   9.109  0.0776 -0.5291 -0.2256
   70SLPC  H16R 6043   1.603   2.899   9.101  0.1996  0.0122  2.8497
   70SLPC  H16S 6044   1.453   2.920   9.190  1.5253 -0.4175  0.5646
   70SLPC  C217 6045   1.409   2.864   8.982  0.1264  0.8498 -0.6333
   70SLPC  H17R 6046   1.312   2.816   9.008  0.2422  0.5258 -0.7922
   70SLPC  H17S 6047   1.451   2.799   8.902  1.0906  1.6033 -0.7622
   70SLPC  C218 6048   1.391   3.008   8.934  0.5163 -0.1631 -0.3338
   70SLPC  H18R 6049   1.328   3.018   8.843 -0.1109  3.8280  0.3616
   70SLPC  H18S 6050   1.488   3.055   8.910 -0.4793  1.3762 -1.5600
   70SLPC  H18T 6051   1.346   3.074   9.011  0.2914  0.7313 -1.1982
   70SLPC   C33 6052   1.402   3.316  10.199 -0.4645  0.3582 -0.1133
   70SLPC   H3X 6053   1.334   3.356  10.278  0.9038  0.9172  0.8322
   70SLPC   H3Y 6054   1.393   3.206  10.203  0.5618  0.2877  0.7615
   70SLPC   C34 6055   1.362   3.357  10.062 -0.0013  0.2351  0.5549
   70SLPC   H4X 6056   1.254   3.337  10.051 -0.4741  1.1679  2.9867
   70SLPC   H4Y 6057   1.432   3.303   9.994  0.4139  0.9276  0.4215
   70SLPC   C35 6058   1.387   3.508  10.036  0.4319 -0.0438 -0.4004
   70SLPC   H5X 6059   1.495   3.535  10.043  0.7457 -1.4746  1.0335
   70SLPC   H5Y 6060   1.329   3.561  10.115  0.6823 -1.8594  1.0775
   70SLPC   C36 6061   1.332   3.540   9.893  0.3464  0.0972 -0.4183
   70SLPC   H6X 6062   1.221   3.530   9.897  0.4120 -0.9922 -0.9352
   70SLPC   H6Y 6063   1.375   3.463   9.825  0.0924 -0.9539  0.5902
   70SLPC   C37 6064   1.373   3.684   9.845 -0.0405 -1.0437 -0.0673
   70SLPC   H7X 6065   1.481   3.701   9.865 -0.3061  1.7689 -0.5527
   70SLPC   H7Y 6066   1.322   3.761   9.907  0.7614 -1.7746  1.5767
   70SLPC   C38 6067   1.361   3.704   9.691  0.0981  0.0739 -0.2244
   70SLPC   H8X 6068   1.261   3.685   9.646  0.3558 -2.9773  0.2366
   70SLPC   H8Y 6069   1.429   3.625   9.651 -0.6648 -1.1484  0.7977
   70SLPC   C39 6070   1.402   3.839   9.641 -0.0772  0.5320 -0.2662
   70SLPC   H9X 6071   1.500   3.862   9.687 -0.1168 -1.0553  0.6881
   70SLPC   H9Y 6072   1.334   3.916   9.684  0.3866  1.1657 -0.6539
   70SLPC  C310 6073   1.407   3.845   9.489 -0.6336 -0.5305  0.5313
   70SLPC  H10X 6074   1.306   3.834   9.443 -1.6925  3.0161  1.6519
   70SLPC  H10Y 6075   1.475   3.766   9.451 -0.2355 -1.5031  3.0767
   70SLPC  C311 6076   1.469   3.976   9.438 -0.0795  0.5734 -0.2729
   70SLPC  H11X 6077   1.569   3.983   9.487  0.0355  0.4424 -0.4845
   70SLPC  H11Y 6078   1.415   4.060   9.485 -1.1383 -0.3631  0.2220
   70SLPC  C312 6079   1.483   3.986   9.285 -0.1742  0.5040  0.3228
   70SLPC  H12X 6080   1.518   4.089   9.263 -2.3039  1.3329  0.6217
   70SLPC  H12Y 6081   1.378   3.987   9.251 -0.2960  1.0367  0.7086
   70SLPC  C313 6082   1.576   3.887   9.209  0.4804 -0.6090  1.0982
   70SLPC  H13X 6083   1.576   3.927   9.106  2.7806 -0.2080  1.2009
   70SLPC  H13Y 6084   1.535   3.784   9.214 -0.7308 -0.2746 -0.9661
   70SLPC  C314 6085   1.722   3.914   9.256 -0.2384 -0.7112  0.3203
   70SLPC  H14X 6086   1.735   3.886   9.363  0.3220  2.4272  1.1603
   70SLPC  H14Y 6087   1.753   4.019   9.240 -0.2321 -0.5883  1.0877
   70SLPC  C315 6088   1.823   3.828   9.173  0.4230 -0.0664  0.0619
   70SLPC  H15X 6089   1.800   3.723   9.202 -1.1527  0.4352  0.7367
   70SLPC  H15Y 6090   1.925   3.846   9.214  0.6093 -0.7679 -0.0823
   70SLPC  C316 6091   1.818   3.859   9.026 -0.3759  0.0033  0.6461
   70SLPC  H16X 6092   1.870   3.955   9.009  0.3874 -0.4461  0.4056
   70SLPC  H16Y 6093   1.713   3.871   8.991  0.5448  1.1236 -1.9516
   70SLPC  C317 6094   1.893   3.757   8.935 -0.5228 -1.3765 -1.3589
   70SLPC  H17X 6095   1.848   3.656   8.934 -2.2719 -0.8982  2.9708
   70SLPC  H17Y 6096   1.992   3.740   8.983 -0.6499 -0.0720 -0.5692
   70SLPC  C318 6097   1.896   3.811   8.793 -0.2281 -0.1994  0.4081
   70SLPC  H18X 6098   1.908   3.920   8.781 -3.3003  0.3805  1.6579
   70SLPC  H18Y 6099   1.798   3.783   8.749 -0.9213 -0.9955  2.3260
   70SLPC  H18Z 6100   1.970   3.751   8.735  0.7566 -0.9174  2.3131
   71SLPC     N 6101   1.082   0.589  11.238 -0.2329  0.2961  0.1184
   71SLPC   C13 6102   1.182   0.548  11.349 -0.4540  0.3088 -0.2102
   71SLPC  H13A 6103   1.204   0.444  11.331 -0.0696 -0.0714  2.1192
   71SLPC  H13B 6104   1.261   0.621  11.360  0.0669 -0.3098  0.2726
   71SLPC  H13C 6105   1.139   0.542  11.448 -2.0104 -0.9352 -0.9241
   71SLPC   C14 6106   1.072   0.734  11.239 -0.7089 -0.0799  0.1947
   71SLPC  H14A 6107   1.047   0.768  11.338 -2.0460  1.6890 -0.6879
   71SLPC  H14B 6108   1.157   0.788  11.197 -1.9987  0.4485 -1.8958
   71SLPC  H14C 6109   0.988   0.755  11.174 -0.6692  0.3776  0.2889
   71SLPC   C15 6110   0.954   0.531  11.277  0.6358 -0.3549 -0.2720
   71SLPC  H15A 6111   0.873   0.565  11.214 -0.4290 -0.4348  1.0115
   71SLPC  H15B 6112   0.949   0.423  11.282 -0.4890 -0.2678  1.9168
   71SLPC  H15C 6113   0.930   0.575  11.372  0.5888  0.7332 -0.7758
   71SLPC   C12 6114   1.117   0.541  11.091 -0.6470 -0.1602 -0.3720
   71SLPC  H12A 6115   1.134   0.434  11.098 -0.5744 -0.0752  0.9215
   71SLPC  H12B 6116   1.215   0.582  11.071 -1.7063  2.2285 -0.9326
   71SLPC   C11 6117   1.020   0.563  10.972 -0.4072 -0.8170 -0.1989
   71SLPC  H11A 6118   0.928   0.514  11.010  1.7573 -3.1577  2.4212
   71SLPC  H11B 6119   1.070   0.515  10.885  0.7326 -1.0580  0.5776
   71SLPC     P 6120   1.064   0.797  10.863 -0.0094 -0.0323  0.0097
   71SLPC   O13 6121   0.987   0.923  10.854  0.4957  0.2690  0.0345
   71SLPC   O14 6122   1.201   0.822  10.899 -0.1686  0.8768  0.6406
   71SLPC   O12 6123   0.990   0.700  10.947 -0.3529  0.1210 -0.1346
   71SLPC   O11 6124   1.052   0.734  10.724  0.0183 -0.2533  0.6522
   71SLPC    C1 6125   0.937   0.656  10.678  0.1732 -0.3078 -0.3086
   71SLPC    HA 6126   0.966   0.550  10.666  0.1830 -0.0332 -3.8446
   71SLPC    HB 6127   0.849   0.654  10.746  0.2565  2.1833 -0.0223
   71SLPC    C2 6128   0.889   0.701  10.529  0.1067  0.7246  0.0523
   71SLPC    HS 6129   0.810   0.630  10.494  1.6825 -0.7121 -0.7201
   71SLPC   O21 6130   0.997   0.688  10.434 -0.0999  0.4196  0.2439
   71SLPC   C21 6131   1.035   0.556  10.414  0.2832  0.1090 -0.4131
   71SLPC   O22 6132   0.973   0.457  10.453  0.3810 -0.0180  0.1775
   71SLPC   C22 6133   1.166   0.550  10.342  0.2097 -0.7125  0.0967
   71SLPC   H2R 6134   1.244   0.610  10.394  0.2682  0.2664 -1.0867
   71SLPC   H2S 6135   1.197   0.444  10.358 -0.2908 -0.8051  0.4794
   71SLPC    C3 6136   0.830   0.839  10.526 -0.2584 -0.3019 -0.1266
   71SLPC    HX 6137   0.902   0.911  10.571 -2.5265  2.2789 -0.3446
   71SLPC    HY 6138   0.745   0.832  10.596  0.4063 -1.7160  0.5648
   71SLPC   O31 6139   0.780   0.870  10.398 -0.1022 -0.1175  0.9655
   71SLPC   C31 6140   0.827   0.983  10.338 -0.2072  0.2270 -0.0216
   71SLPC   O32 6141   0.885   1.072  10.397  0.0724 -0.8260  0.3721
   71SLPC   C32 6142   0.813   0.976  10.186  0.3873  1.0196  0.2698
   71SLPC   H2X 6143   0.915   0.966  10.143  0.1770 -4.8112  0.2821
   71SLPC   H2Y 6144   0.767   1.071  10.151 -1.2775 -0.0030 -0.3977
   71SLPC   C23 6145   1.155   0.589  10.189  0.0342 -0.7250 -0.7049
   71SLPC   H3R 6146   1.260   0.611  10.157  1.2201  0.6121  3.5271
   71SLPC   H3S 6147   1.103   0.687  10.178 -0.8738 -1.1000  0.2207
   71SLPC   C24 6148   1.104   0.483  10.092  0.3009 -0.4926 -0.0142
   71SLPC   H4R 6149   1.030   0.416  10.140 -0.7090  1.1526  0.8044
   71SLPC   H4S 6150   1.195   0.434  10.051 -0.0043 -0.7625 -0.3734
   71SLPC   C25 6151   1.041   0.535   9.966  0.5599 -0.1939  0.0922
   71SLPC   H5R 6152   0.950   0.592   9.996  0.3392 -0.3159 -0.3411
   71SLPC   H5S 6153   1.003   0.447   9.910 -0.2815 -1.1239  2.0236
   71SLPC   C26 6154   1.130   0.626   9.876  0.4724 -0.2461 -0.1983
   71SLPC   H6R 6155   1.230   0.581   9.857 -0.7657 -2.2658 -2.5588
   71SLPC   H6S 6156   1.145   0.713   9.943 -0.5426  0.5538 -0.9788
   71SLPC   C27 6157   1.069   0.656   9.734 -0.3270 -0.2112  0.7322
   71SLPC   H7R 6158   0.973   0.709   9.749 -0.2328  1.3323 -2.9492
   71SLPC   H7S 6159   1.053   0.554   9.692  0.4732  0.3635 -1.0523
   71SLPC   C28 6160   1.163   0.745   9.642 -0.8565 -0.2856 -0.0917
   71SLPC   H8R 6161   1.254   0.682   9.637  0.0386  0.7753  1.7986
   71SLPC   H8S 6162   1.200   0.842   9.682 -2.2327  0.5995 -0.8800
   71SLPC   C29 6163   1.105   0.769   9.506  0.1476 -0.4411 -0.1785
   71SLPC   H9R 6164   0.999   0.750   9.481  0.1354  0.9788 -1.3084
   71SLPC  C210 6165   1.175   0.802   9.403 -0.1520  0.3668 -0.4159
   71SLPC  H10R 6166   1.120   0.798   9.307 -2.2147 -1.6959  0.7530
   71SLPC  C211 6167   1.326   0.817   9.400 -0.0751 -0.4938  0.0330
   71SLPC  H11R 6168   1.373   0.718   9.421  2.6213  0.1218 -2.3624
   71SLPC  H11S 6169   1.360   0.875   9.488  1.5373  1.7218 -1.9312
   71SLPC  C212 6170   1.387   0.882   9.276  0.2179  0.1456 -0.4075
   71SLPC  H12R 6171   1.417   0.987   9.278 -0.2563  0.3064 -1.5337
   71SLPC  C213 6172   1.411   0.809   9.164 -0.1555 -0.5050 -0.4148
   71SLPC  H13R 6173   1.452   0.862   9.077  1.3526 -2.1107 -0.7332
   71SLPC  C214 6174   1.380   0.669   9.139  0.0918  0.8582 -0.4467
   71SLPC  H14R 6175   1.275   0.655   9.104 -0.1672  0.8512  0.3026
   71SLPC  H14S 6176   1.399   0.623   9.239  2.7442  1.6440 -0.5345
   71SLPC  C215 6177   1.472   0.595   9.032  0.6904 -0.0268 -0.5619
   71SLPC  H15R 6178   1.446   0.487   9.031 -1.4641  0.4498 -1.9857
   71SLPC  H15S 6179   1.577   0.603   9.069 -0.1269 -1.8895  2.5380
   71SLPC  C216 6180   1.476   0.657   8.896 -0.1269 -0.6062 -0.1901
   71SLPC  H16R 6181   1.563   0.621   8.837 -0.8191 -2.8547  0.0735
   71SLPC  H16S 6182   1.490   0.766   8.909  3.0948 -0.9188 -0.1187
   71SLPC  C217 6183   1.356   0.635   8.811  0.4329  0.2141  0.2830
   71SLPC  H17R 6184   1.268   0.668   8.870 -1.5272 -2.4760 -0.9580
   71SLPC  H17S 6185   1.332   0.531   8.781  0.5068  0.1690  0.3795
   71SLPC  C218 6186   1.357   0.712   8.680  0.4841  0.4433 -0.0452
   71SLPC  H18R 6187   1.267   0.688   8.619  2.2705 -1.6980 -2.0054
   71SLPC  H18S 6188   1.458   0.704   8.635  1.8217  1.3638  2.5818
   71SLPC  H18T 6189   1.352   0.820   8.708  0.1815  0.8085 -1.4669
   71SLPC   C33 6190   0.736   0.853  10.144  0.0545 -0.5312 -0.1764
   71SLPC   H3X 6191   0.647   0.848  10.210 -0.2025 -1.2050 -0.5602
   71SLPC   H3Y 6192   0.796   0.762  10.164  1.0971  0.4008  1.0870
   71SLPC   C34 6193   0.683   0.856  10.003 -0.0880 -0.0162 -0.3659
   71SLPC   H4X 6194   0.767   0.852   9.931  0.1263  2.4059 -0.3536
   71SLPC   H4Y 6195   0.648   0.961   9.988 -0.6052 -0.2183 -0.6203
   71SLPC   C35 6196   0.566   0.759   9.980  0.4373  0.2079  0.7002
   71SLPC   H5X 6197   0.475   0.787  10.037 -0.3302  0.7502 -0.7245
   71SLPC   H5Y 6198   0.608   0.665  10.020  2.4385  0.1728 -1.2530
   71SLPC   C36 6199   0.535   0.732   9.832  0.9735 -0.2459  0.3397
   71SLPC   H6X 6200   0.479   0.636   9.833 -2.4924  1.5854 -1.5298
   71SLPC   H6Y 6201   0.628   0.723   9.771  1.0029 -0.9765  0.4857
   71SLPC   C37 6202   0.435   0.834   9.763  0.6881 -0.4051 -0.3468
   71SLPC   H7X 6203   0.467   0.940   9.772 -1.4319  0.2706 -0.1785
   71SLPC   H7Y 6204   0.335   0.817   9.807  0.3098 -0.4549 -1.1945
   71SLPC   C38 6205   0.422   0.815   9.611 -0.2880 -0.4136 -0.2459
   71SLPC   H8X 6206   0.400   0.709   9.584  2.6859 -1.3561  0.6369
   71SLPC   H8Y 6207   0.516   0.844   9.559  0.8373 -3.1022  0.1066
   71SLPC   C39 6208   0.314   0.914   9.562 -0.1187 -0.7006  0.6898
   71SLPC   H9X 6209   0.341   1.016   9.598 -1.4671 -1.0275  2.8248
   71SLPC   H9Y 6210   0.222   0.889   9.619 -0.2491 -0.4062  0.6057
   71SLPC  C310 6211   0.299   0.904   9.410  0.0576  0.4900 -0.1321
   71SLPC  H10X 6212   0.380   0.837   9.374 -1.0107  1.2411 -4.5301
   71SLPC  H10Y 6213   0.322   1.005   9.370  0.0224  0.7827  0.5709
   71SLPC  C311 6214   0.155   0.846   9.372 -0.4845  0.4217 -0.6129
   71SLPC  H11X 6215   0.082   0.897   9.439  0.0505 -0.4051  0.6217
   71SLPC  H11Y 6216   0.157   0.738   9.396  0.0315  0.7755  1.0652
   71SLPC  C312 6217   0.091   0.855   9.229  0.5274  0.8374  0.2146
   71SLPC  H12X 6218   0.140   0.776   9.169 -2.6577 -0.6480 -0.6899
   71SLPC  H12Y 6219   0.119   0.955   9.191  3.4505 -0.5017 -1.4571
   71SLPC  C313 6220  -0.062   0.829   9.228  0.2029  0.8948 -0.4257
   71SLPC  H13X 6221  -0.103   0.856   9.128  1.1883  0.3311 -0.9980
   71SLPC  H13Y 6222  -0.103   0.901   9.302  1.6740 -1.9642  3.4716
   71SLPC  C314 6223  -0.092   0.686   9.270 -0.0533 -0.2252 -0.2689
   71SLPC  H14X 6224  -0.198   0.694   9.304  0.4282  2.7420  0.8799
   71SLPC  H14Y 6225  -0.040   0.665   9.366 -1.0364  0.6047  0.4679
   71SLPC  C315 6226  -0.078   0.572   9.172 -0.1821 -0.0515 -0.0799
   71SLPC  H15X 6227  -0.117   0.485   9.228 -0.5312  0.0758 -0.1203
   71SLPC  H15Y 6228   0.031   0.563   9.153  0.2245 -0.2526  2.0812
   71SLPC  C316 6229  -0.167   0.587   9.049  0.1243  0.3333  0.8898
   71SLPC  H16X 6230  -0.164   0.689   9.005  2.4323  0.3493  0.9590
   71SLPC  H16Y 6231  -0.269   0.568   9.088  0.1695  1.6930  1.7474
   71SLPC  C317 6232  -0.132   0.479   8.949 -0.1700 -0.0906 -0.3207
   71SLPC  H17X 6233  -0.165   0.380   8.985 -1.4194  0.3693 -0.1453
   71SLPC  H17Y 6234  -0.022   0.477   8.935  0.1581  0.3899  1.7803
   71SLPC  C318 6235  -0.193   0.491   8.807 -0.0520 -0.4015 -0.5660
   71SLPC  H18X 6236  -0.138   0.579   8.767  1.7767 -1.5405 -0.6927
   71SLPC  H18Y 6237  -0.301   0.514   8.802  0.5487  3.1673 -0.4063
   71SLPC  H18Z 6238  -0.170   0.396   8.755  0.6782 -0.4004 -0.2634
   72SLPC     N 6239   4.290   0.181  10.737  0.3446 -0.1608  0.2520
   72SLPC   C13 6240   4.228   0.205  10.603 -0.6168 -0.2197  0.4364
   72SLPC  H13A 6241   4.297   0.250  10.534  2.7879 -1.2870  2.8665
   72SLPC  H13B 6242   4.210   0.105  10.567 -3.3423  0.0027  0.9898
   72SLPC  H13C 6243   4.129   0.243  10.621 -0.2768 -0.1253  2.3290
   72SLPC   C14 6244   4.336   0.316  10.792 -0.4012 -0.5951 -0.2469
   72SLPC  H14A 6245   4.390   0.367  10.714  3.2972 -1.1898  1.6958
   72SLPC  H14B 6246   4.250   0.378  10.813 -0.6989 -1.4867  1.3035
   72SLPC  H14C 6247   4.395   0.304  10.882 -0.0690 -4.8560 -0.8196
   72SLPC   C15 6248   4.411   0.092  10.722  0.1950 -0.3154  0.6414
   72SLPC  H15A 6249   4.483   0.146  10.662 -0.5348  0.0288  0.0572
   72SLPC  H15B 6250   4.461   0.082  10.817  1.7371  2.4261  0.2315
   72SLPC  H15C 6251   4.388   0.001  10.668  0.4150 -1.1705  1.9466
   72SLPC   C12 6252   4.188   0.114  10.831 -0.2644  0.2691 -0.3166
   72SLPC  H12A 6253   4.121   0.188  10.872  0.0773  0.2025  0.3734
   72SLPC  H12B 6254   4.241   0.079  10.918 -0.2213 -1.5701 -1.0384
   72SLPC   C11 6255   4.096   0.001  10.769 -0.9033 -0.1898 -0.3497
   72SLPC  H11A 6256   4.048   0.046  10.679 -2.5319 -0.7882  0.1841
   72SLPC  H11B 6257   4.014  -0.008  10.843  0.0120  2.1281  1.0816
   72SLPC     P 6258   4.191  -0.227  10.843  0.5122  0.2738 -0.2105
   72SLPC   O13 6259   4.303  -0.307  10.803 -1.0030  0.0162 -0.2146
   72SLPC   O14 6260   4.208  -0.173  10.978  0.0882  0.3795  0.2957
   72SLPC   O12 6261   4.166  -0.118  10.734 -0.2326 -0.2085 -0.7144
   72SLPC   O11 6262   4.053  -0.310  10.841 -0.2700 -0.2590  0.3923
   72SLPC    C1 6263   3.980  -0.325  10.722  0.2284 -0.4933  0.0395
   72SLPC    HA 6264   3.871  -0.327  10.743  0.5197 -2.5642  1.7212
   72SLPC    HB 6265   3.992  -0.241  10.650 -1.4171 -2.0340 -2.1302
   72SLPC    C2 6266   4.023  -0.455  10.650 -0.3671 -0.1753 -0.0031
   72SLPC    HS 6267   4.132  -0.452  10.625 -0.6484  0.3946 -1.2443
   72SLPC   O21 6268   3.947  -0.471  10.532 -0.4977  0.1346  0.3191
   72SLPC   C21 6269   3.943  -0.387  10.431 -0.1945 -0.5254 -0.4141
   72SLPC   O22 6270   4.008  -0.288  10.418 -0.5087  0.3338  0.2572
   72SLPC   C22 6271   3.848  -0.439  10.321  0.0075 -0.5805 -0.2568
   72SLPC   H2R 6272   3.878  -0.545  10.307 -0.3185 -0.9004  1.2946
   72SLPC   H2S 6273   3.746  -0.446  10.365 -0.3714  0.9250 -0.8172
   72SLPC    C3 6274   4.008  -0.580  10.747  0.1798 -0.4191 -0.5831
   72SLPC    HX 6275   3.912  -0.583  10.803  1.6023  1.0189  2.1227
   72SLPC    HY 6276   4.085  -0.559  10.824 -1.4174  0.9173  0.7350
   72SLPC   O31 6277   4.051  -0.704  10.689  0.3695 -0.7293  0.5997
   72SLPC   C31 6278   3.959  -0.768  10.622  0.4326 -0.0173 -0.6085
   72SLPC   O32 6279   3.841  -0.737  10.612 -0.0613 -0.3542 -0.3067
   72SLPC   C32 6280   4.023  -0.891  10.561 -0.1806 -0.0681  0.2977
   72SLPC   H2X 6281   3.953  -0.949  10.497  2.5961 -0.4343 -2.6940
   72SLPC   H2Y 6282   4.036  -0.974  10.634 -0.7990 -1.6156 -1.2729
   72SLPC   C23 6283   3.815  -0.345  10.205  0.3252  0.4946  0.7265
   72SLPC   H3R 6284   3.797  -0.244  10.248  1.0800 -0.1817  2.7558
   72SLPC   H3S 6285   3.718  -0.371  10.156  1.0574  0.6896 -0.8848
   72SLPC   C24 6286   3.928  -0.345  10.106  0.4334 -0.2981  0.6079
   72SLPC   H4R 6287   4.025  -0.317  10.154  0.4687  0.6462 -0.0088
   72SLPC   H4S 6288   3.901  -0.272  10.027  2.1037  0.5378  0.7558
   72SLPC   C25 6289   3.948  -0.466  10.022 -0.0398 -0.5239 -0.2452
   72SLPC   H5R 6290   3.980  -0.556  10.077 -1.9727  0.9699  3.6746
   72SLPC   H5S 6291   4.031  -0.444   9.951 -0.2147  0.6869 -0.1039
   72SLPC   C26 6292   3.823  -0.505   9.937  0.5282 -0.0025 -0.5085
   72SLPC   H6R 6293   3.788  -0.418   9.877 -0.3826  1.0070  1.3792
   72SLPC   H6S 6294   3.741  -0.528  10.009  1.5965 -0.0705  0.7164
   72SLPC   C27 6295   3.844  -0.636   9.852  0.0180 -0.7107  0.0751
   72SLPC   H7R 6296   3.752  -0.683   9.811 -1.4778  1.3946  0.8686
   72SLPC   H7S 6297   3.879  -0.709   9.928  1.7168  0.9261  0.9540
   72SLPC   C28 6298   3.928  -0.610   9.730 -0.0963 -0.4645 -0.3383
   72SLPC   H8R 6299   3.976  -0.702   9.691  0.8753 -0.1467  0.0733
   72SLPC   H8S 6300   4.019  -0.555   9.760 -1.1561  1.3675 -0.3100
   72SLPC   C29 6301   3.848  -0.534   9.627 -0.4022  0.3290 -0.2060
   72SLPC   H9R 6302   3.795  -0.446   9.666 -0.6285  0.4959 -0.8738
   72SLPC  C210 6303   3.832  -0.580   9.500 -0.5704 -0.2091  0.0011
   72SLPC  H10R 6304   3.778  -0.515   9.430  2.6745  1.4319 -1.2154
   72SLPC  C211 6305   3.904  -0.701   9.445 -0.8883  0.0613 -0.2987
   72SLPC  H11R 6306   3.882  -0.798   9.494 -3.3250 -0.6941 -2.6770
   72SLPC  H11S 6307   4.013  -0.680   9.455 -0.5710 -1.9263  0.9013
   72SLPC  C212 6308   3.869  -0.728   9.300  0.1379 -0.1421 -0.3260
   72SLPC  H12R 6309   3.767  -0.764   9.279  0.7833 -2.9058  0.8577
   72SLPC  C213 6310   3.957  -0.714   9.193  0.0849  0.1186  0.5025
   72SLPC  H13R 6311   3.925  -0.746   9.093 -3.0093  0.9111  1.1355
   72SLPC  C214 6312   4.098  -0.658   9.200  0.0394 -0.1834  0.3587
   72SLPC  H14R 6313   4.172  -0.733   9.233  1.7828  0.9467 -0.8249
   72SLPC  H14S 6314   4.107  -0.572   9.269 -0.6493  1.0732 -1.0543
   72SLPC  C215 6315   4.141  -0.609   9.059 -0.2831  0.1826 -0.3080
   72SLPC  H15R 6316   4.085  -0.515   9.043 -1.5001 -0.5970 -0.7884
   72SLPC  H15S 6317   4.127  -0.681   8.975  0.9275  1.1794 -1.4087
   72SLPC  C216 6318   4.292  -0.587   9.068 -0.8056 -0.0507  0.3440
   72SLPC  H16R 6319   4.345  -0.681   9.095 -0.6671  0.5105  2.2144
   72SLPC  H16S 6320   4.321  -0.519   9.151 -1.4939  0.3985  0.2212
   72SLPC  C217 6321   4.343  -0.544   8.932 -0.9200 -0.3738  0.5044
   72SLPC  H17R 6322   4.321  -0.436   8.918  0.7892 -0.1582 -0.8851
   72SLPC  H17S 6323   4.304  -0.608   8.850  1.7273 -0.1293 -1.0753
   72SLPC  C218 6324   4.499  -0.569   8.938 -0.3009 -0.5609 -0.2561
   72SLPC  H18R 6325   4.523  -0.677   8.933 -1.3864 -0.7834 -1.1229
   72SLPC  H18S 6326   4.550  -0.529   9.028 -1.2370  0.4516 -0.1575
   72SLPC  H18T 6327   4.560  -0.520   8.859  0.7672 -0.3887  0.6505
   72SLPC   C33 6328   4.149  -0.853  10.486  0.1357  0.1643 -0.2714
   72SLPC   H3X 6329   4.221  -0.938  10.494  1.7557  1.6726  2.0454
   72SLPC   H3Y 6330   4.207  -0.771  10.532  0.3882  0.5982 -1.3245
   72SLPC   C34 6331   4.131  -0.814  10.336 -0.7776  0.5084 -0.8454
   72SLPC   H4X 6332   4.061  -0.731  10.314  0.0569  0.8684 -2.2676
   72SLPC   H4Y 6333   4.094  -0.902  10.280  0.0092  0.7111 -1.7013
   72SLPC   C35 6334   4.260  -0.781  10.262 -0.4838  0.3298  0.1299
   72SLPC   H5X 6335   4.333  -0.866  10.266  0.1886  0.8104 -1.3164
   72SLPC   H5Y 6336   4.315  -0.700  10.314  0.5547  0.0028 -0.4182
   72SLPC   C36 6337   4.238  -0.735  10.114 -0.1295  0.1145  0.4231
   72SLPC   H6X 6338   4.322  -0.684  10.063  0.0440  0.2139  0.8012
   72SLPC   H6Y 6339   4.164  -0.652  10.121 -2.7183 -1.9800 -0.2604
   72SLPC   C37 6340   4.184  -0.843  10.022  0.3432  0.4881 -0.3629
   72SLPC   H7X 6341   4.079  -0.867  10.049  1.6167 -2.1528  3.1123
   72SLPC   H7Y 6342   4.235  -0.941  10.033 -0.8897 -0.6529 -3.6466
   72SLPC   C38 6343   4.201  -0.810   9.872  0.1334  0.1234  0.8768
   72SLPC   H8X 6344   4.311  -0.814   9.855  0.0217  1.1520 -0.2795
   72SLPC   H8Y 6345   4.161  -0.708   9.850  4.1142  1.6394 -0.3451
   72SLPC   C39 6346   4.142  -0.918   9.778 -0.0471  0.6317  0.1785
   72SLPC   H9X 6347   4.032  -0.918   9.795  0.0134  0.1987  0.6046
   72SLPC   H9Y 6348   4.180  -1.018   9.811  0.0874  1.5899  3.2058
   72SLPC  C310 6349   4.194  -0.896   9.640  0.1426  0.2000  0.7338
   72SLPC  H10X 6350   4.304  -0.907   9.650  0.0152 -0.4727  1.4569
   72SLPC  H10Y 6351   4.163  -0.796   9.603  0.5384 -0.0960 -0.4559
   72SLPC  C311 6352   4.149  -1.000   9.542  0.0840 -0.6309  0.1615
   72SLPC  H11X 6353   4.049  -0.970   9.505  0.3285 -1.6102 -1.4312
   72SLPC  H11Y 6354   4.141  -1.098   9.594 -1.9771 -1.3211 -1.3346
   72SLPC  C312 6355   4.233  -1.018   9.419  0.4817 -0.2513 -0.2710
   72SLPC  H12X 6356   4.332  -1.065   9.436  0.7398 -0.3335 -1.8352
   72SLPC  H12Y 6357   4.244  -0.919   9.370  0.1082 -0.5531 -0.9936
   72SLPC  C313 6358   4.180  -1.109   9.310  0.5939  0.1770 -0.5850
   72SLPC  H13X 6359   4.076  -1.073   9.295  0.6496  0.7689  0.4017
   72SLPC  H13Y 6360   4.168  -1.214   9.345  0.4556  0.2643 -0.3674
   72SLPC  C314 6361   4.255  -1.104   9.173  0.4058 -0.2683 -0.5140
   72SLPC  H14X 6362   4.335  -1.178   9.192  1.2029 -0.0959 -2.9197
   72SLPC  H14Y 6363   4.277  -0.996   9.161 -4.5473  1.0589 -0.0844
   72SLPC  C315 6364   4.165  -1.140   9.058 -0.2103  0.4100 -0.3099
   72SLPC  H15X 6365   4.070  -1.081   9.054  0.4169  1.7400  2.2617
   72SLPC  H15Y 6366   4.131  -1.244   9.078 -0.7005  1.0496  2.5818
   72SLPC  C316 6367   4.234  -1.131   8.922 -0.0884  0.9058  0.2094
   72SLPC  H16X 6368   4.337  -1.172   8.924 -1.3361 -2.6380 -0.1871
   72SLPC  H16Y 6369   4.251  -1.026   8.891 -0.8244  0.2310 -2.8938
   72SLPC  C317 6370   4.153  -1.196   8.801  0.4685 -0.0697  0.3270
   72SLPC  H17X 6371   4.049  -1.160   8.816  0.5672  0.9893 -1.2138
   72SLPC  H17Y 6372   4.156  -1.302   8.834 -0.7183 -0.2600 -0.1061
   72SLPC  C318 6373   4.218  -1.180   8.665 -0.0455  0.4446  0.3986
   72SLPC  H18X 6374   4.323  -1.206   8.686 -0.5210  0.6972  3.6170
   72SLPC  H18Y 6375   4.208  -1.083   8.611 -0.1043  0.8660  1.1489
   72SLPC  H18Z 6376   4.185  -1.251   8.587  0.3289  1.0796 -0.3504
   73SLPC     N 6377   4.446   4.483  10.858 -0.7363  0.2745  0.3823
   73SLPC   C13 6378   4.530   4.526  10.752  0.7627  0.4825  0.1030
   73SLPC  H13A 6379   4.563   4.439  10.696 -3.0826 -0.7288 -0.5639
   73SLPC  H13B 6380   4.483   4.598  10.686 -0.7294  0.1399  0.7415
   73SLPC  H13C 6381   4.620   4.578  10.781  1.7018  0.7812 -3.0084
   73SLPC   C14 6382   4.442   4.594  10.957 -0.3005  1.2108  0.0635
   73SLPC  H14A 6383   4.399   4.687  10.923  1.4843  1.4710 -1.6845
   73SLPC  H14B 6384   4.392   4.568  11.049  0.4117  0.2416  0.1967
   73SLPC  H14C 6385   4.540   4.623  10.991  0.0179  0.0895  0.1613
   73SLPC   C15 6386   4.498   4.365  10.933 -0.3175  0.6826  0.2622
   73SLPC  H15A 6387   4.594   4.378  10.980 -0.4072  0.3158  0.5487
   73SLPC  H15B 6388   4.430   4.342  11.014 -0.7968  1.8192  0.2029
   73SLPC  H15C 6389   4.502   4.275  10.874 -1.6473  1.0483 -0.4397
   73SLPC   C12 6390   4.302   4.459  10.811  0.6306  0.1581  0.6902
   73SLPC  H12A 6391   4.264   4.547  10.762 -0.5705 -1.8498 -2.3447
   73SLPC  H12B 6392   4.241   4.430  10.895 -0.1641  0.1774  0.1297
   73SLPC   C11 6393   4.274   4.341  10.707 -0.2101  0.2521  0.8951
   73SLPC  H11A 6394   4.333   4.366  10.616 -0.3614  1.8371  1.2034
   73SLPC  H11B 6395   4.167   4.345  10.677  0.3241  0.8260 -1.0464
   73SLPC     P 6396   4.195   4.141  10.841 -0.0538  0.5765 -0.1823
   73SLPC   O13 6397   4.246   4.008  10.879 -0.2208  0.4729  0.0747
   73SLPC   O14 6398   4.137   4.226  10.951  0.3724 -0.1114 -0.2610
   73SLPC   O12 6399   4.312   4.214  10.761  0.1551 -0.1651 -0.0908
   73SLPC   O11 6400   4.081   4.116  10.734 -0.0754 -0.0707 -0.4946
   73SLPC    C1 6401   4.080   4.018  10.630 -0.1338  0.5000  0.2304
   73SLPC    HA 6402   4.105   3.919  10.673  4.3970  0.4020 -1.9544
   73SLPC    HB 6403   3.977   4.007  10.591 -0.3556 -2.2881  1.3743
   73SLPC    C2 6404   4.180   4.041  10.516 -0.4782  0.7607  0.6311
   73SLPC    HS 6405   4.284   4.050  10.556  0.2021 -0.7720 -0.6925
   73SLPC   O21 6406   4.134   4.156  10.441  0.1065 -0.0255  0.3656
   73SLPC   C21 6407   4.221   4.218  10.367  0.5683  0.3453  0.0266
   73SLPC   O22 6408   4.340   4.210  10.385  0.3734 -0.4558 -0.0318
   73SLPC   C22 6409   4.142   4.305  10.268  0.0161 -0.1945 -0.1120
   73SLPC   H2R 6410   4.070   4.239  10.216 -0.4117 -0.5795  0.9457
   73SLPC   H2S 6411   4.084   4.375  10.331 -0.6092 -0.0728 -0.8091
   73SLPC    C3 6412   4.179   3.917  10.417 -0.5850 -0.8761  0.0128
   73SLPC    HX 6413   4.072   3.904  10.392 -0.8974 -1.1885  1.4059
   73SLPC    HY 6414   4.193   3.821  10.472 -2.9943 -1.8705 -0.9735
   73SLPC   O31 6415   4.266   3.938  10.299 -0.7023  0.6410  0.2585
   73SLPC   C31 6416   4.388   3.909  10.322 -0.2542 -0.2577  0.6032
   73SLPC   O32 6417   4.436   3.876  10.431 -0.5986 -0.1133 -0.4954
   73SLPC   C32 6418   4.475   3.924  10.195 -0.6576  0.1293 -0.2855
   73SLPC   H2X 6419   4.577   3.890  10.222 -0.4231  1.5797  0.8017
   73SLPC   H2Y 6420   4.484   4.033  10.174  1.7733 -0.1897 -1.2083
   73SLPC   C23 6421   4.218   4.389  10.171  0.5580  0.4177  0.2395
   73SLPC   H3R 6422   4.291   4.455  10.223 -0.8118 -0.0571  2.8868
   73SLPC   H3S 6423   4.139   4.457  10.131 -0.9091 -1.7372 -0.6797
   73SLPC   C24 6424   4.287   4.310  10.049  0.5919  0.0306 -0.2914
   73SLPC   H4R 6425   4.373   4.246  10.077 -0.4869 -2.1127 -1.5894
   73SLPC   H4S 6426   4.321   4.384   9.974  3.1487 -0.3836  0.3740
   73SLPC   C25 6427   4.191   4.227   9.960  0.4443  0.7395 -0.7050
   73SLPC   H5R 6428   4.103   4.293   9.946 -3.0721 -2.5481  2.9786
   73SLPC   H5S 6429   4.158   4.128  10.000 -1.0619  1.0513 -1.1220
   73SLPC   C26 6430   4.255   4.214   9.823  0.7931 -0.0919  0.0732
   73SLPC   H6R 6431   4.268   4.310   9.769 -0.5843 -1.8943 -3.7801
   73SLPC   H6S 6432   4.179   4.170   9.755  1.6272  1.0367 -1.6466
   73SLPC   C27 6433   4.373   4.123   9.819 -0.2808  0.2464 -0.4985
   73SLPC   H7R 6434   4.346   4.028   9.870 -0.8612  1.8239  2.2930
   73SLPC   H7S 6435   4.446   4.169   9.889  0.7159 -1.2637 -0.4883
   73SLPC   C28 6436   4.430   4.100   9.680  0.1241  0.7680  0.3483
   73SLPC   H8R 6437   4.525   4.045   9.699 -0.0043  0.8055  1.1358
   73SLPC   H8S 6438   4.452   4.198   9.633 -1.3938  2.2481  2.5084
   73SLPC   C29 6439   4.335   4.011   9.599 -0.2932 -0.5613  0.1432
   73SLPC   H9R 6440   4.239   3.988   9.648  0.2086 -0.3907  1.2287
   73SLPC  C210 6441   4.362   3.956   9.475 -0.4137 -0.7808  0.0907
   73SLPC  H10R 6442   4.280   3.901   9.426 -0.1291 -1.1367  0.0079
   73SLPC  C211 6443   4.493   3.982   9.405  0.6905 -0.0664 -0.5565
   73SLPC  H11R 6444   4.562   3.912   9.457  0.0719 -0.1807  0.1310
   73SLPC  H11S 6445   4.525   4.084   9.433  0.3479 -0.5009  1.5940
   73SLPC  C212 6446   4.495   3.958   9.253  0.1214 -0.1204  0.5423
   73SLPC  H12R 6447   4.411   3.893   9.227 -1.1347  1.5338  0.2643
   73SLPC  C213 6448   4.574   4.006   9.157 -0.5960  0.8198 -0.2303
   73SLPC  H13R 6449   4.560   3.980   9.051  2.9911  0.3471 -0.7241
   73SLPC  C214 6450   4.694   4.098   9.179 -0.6305 -0.5075 -0.4758
   73SLPC  H14R 6451   4.688   4.150   9.277 -2.5468 -1.6045  0.0529
   73SLPC  H14S 6452   4.690   4.183   9.107 -1.5349 -0.9407 -0.9566
   73SLPC  C215 6453   4.839   4.028   9.188  0.0643 -0.3880 -0.6974
   73SLPC  H15R 6454   4.824   3.942   9.256 -2.1074  0.4620 -0.0321
   73SLPC  H15S 6455   4.905   4.100   9.241  1.1448 -0.3994 -1.9873
   73SLPC  C216 6456   4.899   3.977   9.056  0.8556  0.6019 -0.1058
   73SLPC  H16R 6457   5.010   3.979   9.068  0.7037  0.5521  1.5496
   73SLPC  H16S 6458   4.881   4.031   8.961  0.7724 -1.2546 -1.1885
   73SLPC  C217 6459   4.850   3.835   9.029 -0.0763  0.1434  0.2296
   73SLPC  H17R 6460   4.740   3.829   9.023 -0.2250 -1.1595  2.9166
   73SLPC  H17S 6461   4.883   3.770   9.113 -3.2627 -1.4479  0.3956
   73SLPC  C218 6462   4.911   3.764   8.909  0.3132 -0.2710  0.2216
   73SLPC  H18R 6463   4.887   3.832   8.824 -1.0393 -0.6154  0.3035
   73SLPC  H18S 6464   4.851   3.673   8.888 -0.1809  0.3605 -1.2063
   73SLPC  H18T 6465   5.019   3.741   8.916 -0.3543 -4.4170 -0.5991
   73SLPC   C33 6466   4.445   3.823  10.077  0.4110  0.1369  0.3682
   73SLPC   H3X 6467   4.356   3.861  10.022  0.8030  1.3122  0.5023
   73SLPC   H3Y 6468   4.434   3.725  10.128 -0.9776  0.5068  0.8279
   73SLPC   C34 6469   4.555   3.822   9.969 -0.4014  0.5629 -0.2719
   73SLPC   H4X 6470   4.647   3.773  10.011  0.4201  0.7396 -1.8084
   73SLPC   H4Y 6471   4.571   3.926   9.936 -1.8475  2.0457  3.2193
   73SLPC   C35 6472   4.513   3.729   9.854 -0.0974  0.2061  0.1333
   73SLPC   H5X 6473   4.422   3.773   9.808 -0.3990 -0.5171  0.0270
   73SLPC   H5Y 6474   4.481   3.625   9.874 -0.3247  0.3862  0.7264
   73SLPC   C36 6475   4.617   3.737   9.739 -0.5311  1.1015 -0.3138
   73SLPC   H6X 6476   4.713   3.690   9.768 -1.6361  0.7481  3.2601
   73SLPC   H6Y 6477   4.656   3.840   9.729  0.7777  0.4694 -2.4121
   73SLPC   C37 6478   4.580   3.685   9.603 -0.2796  1.2967  0.4762
   73SLPC   H7X 6479   4.666   3.701   9.536  0.4362 -0.1396  0.9902
   73SLPC   H7Y 6480   4.491   3.744   9.574  0.0224  2.6796  2.2025
   73SLPC   C38 6481   4.541   3.533   9.587 -0.0576  0.5353 -0.4754
   73SLPC   H8X 6482   4.478   3.500   9.672  0.9333 -0.1112  0.0282
   73SLPC   H8Y 6483   4.642   3.487   9.593 -1.2065 -2.1684 -0.5456
   73SLPC   C39 6484   4.479   3.505   9.457  0.1419 -0.1414 -0.4088
   73SLPC   H9X 6485   4.375   3.543   9.447  0.7831  1.3515 -1.9386
   73SLPC   H9Y 6486   4.470   3.396   9.441 -1.5961 -0.1414  0.4409
   73SLPC  C310 6487   4.558   3.568   9.335 -0.3934  0.1255 -0.7062
   73SLPC  H10X 6488   4.666   3.548   9.353 -0.5805  0.9735  1.7717
   73SLPC  H10Y 6489   4.554   3.677   9.353 -1.9577  0.4188 -2.5245
   73SLPC  C311 6490   4.500   3.529   9.198 -0.5973  0.0984 -0.0429
   73SLPC  H11X 6491   4.393   3.555   9.184 -0.7221 -0.7394 -0.7967
   73SLPC  H11Y 6492   4.500   3.417   9.198 -0.9840  0.0950 -0.4016
   73SLPC  C312 6493   4.576   3.594   9.085  0.0548  0.2887 -0.8098
   73SLPC  H12X 6494   4.685   3.574   9.092  0.2776  1.5404 -0.4470
   73SLPC  H12Y 6495   4.582   3.703   9.107 -0.4180 -0.1241  1.5342
   73SLPC  C313 6496   4.514   3.568   8.947  0.3346 -0.3005  0.2130
   73SLPC  H13X 6497   4.408   3.539   8.962 -0.3538  0.7280 -2.1469
   73SLPC  H13Y 6498   4.574   3.496   8.887  1.0327  1.0382 -0.7621
   73SLPC  C314 6499   4.516   3.688   8.845  0.3147  0.8282  0.1442
   73SLPC  H14X 6500   4.617   3.731   8.858  0.8261 -0.5742  1.1638
   73SLPC  H14Y 6501   4.443   3.769   8.863 -1.5241 -0.7098  0.0137
   73SLPC  C315 6502   4.502   3.635   8.703  0.3553 -0.1289  0.2531
   73SLPC  H15X 6503   4.422   3.559   8.688  0.7873 -0.6967  0.7836
   73SLPC  H15Y 6504   4.600   3.593   8.671  0.8755 -0.6796  2.4241
   73SLPC  C316 6505   4.473   3.758   8.604  0.2637  0.2222 -0.6713
   73SLPC  H16X 6506   4.525   3.739   8.508  1.6575  1.7988 -0.2567
   73SLPC  H16Y 6507   4.525   3.839   8.660 -0.4239 -1.2724  2.3924
   73SLPC  C317 6508   4.322   3.797   8.570  0.1695 -0.4747  0.0119
   73SLPC  H17X 6509   4.262   3.784   8.662  1.9332 -1.5429  1.0830
   73SLPC  H17Y 6510   4.281   3.711   8.513  3.0498 -2.3847  0.5684
   73SLPC  C318 6511   4.294   3.930   8.509 -0.0627  0.1769 -0.1562
   73SLPC  H18X 6512   4.341   4.008   8.572 -1.0197  1.6038 -1.1419
   73SLPC  H18Y 6513   4.186   3.950   8.493 -0.0863  1.5903  1.4504
   73SLPC  H18Z 6514   4.358   3.939   8.419 -0.5487 -1.1261 -0.6612
   74SLPC     N 6515   5.014   6.207  10.870 -0.7196  0.1548 -0.4948
   74SLPC   C13 6516   4.928   6.291  10.793 -0.6482  0.3690 -0.4393
   74SLPC  H13A 6517   4.979   6.379  10.756  1.6964 -0.2948  0.9735
   74SLPC  H13B 6518   4.890   6.237  10.707 -0.2089  0.2432 -0.5586
   74SLPC  H13C 6519   4.847   6.327  10.854  0.3636  0.6489  0.7777
   74SLPC   C14 6520   4.937   6.104  10.943 -0.0350  0.2438 -0.1908
   74SLPC  H14A 6521   4.996   6.042  11.008 -1.1504 -2.1032 -1.2850
   74SLPC  H14B 6522   4.873   6.153  11.015  0.0788  1.6583 -1.0162
   74SLPC  H14C 6523   4.872   6.044  10.880 -0.3652  0.2681  0.1222
   74SLPC   C15 6524   5.088   6.291  10.974  0.7575 -0.0785  0.4291
   74SLPC  H15A 6525   5.166   6.237  11.025  1.2059 -0.9592 -1.1063
   74SLPC  H15B 6526   5.139   6.379  10.938 -1.2312  0.5843 -0.9491
   74SLPC  H15C 6527   5.024   6.333  11.050  0.6629  0.3981  0.0889
   74SLPC   C12 6528   5.106   6.135  10.772 -0.5412 -0.4769 -1.2877
   74SLPC  H12A 6529   5.171   6.072  10.832  0.2443  2.9179  1.8144
   74SLPC  H12B 6530   5.171   6.205  10.721  2.0494 -0.4319  1.7103
   74SLPC   C11 6531   5.046   6.050  10.656  0.0613  0.0394  0.8548
   74SLPC  H11A 6532   4.962   5.982  10.682  0.4024  0.0662  2.0823
   74SLPC  H11B 6533   5.120   5.978  10.614  0.3687  1.1686 -0.6414
   74SLPC     P 6534   5.087   6.205  10.454  0.5494 -0.3096 -0.0800
   74SLPC   O13 6535   5.208   6.243  10.530  0.1603 -0.2119  0.2844
   74SLPC   O14 6536   5.105   6.116  10.341  0.0174  0.2036  0.2249
   74SLPC   O12 6537   4.994   6.142  10.560 -0.1690  0.4501 -0.1823
   74SLPC   O11 6538   4.994   6.326  10.413  0.2454  0.0230  0.0754
   74SLPC    C1 6539   4.862   6.334  10.355  0.1391 -0.1200 -0.1002
   74SLPC    HA 6540   4.787   6.317  10.434 -2.4664  1.2230 -2.1256
   74SLPC    HB 6541   4.857   6.434  10.306  1.5134  1.9765  3.6666
   74SLPC    C2 6542   4.821   6.226  10.248  0.0129  0.2315 -0.0306
   74SLPC    HS 6543   4.858   6.128  10.286  0.8623  0.2676 -0.7409
   74SLPC   O21 6544   4.897   6.264  10.137 -0.1531  0.0861 -0.3073
   74SLPC   C21 6545   4.938   6.171  10.048 -0.7640  0.0088  0.2700
   74SLPC   O22 6546   4.906   6.057  10.041 -0.2383  0.1583  0.1246
   74SLPC   C22 6547   5.048   6.240   9.962  0.2566  0.7224 -0.4120
   74SLPC   H2R 6548   5.006   6.322   9.900 -1.6879 -0.3264 -0.5832
   74SLPC   H2S 6549   5.120   6.280  10.036  2.1589 -0.7866 -1.3409
   74SLPC    C3 6550   4.664   6.226  10.226  0.4971 -0.1450 -0.1681
   74SLPC    HX 6551   4.626   6.327  10.202 -0.1182 -0.7185 -1.7604
   74SLPC    HY 6552   4.603   6.194  10.314  2.3588 -0.3195  1.1046
   74SLPC   O31 6553   4.644   6.136  10.105 -0.3647  0.0292 -0.2849
   74SLPC   C31 6554   4.630   6.009  10.138  0.1566  0.5751  0.0131
   74SLPC   O32 6555   4.629   5.958  10.245  0.2752  0.3920  0.5795
   74SLPC   C32 6556   4.573   5.938  10.010 -0.3069 -0.1916 -0.1972
   74SLPC   H2X 6557   4.468   5.962   9.983 -0.5225 -2.3907 -1.5696
   74SLPC   H2Y 6558   4.588   5.831  10.036  0.4940 -0.1043 -0.2634
   74SLPC   C23 6559   5.112   6.140   9.863  0.2477  0.3271  0.0248
   74SLPC   H3R 6560   5.116   6.032   9.890  1.5693  0.5613  0.8294
   74SLPC   H3S 6561   5.210   6.186   9.837 -0.0251  2.3326  2.2260
   74SLPC   C24 6562   5.041   6.132   9.726  0.2876  0.6047  0.4508
   74SLPC   H4R 6563   5.018   6.229   9.677  0.0224 -0.0432 -0.7469
   74SLPC   H4S 6564   4.954   6.063   9.730  2.6104 -2.6771 -1.3920
   74SLPC   C25 6565   5.146   6.054   9.639  0.9273 -1.3174  1.0199
   74SLPC   H5R 6566   5.202   5.975   9.694  0.5494 -1.9639  0.4927
   74SLPC   H5S 6567   5.228   6.120   9.603  1.7295 -1.9610  1.6048
   74SLPC   C26 6568   5.090   5.977   9.517 -0.6455 -0.4526 -0.6488
   74SLPC   H6R 6569   5.022   6.048   9.465  0.8639  1.6690  0.1639
   74SLPC   H6S 6570   5.031   5.892   9.558 -2.8237  0.3996 -1.8464
   74SLPC   C27 6571   5.191   5.924   9.416 -0.1028  0.0555 -0.4243
   74SLPC   H7R 6572   5.266   5.850   9.451 -2.0390 -2.1490 -0.6906
   74SLPC   H7S 6573   5.258   6.006   9.384 -1.0637  1.0721  0.1164
   74SLPC   C28 6574   5.122   5.867   9.296 -0.1610  0.1289  0.4905
   74SLPC   H8R 6575   5.198   5.863   9.215 -0.6530  0.6475  0.0009
   74SLPC   H8S 6576   5.053   5.942   9.253 -0.4740 -1.5040 -2.0433
   74SLPC   C29 6577   5.056   5.732   9.318  0.3706  0.5945 -0.1551
   74SLPC   H9R 6578   4.988   5.723   9.405  0.5019 -3.3027 -0.2916
   74SLPC  C210 6579   5.076   5.616   9.241 -0.1399 -0.6875 -0.0109
   74SLPC  H10R 6580   5.016   5.526   9.260  0.6887 -1.1566  0.4363
   74SLPC  C211 6581   5.169   5.614   9.119  0.6167 -0.2307  0.1268
   74SLPC  H11R 6582   5.213   5.512   9.124  2.6068  0.5273 -0.9974
   74SLPC  H11S 6583   5.261   5.676   9.120  0.8071 -0.5022 -0.3797
   74SLPC  C212 6584   5.096   5.637   8.992  0.8472 -1.0358  0.6736
   74SLPC  H12R 6585   5.089   5.744   8.966 -1.9162 -0.5621  2.8987
   74SLPC  C213 6586   5.035   5.543   8.916 -0.2234 -0.4439 -0.0158
   74SLPC  H13R 6587   5.009   5.568   8.812  1.2987  0.2882 -0.2436
   74SLPC  C214 6588   5.031   5.394   8.936 -0.1948  0.2881 -0.3985
   74SLPC  H14R 6589   4.928   5.357   8.916  0.3370 -1.7890  0.4612
   74SLPC  H14S 6590   5.049   5.375   9.044 -1.3656  1.1479 -0.0309
   74SLPC  C215 6591   5.126   5.308   8.859  0.0746  0.6756 -0.4565
   74SLPC  H15R 6592   5.088   5.204   8.874 -0.9725  1.1911  0.5719
   74SLPC  H15S 6593   5.225   5.308   8.909  0.1073  0.9244 -0.5209
   74SLPC  C216 6594   5.141   5.331   8.707 -0.6642 -0.0066 -0.0703
   74SLPC  H16R 6595   5.190   5.428   8.683 -0.0765 -0.6982 -1.9022
   74SLPC  H16S 6596   5.038   5.327   8.665 -0.3693 -0.4668 -0.7634
   74SLPC  C217 6597   5.224   5.222   8.630  0.4436  0.4517  0.1673
   74SLPC  H17R 6598   5.239   5.274   8.532  0.2965  2.0139  0.9447
   74SLPC  H17S 6599   5.157   5.135   8.612  1.5032 -0.3498 -0.0512
   74SLPC  C218 6600   5.352   5.172   8.689  0.6176  0.0086  0.0917
   74SLPC  H18R 6601   5.411   5.120   8.610  0.9790 -2.0044  1.5840
   74SLPC  H18S 6602   5.325   5.099   8.769 -1.1168 -1.1232 -1.4554
   74SLPC  H18T 6603   5.412   5.253   8.735  1.2764 -0.6856  0.4903
   74SLPC   C33 6604   4.668   5.952   9.887 -0.5151 -0.5535 -0.1046
   74SLPC   H3X 6605   4.766   5.902   9.903 -1.3237 -1.9489  0.7188
   74SLPC   H3Y 6606   4.691   6.060   9.887  0.5591 -0.7694  0.4370
   74SLPC   C34 6607   4.596   5.916   9.752 -0.9034 -0.4512  0.8968
   74SLPC   H4X 6608   4.498   5.969   9.755 -1.8074 -1.9600 -0.1147
   74SLPC   H4Y 6609   4.573   5.807   9.759  0.0896 -0.8392 -1.1262
   74SLPC   C35 6610   4.676   5.958   9.629 -0.0481  0.2932  0.4952
   74SLPC   H5X 6611   4.777   5.915   9.644  0.4370  0.6624 -1.3795
   74SLPC   H5Y 6612   4.671   6.068   9.614  0.2817  0.5406  2.0166
   74SLPC   C36 6613   4.616   5.896   9.500 -1.1292  0.6133 -0.1558
   74SLPC   H6X 6614   4.521   5.945   9.469 -1.6023  1.2474  2.0993
   74SLPC   H6Y 6615   4.583   5.794   9.529 -1.0046  1.4351  3.3489
   74SLPC   C37 6616   4.721   5.879   9.391 -0.2896 -0.9045  0.7712
   74SLPC   H7X 6617   4.794   5.799   9.413 -1.0389 -1.8571 -0.1247
   74SLPC   H7Y 6618   4.780   5.973   9.377 -0.2282 -0.9261  0.8907
   74SLPC   C38 6619   4.648   5.842   9.262 -0.5914 -0.0520  0.0923
   74SLPC   H8X 6620   4.585   5.929   9.235 -0.4643 -0.0434 -0.1797
   74SLPC   H8Y 6621   4.583   5.754   9.282 -1.0357  0.5888  1.5891
   74SLPC   C39 6622   4.735   5.801   9.145 -0.6784  0.3481 -0.3821
   74SLPC   H9X 6623   4.764   5.696   9.170 -0.6621 -0.1974 -2.5173
   74SLPC   H9Y 6624   4.828   5.862   9.139  0.0569 -0.3237  2.5948
   74SLPC  C310 6625   4.655   5.804   9.016 -0.3596  0.0855  0.2085
   74SLPC  H10X 6626   4.604   5.901   8.998  0.9470  0.7847  0.1406
   74SLPC  H10Y 6627   4.585   5.718   9.023  1.1398 -1.2965 -1.1463
   74SLPC  C311 6628   4.755   5.767   8.900 -0.0450 -0.1143  0.1309
   74SLPC  H11X 6629   4.812   5.680   8.938 -1.7193 -0.9164  0.9260
   74SLPC  H11Y 6630   4.818   5.857   8.887  3.7234 -2.4090  0.9631
   74SLPC  C312 6631   4.681   5.717   8.775 -1.0112 -0.4652  0.0749
   74SLPC  H12X 6632   4.633   5.806   8.729  0.6732 -0.2034 -1.3104
   74SLPC  H12Y 6633   4.607   5.640   8.803 -1.3464 -0.2835 -0.2942
   74SLPC  C313 6634   4.762   5.653   8.662 -0.3981  0.1477 -0.7442
   74SLPC  H13X 6635   4.818   5.576   8.719  0.4370 -0.5544 -2.4505
   74SLPC  H13Y 6636   4.839   5.718   8.614  2.0540 -1.8721  0.2499
   74SLPC  C314 6637   4.679   5.576   8.559 -0.0976  0.0442  0.4054
   74SLPC  H14X 6638   4.640   5.649   8.485 -2.6268 -0.2946  1.2992
   74SLPC  H14Y 6639   4.590   5.537   8.613 -0.9591  0.1052 -0.9203
   74SLPC  C315 6640   4.767   5.453   8.513  0.0582  0.0003 -0.4823
   74SLPC  H15X 6641   4.802   5.387   8.595  0.1852  0.4500 -0.1664
   74SLPC  H15Y 6642   4.856   5.500   8.468 -1.1308  0.6784 -2.2386
   74SLPC  C316 6643   4.701   5.363   8.414  0.7048  0.4149 -0.2168
   74SLPC  H16X 6644   4.685   5.424   8.323 -2.0674 -0.7181 -0.6067
   74SLPC  H16Y 6645   4.598   5.331   8.442  0.9225 -1.0421 -0.9626
   74SLPC  C317 6646   4.772   5.229   8.372 -0.6060 -0.2529 -0.5475
   74SLPC  H17X 6647   4.792   5.169   8.463  0.5015  0.9947  0.0626
   74SLPC  H17Y 6648   4.863   5.262   8.318 -1.4937  0.0060 -1.9633
   74SLPC  C318 6649   4.688   5.135   8.282 -0.6910  0.4244  0.1670
   74SLPC  H18X 6650   4.740   5.038   8.270 -0.8812  0.6411 -3.4104
   74SLPC  H18Y 6651   4.670   5.186   8.184 -0.4833  2.3818  1.0899
   74SLPC  H18Z 6652   4.594   5.103   8.332 -0.9613 -1.3856 -1.3992
   75SLPC     N 6653   2.153   2.378   6.572 -0.0375  0.4516 -0.6151
   75SLPC   C13 6654   2.054   2.480   6.624 -0.3326  0.7233  0.3890
   75SLPC  H13A 6655   2.011   2.538   6.544 -1.9160 -0.2788  0.4686
   75SLPC  H13B 6656   1.980   2.420   6.674 -1.2550  0.3233 -1.3740
   75SLPC  H13C 6657   2.101   2.546   6.696  0.0843 -0.1503  0.9292
   75SLPC   C14 6658   2.280   2.438   6.532  0.0684  0.3436 -0.1609
   75SLPC  H14A 6659   2.363   2.369   6.531 -0.2739 -0.1202  1.1059
   75SLPC  H14B 6660   2.272   2.477   6.432  1.1587 -0.6512 -0.6728
   75SLPC  H14C 6661   2.305   2.519   6.598  0.3055  1.6347 -1.7748
   75SLPC   C15 6662   2.089   2.302   6.456 -0.2508 -0.4702  0.0292
   75SLPC  H15A 6663   2.154   2.223   6.422  1.3791  1.2664 -1.1212
   75SLPC  H15B 6664   1.997   2.259   6.491 -0.5862 -0.7885 -1.1891
   75SLPC  H15C 6665   2.064   2.365   6.372 -0.7916  1.0366  1.2791
   75SLPC   C12 6666   2.192   2.285   6.692  0.0836 -0.9024  0.0581
   75SLPC  H12A 6667   2.098   2.245   6.729  0.1531  0.0565  1.3671
   75SLPC  H12B 6668   2.237   2.326   6.781  1.6584 -1.8169 -0.2791
   75SLPC   C11 6669   2.271   2.154   6.667  0.5971 -0.6402  0.1599
   75SLPC  H11A 6670   2.304   2.105   6.762  0.5303 -2.6024 -0.7828
   75SLPC  H11B 6671   2.353   2.188   6.601 -0.5591  0.3741 -0.7998
   75SLPC     P 6672   2.230   1.913   6.563 -0.3275 -0.1451 -0.1942
   75SLPC   O13 6673   2.115   1.826   6.551 -0.0995 -0.0551 -0.1124
   75SLPC   O14 6674   2.317   1.928   6.444 -0.4735  0.1187 -0.0486
   75SLPC   O12 6675   2.177   2.061   6.605 -0.6470 -0.3460  0.4511
   75SLPC   O11 6676   2.319   1.871   6.689 -0.1508  0.4421  0.2077
   75SLPC    C1 6677   2.251   1.818   6.801 -0.4893 -0.3489 -0.1731
   75SLPC    HA 6678   2.283   1.876   6.890  0.5992  1.3776 -1.6164
   75SLPC    HB 6679   2.141   1.835   6.807 -0.2685  1.3344 -0.2919
   75SLPC    C2 6680   2.272   1.665   6.813 -0.3234 -0.1599 -0.9168
   75SLPC    HS 6681   2.205   1.649   6.900  0.4926  0.4850 -0.1477
   75SLPC   O21 6682   2.411   1.637   6.836  0.2093 -0.2494  0.5675
   75SLPC   C21 6683   2.453   1.681   6.951 -0.1023 -0.3431 -0.6288
   75SLPC   O22 6684   2.377   1.733   7.037  0.2094 -0.1718 -0.0248
   75SLPC   C22 6685   2.594   1.652   6.975 -0.4867 -0.4386 -0.5369
   75SLPC   H2R 6686   2.612   1.651   7.085 -1.1624  2.8734 -0.2823
   75SLPC   H2S 6687   2.626   1.552   6.940  1.2803 -0.0126 -0.2310
   75SLPC    C3 6688   2.226   1.580   6.701  0.0750  0.7301  0.3529
   75SLPC    HX 6689   2.276   1.599   6.604 -1.0851 -2.1869 -0.9423
   75SLPC    HY 6690   2.121   1.605   6.674 -0.0853  0.1408  0.4169
   75SLPC   O31 6691   2.247   1.441   6.737 -0.6911 -0.6940  0.0392
   75SLPC   C31 6692   2.136   1.393   6.807 -0.1745 -0.7172  0.5717
   75SLPC   O32 6693   2.046   1.466   6.828 -0.2214  0.5765 -0.4819
   75SLPC   C32 6694   2.147   1.246   6.833  0.0486 -0.0572 -0.1208
   75SLPC   H2X 6695   2.242   1.194   6.808 -0.5740 -1.0937 -0.3766
   75SLPC   H2Y 6696   2.063   1.193   6.783 -0.7603  0.1567  0.9825
   75SLPC   C23 6697   2.695   1.764   6.937 -0.0895  0.6926  0.0692
   75SLPC   H3R 6698   2.640   1.839   6.875  0.9384  0.7256 -0.8192
   75SLPC   H3S 6699   2.768   1.732   6.860  3.4234  4.9835  1.1975
   75SLPC   C24 6700   2.777   1.824   7.055 -0.0135  1.0079  0.5228
   75SLPC   H4R 6701   2.845   1.902   7.015  0.5770  1.0566  1.5811
   75SLPC   H4S 6702   2.849   1.753   7.099  0.4991  0.2217 -1.4712
   75SLPC   C25 6703   2.697   1.882   7.167 -0.0611 -0.7448 -0.2597
   75SLPC   H5R 6704   2.630   1.805   7.210  0.5436 -1.3327 -0.3564
   75SLPC   H5S 6705   2.631   1.966   7.134 -0.0678  0.0789  1.7232
   75SLPC   C26 6706   2.774   1.935   7.283 -0.1412  0.7003 -0.2346
   75SLPC   H6R 6707   2.849   2.009   7.246  0.7021 -0.5239 -1.0663
   75SLPC   H6S 6708   2.818   1.837   7.313 -1.8855 -0.3544 -1.0446
   75SLPC   C27 6709   2.682   1.983   7.399 -0.0831 -0.9528  0.0366
   75SLPC   H7R 6710   2.615   1.896   7.415  1.4698 -2.2223 -0.1271
   75SLPC   H7S 6711   2.625   2.076   7.377 -1.5458 -1.3105  2.1019
   75SLPC   C28 6712   2.766   2.012   7.527 -0.1278 -0.0844 -0.0164
   75SLPC   H8R 6713   2.690   2.069   7.584  0.0288  0.9099 -0.7876
   75SLPC   H8S 6714   2.853   2.078   7.510  0.6346 -0.6109  1.5857
   75SLPC   C29 6715   2.801   1.878   7.592 -0.0582 -0.1938  0.4999
   75SLPC   H9R 6716   2.873   1.816   7.536  1.1082  1.7156 -0.2276
   75SLPC  C210 6717   2.751   1.827   7.705 -0.8238 -0.1573  0.2879
   75SLPC  H10R 6718   2.805   1.742   7.748 -0.3040  0.2319  0.4075
   75SLPC  C211 6719   2.651   1.896   7.790  0.4276 -0.2899  0.0162
   75SLPC  H11R 6720   2.562   1.926   7.731  0.0209 -1.5709 -0.0519
   75SLPC  H11S 6721   2.695   1.985   7.840 -0.8966  0.2350  0.2736
   75SLPC  C212 6722   2.601   1.816   7.905  0.1920  0.9296  0.2091
   75SLPC  H12R 6723   2.655   1.843   7.997  0.6787  2.2666 -0.4396
   75SLPC  C213 6724   2.505   1.719   7.901 -0.1425  0.1917 -0.1539
   75SLPC  H13R 6725   2.480   1.649   7.982 -0.5420  0.5104 -0.0031
   75SLPC  C214 6726   2.429   1.682   7.778 -0.0809  0.3137 -0.1139
   75SLPC  H14R 6727   2.417   1.572   7.785  1.1423  0.2646  1.8733
   75SLPC  H14S 6728   2.474   1.700   7.678  0.4726 -0.1295  0.0565
   75SLPC  C215 6729   2.285   1.747   7.768 -0.0716  0.1401  0.2833
   75SLPC  H15R 6730   2.290   1.848   7.814 -1.3221 -0.1712  1.1473
   75SLPC  H15S 6731   2.202   1.691   7.815 -0.4435 -0.9522 -1.5814
   75SLPC  C216 6732   2.234   1.784   7.626 -0.6451 -0.0267  0.2001
   75SLPC  H16R 6733   2.225   1.689   7.569 -0.3681 -0.3278  0.6505
   75SLPC  H16S 6734   2.316   1.849   7.589  0.0025 -1.0388 -0.1808
   75SLPC  C217 6735   2.106   1.869   7.619  0.5158  0.2178 -0.2394
   75SLPC  H17R 6736   2.107   1.958   7.686  1.4966  1.1486 -1.4320
   75SLPC  H17S 6737   2.024   1.804   7.656  0.9529 -0.8658 -1.1296
   75SLPC  C218 6738   2.076   1.917   7.479  0.1870 -0.1067 -0.2685
   75SLPC  H18R 6739   2.138   2.002   7.442 -1.0895  0.9167 -0.1316
   75SLPC  H18S 6740   1.969   1.948   7.479  0.5411  1.1995  0.7402
   75SLPC  H18T 6741   2.084   1.831   7.409  3.7023 -1.2278  1.3018
   75SLPC   C33 6742   2.138   1.208   6.988 -0.9632 -0.2266  0.0105
   75SLPC   H3X 6743   2.041   1.247   7.025 -0.2197  0.6576  1.1053
   75SLPC   H3Y 6744   2.132   1.098   7.003  1.6556 -0.6700 -1.5440
   75SLPC   C34 6745   2.247   1.270   7.064 -0.3249 -0.4856  0.0507
   75SLPC   H4X 6746   2.234   1.377   7.041 -0.3414 -0.5434 -0.2088
   75SLPC   H4Y 6747   2.347   1.242   7.025 -0.1146 -1.7214  1.4038
   75SLPC   C35 6748   2.228   1.255   7.218 -0.1207 -0.0152 -0.0180
   75SLPC   H5X 6749   2.249   1.154   7.259  2.6931  1.2514  2.0738
   75SLPC   H5Y 6750   2.125   1.278   7.252 -0.2928 -1.0912  0.2220
   75SLPC   C36 6751   2.320   1.356   7.302  0.5776 -0.0262 -0.6020
   75SLPC   H6X 6752   2.300   1.455   7.256 -3.1333 -1.3065 -2.0941
   75SLPC   H6Y 6753   2.424   1.336   7.271  1.9991  3.9715  0.8983
   75SLPC   C37 6754   2.300   1.357   7.454 -0.8942 -0.1421  0.2030
   75SLPC   H7X 6755   2.359   1.440   7.498  1.3637 -2.2804  1.5072
   75SLPC   H7Y 6756   2.334   1.259   7.496 -0.1071 -0.8843 -2.0521
   75SLPC   C38 6757   2.155   1.392   7.504 -0.8929 -0.2201 -0.3714
   75SLPC   H8X 6758   2.083   1.306   7.504 -2.4104  0.9586  1.6860
   75SLPC   H8Y 6759   2.116   1.490   7.469 -2.0815 -0.4770  0.1613
   75SLPC   C39 6760   2.161   1.409   7.661 -0.1056 -0.0364  0.6506
   75SLPC   H9X 6761   2.236   1.490   7.668 -1.7483  1.5408  0.7733
   75SLPC   H9Y 6762   2.221   1.332   7.715  1.0256 -1.6761 -2.6787
   75SLPC  C310 6763   2.027   1.444   7.726 -0.5233  0.1135 -0.5758
   75SLPC  H10X 6764   1.968   1.491   7.645  1.1036  3.4461 -0.0093
   75SLPC  H10Y 6765   2.042   1.519   7.807  1.0969 -1.4784  0.6903
   75SLPC  C311 6766   1.965   1.316   7.782 -0.0966 -0.2172  0.2631
   75SLPC  H11X 6767   2.009   1.292   7.881 -2.0471 -2.6861  0.6741
   75SLPC  H11Y 6768   1.967   1.233   7.707  1.9925 -1.3413  1.4819
   75SLPC  C312 6769   1.808   1.333   7.813 -0.1163  0.3707 -0.8433
   75SLPC  H12X 6770   1.775   1.239   7.862 -0.2671  0.9116  0.1238
   75SLPC  H12Y 6771   1.759   1.342   7.714 -0.1087 -2.5399 -1.1871
   75SLPC  C313 6772   1.770   1.437   7.914 -0.0101  0.1277 -0.4709
   75SLPC  H13X 6773   1.663   1.452   7.937  0.4134  2.9342  0.0183
   75SLPC  H13Y 6774   1.794   1.531   7.862 -0.2579  1.3802  1.5484
   75SLPC  C314 6775   1.846   1.428   8.046 -0.1064  0.2436 -0.1163
   75SLPC  H14X 6776   1.953   1.456   8.030  0.1817 -0.7474  0.0205
   75SLPC  H14Y 6777   1.845   1.324   8.086 -2.2756  0.3602  0.2426
   75SLPC  C315 6778   1.789   1.515   8.158 -0.3270 -0.5371  0.3310
   75SLPC  H15X 6779   1.759   1.613   8.114 -0.7038 -0.1847  1.3559
   75SLPC  H15Y 6780   1.863   1.542   8.236  0.5686  1.3829 -1.0749
   75SLPC  C316 6781   1.660   1.458   8.217  0.4959  0.0047  0.3286
   75SLPC  H16X 6782   1.673   1.356   8.259  0.4098 -0.0630  0.1927
   75SLPC  H16Y 6783   1.578   1.461   8.142  1.6759 -0.0427 -1.0017
   75SLPC  C317 6784   1.609   1.532   8.341 -0.5135 -0.4597 -0.2535
   75SLPC  H17X 6785   1.692   1.536   8.415 -0.6966  1.9316 -0.0939
   75SLPC  H17Y 6786   1.522   1.481   8.388 -1.9925  0.8349 -1.4752
   75SLPC  C318 6787   1.550   1.679   8.311 -0.5109  0.2225  0.3542
   75SLPC  H18X 6788   1.633   1.737   8.266  0.5194 -1.0889  0.5025
   75SLPC  H18Y 6789   1.510   1.722   8.406  0.6886  1.8147  0.1781
   75SLPC  H18Z 6790   1.468   1.669   8.236  2.3589 -0.8078 -2.8869
   76SLPC     N 6791   3.964   6.013   6.049  0.1405  0.0096  0.3237
   76SLPC   C13 6792   3.833   6.031   5.978  0.5324 -0.8482  0.3667
   76SLPC  H13A 6793   3.756   5.975   6.029 -0.9132  0.7973  0.0844
   76SLPC  H13B 6794   3.803   6.134   5.984  0.4863 -0.6030 -2.6935
   76SLPC  H13C 6795   3.845   6.003   5.874  0.6121  1.4159 -0.2913
   76SLPC   C14 6796   4.041   6.129   6.009  0.0340 -0.0411 -0.0484
   76SLPC  H14A 6797   4.136   6.135   6.060 -0.4008  2.4279  0.6263
   76SLPC  H14B 6798   4.047   6.142   5.902 -2.8355  0.2130 -0.2736
   76SLPC  H14C 6799   3.997   6.223   6.040 -0.6667 -0.3699 -0.0354
   76SLPC   C15 6800   4.029   5.878   6.015  0.8072 -0.0514 -0.2604
   76SLPC  H15A 6801   3.989   5.793   6.067  0.3174  0.9260  1.0104
   76SLPC  H15B 6802   4.039   5.864   5.908 -2.0502 -1.5047 -0.4204
   76SLPC  H15C 6803   4.135   5.885   6.038  0.7082  3.2589 -0.3638
   76SLPC   C12 6804   3.951   6.012   6.197  0.2271  1.1075 -0.1558
   76SLPC  H12A 6805   3.924   6.112   6.230 -2.6942 -0.3371  2.3297
   76SLPC  H12B 6806   4.043   5.979   6.240 -0.0913 -1.4555 -1.2852
   76SLPC   C11 6807   3.829   5.924   6.251 -0.2055  0.5487  0.4037
   76SLPC  H11A 6808   3.870   5.901   6.351 -0.7201  0.2868  0.5577
   76SLPC  H11B 6809   3.828   5.825   6.201  0.6864  0.8791 -0.3159
   76SLPC     P 6810   3.627   6.037   6.367  0.3969  0.0592  0.1652
   76SLPC   O13 6811   3.489   6.079   6.328 -0.7937 -0.0015 -0.2228
   76SLPC   O14 6812   3.635   5.941   6.478 -0.0049  0.5824  0.0782
   76SLPC   O12 6813   3.705   5.987   6.237 -0.4514  0.1140  0.4367
   76SLPC   O11 6814   3.708   6.167   6.419  0.2368 -0.2617  0.9210
   76SLPC    C1 6815   3.798   6.185   6.530 -0.3089 -0.0802 -0.3895
   76SLPC    HA 6816   3.868   6.099   6.531 -0.0220  0.0663  3.1031
   76SLPC    HB 6817   3.865   6.270   6.507  0.8766 -1.0477 -0.5800
   76SLPC    C2 6818   3.741   6.187   6.667  0.2747  0.1266  0.5151
   76SLPC    HS 6819   3.710   6.081   6.682 -1.9738  0.6387 -0.0941
   76SLPC   O21 6820   3.631   6.280   6.657  0.4313  0.5571  0.0354
   76SLPC   C21 6821   3.518   6.246   6.714  0.3673  0.7246  0.3718
   76SLPC   O22 6822   3.501   6.140   6.773  0.0218  0.2963 -0.2350
   76SLPC   C22 6823   3.429   6.363   6.695 -0.0410 -0.4163 -0.1706
   76SLPC   H2R 6824   3.481   6.458   6.721  0.7696 -0.6573 -0.8661
   76SLPC   H2S 6825   3.403   6.370   6.588 -1.3997  1.3350  0.2167
   76SLPC    C3 6826   3.838   6.215   6.786 -0.2154  0.4848  0.2412
   76SLPC    HX 6827   3.841   6.326   6.789 -1.3311  0.6678 -2.4167
   76SLPC    HY 6828   3.934   6.170   6.754  0.7183  0.3282  2.9968
   76SLPC   O31 6829   3.794   6.144   6.908 -0.7238 -0.2343 -0.6873
   76SLPC   C31 6830   3.712   6.210   6.994  0.0564 -0.2182  0.9387
   76SLPC   O32 6831   3.686   6.329   6.984 -0.0812  0.2839 -0.4191
   76SLPC   C32 6832   3.674   6.124   7.111  0.6905  0.7140 -0.2836
   76SLPC   H2X 6833   3.765   6.070   7.146 -0.7376 -1.5628  0.1397
   76SLPC   H2Y 6834   3.601   6.046   7.081  0.6197  0.0851  1.4002
   76SLPC   C23 6835   3.294   6.343   6.768  0.2855  0.1981 -1.1037
   76SLPC   H3R 6836   3.235   6.252   6.744  0.7754  0.0169 -1.6372
   76SLPC   H3S 6837   3.233   6.422   6.719  1.5293  1.5533 -0.5639
   76SLPC   C24 6838   3.310   6.377   6.917  0.4885  0.3286  0.6318
   76SLPC   H4R 6839   3.399   6.326   6.959  1.0221 -0.5260 -1.3923
   76SLPC   H4S 6840   3.217   6.343   6.967 -1.7015  2.7485 -1.4737
   76SLPC   C25 6841   3.327   6.527   6.938 -0.1257  0.3341  0.1443
   76SLPC   H5R 6842   3.237   6.589   6.914  0.3029  1.2062  0.7648
   76SLPC   H5S 6843   3.415   6.561   6.879 -1.0985 -0.1623 -1.6801
   76SLPC   C26 6844   3.355   6.553   7.085 -0.0406  1.0779 -0.4773
   76SLPC   H6R 6845   3.436   6.485   7.117 -0.9370 -0.2109 -0.8717
   76SLPC   H6S 6846   3.265   6.519   7.140 -0.1210  2.1574  0.0799
   76SLPC   C27 6847   3.376   6.699   7.111  0.7953 -0.4851  0.5058
   76SLPC   H7R 6848   3.318   6.770   7.048  1.3868  0.0599  0.5648
   76SLPC   H7S 6849   3.485   6.720   7.105  1.1818 -1.6068  2.6138
   76SLPC   C28 6850   3.341   6.741   7.253 -0.2295 -0.0799  0.3651
   76SLPC   H8R 6851   3.381   6.844   7.259 -0.6441  0.2063 -1.3635
   76SLPC   H8S 6852   3.233   6.725   7.274 -0.0600 -0.2270  1.1513
   76SLPC   C29 6853   3.434   6.677   7.357 -0.6230  0.2390  0.1377
   76SLPC   H9R 6854   3.536   6.714   7.344 -0.7637  1.2422  1.6625
   76SLPC  C210 6855   3.409   6.592   7.452  0.1789  0.5954 -0.0072
   76SLPC  H10R 6856   3.492   6.546   7.508  0.6766  1.2759 -0.1585
   76SLPC  C211 6857   3.268   6.538   7.496 -0.3659 -0.4000  0.3387
   76SLPC  H11R 6858   3.290   6.443   7.549 -0.4257 -1.4753 -1.4584
   76SLPC  H11S 6859   3.218   6.513   7.400  0.4217 -2.5149  0.4251
   76SLPC  C212 6860   3.163   6.638   7.551 -0.6398 -0.3884 -1.2307
   76SLPC  H12R 6861   3.082   6.659   7.480 -1.1993 -0.4724 -0.6222
   76SLPC  C213 6862   3.168   6.689   7.686  0.6429  0.5624  0.4425
   76SLPC  H13R 6863   3.086   6.756   7.718  1.7213  2.8068 -1.1980
   76SLPC  C214 6864   3.275   6.656   7.794  0.5898  0.0651 -0.0659
   76SLPC  H14R 6865   3.332   6.750   7.810 -0.5674  1.3039 -2.6366
   76SLPC  H14S 6866   3.333   6.570   7.754 -0.8577 -1.1231  0.2903
   76SLPC  C215 6867   3.213   6.601   7.929 -0.2023 -0.3456  0.2438
   76SLPC  H15R 6868   3.288   6.538   7.982  0.8884  2.4144  2.2019
   76SLPC  H15S 6869   3.133   6.541   7.880 -0.2918 -0.0533  0.0276
   76SLPC  C216 6870   3.158   6.708   8.022  0.8539 -0.4382  0.2802
   76SLPC  H16R 6871   3.073   6.750   7.963 -0.2434 -1.5180  1.0289
   76SLPC  H16S 6872   3.225   6.791   8.051  0.4890 -0.2843  0.6932
   76SLPC  C217 6873   3.096   6.647   8.151  0.0987  0.1037 -0.1695
   76SLPC  H17R 6874   3.175   6.653   8.228 -0.7093  2.1774  0.5484
   76SLPC  H17S 6875   3.066   6.546   8.114  2.3054 -0.0926 -1.6279
   76SLPC  C218 6876   2.969   6.731   8.196  0.3015 -0.1372  0.6404
   76SLPC  H18R 6877   3.005   6.835   8.213  0.9142 -0.2324  0.0026
   76SLPC  H18S 6878   2.936   6.688   8.293  0.0411 -2.0248 -0.2337
   76SLPC  H18T 6879   2.887   6.725   8.122 -1.6266 -0.2882  2.6931
   76SLPC   C33 6880   3.609   6.207   7.217 -0.3301  0.1757  0.7778
   76SLPC   H3X 6881   3.507   6.241   7.188  0.9892  4.6860  0.7965
   76SLPC   H3Y 6882   3.668   6.296   7.246  1.4067 -0.4023 -0.8177
   76SLPC   C34 6883   3.574   6.112   7.337 -0.2253 -0.0980  0.6628
   76SLPC   H4X 6884   3.651   6.033   7.350  0.6641  0.3356 -1.5915
   76SLPC   H4Y 6885   3.470   6.075   7.318  0.0178 -0.6326  0.3537
   76SLPC   C35 6886   3.560   6.196   7.462  0.2902  0.3481 -0.8637
   76SLPC   H5X 6887   3.497   6.285   7.441 -1.2866  0.2103  2.5737
   76SLPC   H5Y 6888   3.660   6.234   7.491 -0.4530  0.4714  1.7955
   76SLPC   C36 6889   3.510   6.114   7.579  0.2324  0.8068  0.3546
   76SLPC   H6X 6890   3.588   6.036   7.597 -1.1703 -0.9000 -0.6567
   76SLPC   H6Y 6891   3.415   6.060   7.562  1.2261 -0.5174 -1.2455
   76SLPC   C37 6892   3.499   6.199   7.707  0.3085 -0.5785 -0.2028
   76SLPC   H7X 6893   3.439   6.292   7.696  0.9435 -0.2611 -1.0878
   76SLPC   H7Y 6894   3.602   6.228   7.737  0.0625  0.5695 -0.4310
   76SLPC   C38 6895   3.434   6.112   7.812 -0.6497  0.0239 -0.0942
   76SLPC   H8X 6896   3.502   6.027   7.834 -2.0519 -0.7051  1.6444
   76SLPC   H8Y 6897   3.339   6.071   7.773  0.1954 -0.1960 -2.0027
   76SLPC   C39 6898   3.424   6.180   7.949  0.0037 -0.6561  0.6173
   76SLPC   H9X 6899   3.381   6.282   7.936  1.6001 -0.3197 -3.3498
   76SLPC   H9Y 6900   3.531   6.194   7.973  0.6051  1.2040 -2.5287
   76SLPC  C310 6901   3.350   6.099   8.059  0.2671  0.1691 -0.5971
   76SLPC  H10X 6902   3.400   6.000   8.063  0.6065  0.3381 -0.6187
   76SLPC  H10Y 6903   3.243   6.081   8.036  0.2807  1.2770 -1.6736
   76SLPC  C311 6904   3.375   6.162   8.200 -0.1079 -0.1314 -0.4680
   76SLPC  H11X 6905   3.338   6.264   8.178 -0.7436  0.0155  1.1457
   76SLPC  H11Y 6906   3.485   6.169   8.217 -0.3864  0.7264  1.1458
   76SLPC  C312 6907   3.300   6.096   8.313 -0.1985  0.3775  0.3485
   76SLPC  H12X 6908   3.350   5.997   8.323  0.6166  0.5334 -1.6380
   76SLPC  H12Y 6909   3.192   6.080   8.295 -0.1973 -1.0903  1.5170
   76SLPC  C313 6910   3.307   6.183   8.439 -0.2345 -0.7134  0.4200
   76SLPC  H13X 6911   3.403   6.239   8.440 -0.1229 -0.8256 -1.2721
   76SLPC  H13Y 6912   3.296   6.117   8.528 -0.4434 -1.6580 -0.2886
   76SLPC  C314 6913   3.190   6.284   8.450  0.4215 -0.0195 -0.6136
   76SLPC  H14X 6914   3.097   6.227   8.471  1.2333 -1.0083  0.4838
   76SLPC  H14Y 6915   3.173   6.328   8.350  2.0183  1.7236 -0.1850
   76SLPC  C315 6916   3.214   6.399   8.551 -0.5528 -0.1328 -0.2920
   76SLPC  H15X 6917   3.316   6.443   8.546 -0.4084 -0.2852  0.9374
   76SLPC  H15Y 6918   3.191   6.358   8.652 -2.0493  3.5545  1.0815
   76SLPC  C316 6919   3.115   6.513   8.531  1.1041  0.1202  0.1380
   76SLPC  H16X 6920   3.011   6.473   8.532  0.4386  1.7531 -0.0690
   76SLPC  H16Y 6921   3.126   6.551   8.427  1.7827  0.2317  0.2491
   76SLPC  C317 6922   3.128   6.623   8.635  0.2879 -0.1774  0.1051
   76SLPC  H17X 6923   3.228   6.672   8.639  0.6715 -0.8901 -0.5701
   76SLPC  H17Y 6924   3.110   6.575   8.734 -2.1696  1.6163  0.6333
   76SLPC  C318 6925   3.029   6.745   8.611 -0.0309 -0.3804  0.2454
   76SLPC  H18X 6926   3.068   6.808   8.529 -0.0827  0.3133  0.7456
   76SLPC  H18Y 6927   3.038   6.805   8.704  1.1103  0.5521 -0.4411
   76SLPC  H18Z 6928   2.925   6.706   8.606 -0.0370 -0.6267  1.8407
   77SLPC     N 6929   6.526   0.171   6.315  0.6783 -0.0382  0.4621
   77SLPC   C13 6930   6.545   0.320   6.314 -0.1536 -0.5956  0.3418
   77SLPC  H13A 6931   6.624   0.354   6.380 -0.8121 -0.6778  1.1913
   77SLPC  H13B 6932   6.580   0.355   6.218  3.8790  1.3278  2.2563
   77SLPC  H13C 6933   6.462   0.381   6.347 -0.1666 -0.7886  0.6613
   77SLPC   C14 6934   6.640   0.108   6.256  0.2947  0.1273 -0.1096
   77SLPC  H14A 6935   6.636   0.001   6.273  0.4824  0.0667 -0.4458
   77SLPC  H14B 6936   6.636   0.121   6.149  0.2457 -0.3029 -0.1610
   77SLPC  H14C 6937   6.731   0.145   6.300  0.0258 -0.1915  0.7269
   77SLPC   C15 6938   6.400   0.139   6.234 -0.8667  0.3446  0.6103
   77SLPC  H15A 6939   6.427   0.135   6.130 -0.0507 -2.3304  0.8598
   77SLPC  H15B 6940   6.355   0.044   6.259 -1.7495  0.2495 -1.2474
   77SLPC  H15C 6941   6.326   0.216   6.250 -0.4128  0.9536 -0.1591
   77SLPC   C12 6942   6.502   0.121   6.456 -0.1264  0.2014 -0.3873
   77SLPC  H12A 6943   6.427   0.185   6.499  0.4482  0.6191  0.0157
   77SLPC  H12B 6944   6.592   0.137   6.514  1.0993 -0.3414 -2.0785
   77SLPC   C11 6945   6.464  -0.026   6.479  0.0023 -0.0253  0.5358
   77SLPC  H11A 6946   6.373  -0.053   6.421  1.1353 -0.2114 -1.2556
   77SLPC  H11B 6947   6.448  -0.044   6.587 -1.6320  0.0687  0.3215
   77SLPC     P 6948   6.687  -0.165   6.501 -0.4581 -0.5650  0.2029
   77SLPC   O13 6949   6.781  -0.221   6.395  0.6774  0.4002  0.0467
   77SLPC   O14 6950   6.749  -0.056   6.587  0.3133  0.3387  0.5050
   77SLPC   O12 6951   6.561  -0.118   6.430 -0.7620  0.1914  0.2120
   77SLPC   O11 6952   6.639  -0.273   6.597  0.5693  0.3671 -0.0102
   77SLPC    C1 6953   6.545  -0.376   6.562 -0.1609 -0.1568 -0.0697
   77SLPC    HA 6954   6.444  -0.349   6.598 -1.3912 -3.0253 -1.0670
   77SLPC    HB 6955   6.525  -0.382   6.453 -1.7017 -0.0442  0.1961
   77SLPC    C2 6956   6.576  -0.518   6.618  0.3723 -0.5538 -0.1040
   77SLPC    HS 6957   6.501  -0.595   6.593  2.2381 -2.8906  1.0573
   77SLPC   O21 6958   6.599  -0.520   6.761  0.3353 -0.2096  0.0086
   77SLPC   C21 6959   6.484  -0.513   6.823  0.3202  0.6987 -0.1301
   77SLPC   O22 6960   6.376  -0.522   6.769  0.0006 -0.3832  0.1991
   77SLPC   C22 6961   6.502  -0.504   6.976  0.0376  0.4631  0.9326
   77SLPC   H2R 6962   6.572  -0.586   7.006  0.5162 -0.1797 -1.7018
   77SLPC   H2S 6963   6.546  -0.404   6.996  1.4533  0.1817 -0.5417
   77SLPC    C3 6964   6.705  -0.570   6.543 -0.1260  0.4609 -0.6216
   77SLPC    HX 6965   6.786  -0.501   6.574  0.2022 -1.2003  2.5701
   77SLPC    HY 6966   6.677  -0.558   6.436  1.2698 -0.6734 -1.1487
   77SLPC   O31 6967   6.729  -0.715   6.566 -0.4684  0.2289 -0.0337
   77SLPC   C31 6968   6.829  -0.741   6.658  0.6869  0.2096  0.6233
   77SLPC   O32 6969   6.898  -0.658   6.711 -0.5701 -0.3457  0.2385
   77SLPC   C32 6970   6.812  -0.878   6.708  0.3022 -0.8364 -0.0679
   77SLPC   H2X 6971   6.917  -0.915   6.719  0.4618  0.1556  2.4736
   77SLPC   H2Y 6972   6.760  -0.926   6.623 -1.0989  3.0202 -1.5856
   77SLPC   C23 6973   6.365  -0.509   7.051  0.5416  0.9489 -0.1499
   77SLPC   H3R 6974   6.301  -0.588   7.008  0.2481  2.2721 -2.2897
   77SLPC   H3S 6975   6.317  -0.411   7.030  2.0847  1.5241 -1.2656
   77SLPC   C24 6976   6.376  -0.548   7.204  0.4014 -0.3140  0.5595
   77SLPC   H4R 6977   6.432  -0.472   7.263 -1.5682  1.2356  0.5337
   77SLPC   H4S 6978   6.435  -0.642   7.201  3.5167  1.4858  1.3677
   77SLPC   C25 6979   6.241  -0.559   7.274 -0.2016  0.3857  0.4383
   77SLPC   H5R 6980   6.172  -0.612   7.204  2.0385 -2.4264  0.1832
   77SLPC   H5S 6981   6.203  -0.455   7.287 -1.4918 -0.1335  1.0086
   77SLPC   C26 6982   6.253  -0.626   7.409  0.4891 -0.2457 -0.3739
   77SLPC   H6R 6983   6.332  -0.581   7.474 -0.4629 -0.0509  0.6801
   77SLPC   H6S 6984   6.270  -0.735   7.398 -1.8005 -1.0453  2.5395
   77SLPC   C27 6985   6.114  -0.615   7.496 -0.2638 -0.9681 -0.0738
   77SLPC   H7R 6986   6.042  -0.686   7.450  0.0457 -0.7530 -0.9145
   77SLPC   H7S 6987   6.075  -0.511   7.489  0.7822 -0.4940  0.8664
   77SLPC   C28 6988   6.133  -0.646   7.647  0.8821 -0.0271 -0.4693
   77SLPC   H8R 6989   6.165  -0.547   7.687  3.3497  0.0127 -2.3266
   77SLPC   H8S 6990   6.224  -0.710   7.657  1.6121  1.0271 -0.1703
   77SLPC   C29 6991   6.019  -0.709   7.730 -0.6858  0.0591 -0.3530
   77SLPC   H9R 6992   5.948  -0.641   7.777 -1.1793 -1.6225  1.4669
   77SLPC  C210 6993   5.998  -0.840   7.751 -0.5380  0.4997  0.8300
   77SLPC  H10R 6994   5.926  -0.876   7.827 -0.7509 -0.5680  0.1501
   77SLPC  C211 6995   6.090  -0.950   7.691  0.3418 -0.7910  0.4261
   77SLPC  H11R 6996   6.190  -0.926   7.733  0.2061  1.4509 -0.3781
   77SLPC  H11S 6997   6.086  -0.934   7.581 -2.3177 -0.0790  0.5490
   77SLPC  C212 6998   6.057  -1.093   7.723 -0.7020  0.1304 -0.4336
   77SLPC  H12R 6999   5.988  -1.142   7.653 -1.4454  0.7637 -0.1596
   77SLPC  C213 7000   6.088  -1.156   7.837 -0.2463 -0.2689 -0.0186
   77SLPC  H13R 7001   6.051  -1.255   7.867 -0.7488 -0.0085  0.2305
   77SLPC  C214 7002   6.168  -1.095   7.954  0.3453  0.1369 -0.4548
   77SLPC  H14R 7003   6.183  -0.986   7.939  0.4038  0.7128  2.8938
   77SLPC  H14S 7004   6.269  -1.138   7.973 -0.2808 -0.2039  2.7903
   77SLPC  C215 7005   6.083  -1.099   8.084  0.2940  0.4296  0.5103
   77SLPC  H15R 7006   5.976  -1.079   8.063  0.1840  0.7428  1.3310
   77SLPC  H15S 7007   6.112  -1.013   8.148 -2.5705  2.5275 -0.8403
   77SLPC  C216 7008   6.114  -1.230   8.170 -0.3210  0.3073  0.5119
   77SLPC  H16R 7009   6.225  -1.229   8.179 -0.3502  0.1929  0.9252
   77SLPC  H16S 7010   6.073  -1.318   8.115 -0.8552  1.8029 -1.5996
   77SLPC  C217 7011   6.060  -1.233   8.315 -0.8812 -0.9393  0.0473
   77SLPC  H17R 7012   6.072  -1.135   8.367 -0.5431 -1.1625  0.3997
   77SLPC  H17S 7013   6.123  -1.303   8.374  1.8285  0.1516 -1.3564
   77SLPC  C218 7014   5.919  -1.286   8.336 -0.0355  1.0271 -1.2707
   77SLPC  H18R 7015   5.850  -1.217   8.282  1.2523  1.9818 -1.7561
   77SLPC  H18S 7016   5.889  -1.296   8.442 -0.5508 -1.3748 -1.6039
   77SLPC  H18T 7017   5.900  -1.381   8.282 -1.9879  0.4609  0.3255
   77SLPC   C33 7018   6.718  -0.894   6.830 -0.2311 -0.1916 -0.2277
   77SLPC   H3X 7019   6.701  -1.003   6.842  0.1925 -0.2303  0.0145
   77SLPC   H3Y 7020   6.626  -0.833   6.813  0.0415  0.0828 -0.7275
   77SLPC   C34 7021   6.774  -0.830   6.962  0.2199  0.7428  0.6729
   77SLPC   H4X 7022   6.799  -0.722   6.957 -0.7959  0.9414 -0.7605
   77SLPC   H4Y 7023   6.861  -0.890   6.997  0.1623  0.6400  0.6432
   77SLPC   C35 7024   6.677  -0.847   7.084  0.2889 -0.0410  0.7009
   77SLPC   H5X 7025   6.638  -0.950   7.101 -0.6499  0.3094  0.7492
   77SLPC   H5Y 7026   6.590  -0.778   7.074  0.5653  0.0710 -1.1091
   77SLPC   C36 7027   6.741  -0.798   7.217 -0.3224  0.8538  0.6244
   77SLPC   H6X 7028   6.769  -0.691   7.203  1.0388  0.5595  0.9483
   77SLPC   H6Y 7029   6.838  -0.850   7.234 -1.2043 -0.6268  1.2718
   77SLPC   C37 7030   6.652  -0.824   7.335  0.1017  0.8354 -0.9647
   77SLPC   H7X 7031   6.664  -0.932   7.354 -0.9447  0.7261 -0.8496
   77SLPC   H7Y 7032   6.543  -0.827   7.312 -0.8998  0.5298  3.1323
   77SLPC   C38 7033   6.684  -0.735   7.453 -0.3537 -0.0257  0.2505
   77SLPC   H8X 7034   6.675  -0.628   7.424  0.9652 -0.4819 -2.1193
   77SLPC   H8Y 7035   6.787  -0.752   7.492 -0.0023 -3.2492 -1.7133
   77SLPC   C39 7036   6.590  -0.769   7.563 -0.1747  0.0952 -0.1385
   77SLPC   H9X 7037   6.587  -0.880   7.575  2.6656  0.0803  1.1837
   77SLPC   H9Y 7038   6.483  -0.740   7.549 -0.1041  1.9517  2.4569
   77SLPC  C310 7039   6.631  -0.712   7.703 -0.4824 -0.1100 -0.0970
   77SLPC  H10X 7040   6.649  -0.603   7.707  1.3511 -0.1332 -3.8067
   77SLPC  H10Y 7041   6.733  -0.756   7.713 -1.3767 -2.4892 -0.6128
   77SLPC  C311 7042   6.544  -0.761   7.821  0.0372 -0.0935  0.6634
   77SLPC  H11X 7043   6.614  -0.759   7.907  0.5217 -0.4893  0.2833
   77SLPC  H11Y 7044   6.513  -0.867   7.812  0.1291  0.0500 -2.0709
   77SLPC  C312 7045   6.434  -0.664   7.852  0.0483  0.1153 -1.2326
   77SLPC  H12X 7046   6.388  -0.621   7.760 -1.8340  1.7713  0.4008
   77SLPC  H12Y 7047   6.483  -0.573   7.893  0.5284 -0.2952 -0.8918
   77SLPC  C313 7048   6.336  -0.728   7.952  0.1738 -0.3625 -0.1605
   77SLPC  H13X 7049   6.395  -0.791   8.021 -0.9915 -0.6719  0.5850
   77SLPC  H13Y 7050   6.258  -0.794   7.908 -0.9904  0.3541  0.7823
   77SLPC  C314 7051   6.260  -0.626   8.039  0.0231 -0.3694  0.6610
   77SLPC  H14X 7052   6.210  -0.559   7.966  1.1165 -0.5849 -0.3109
   77SLPC  H14Y 7053   6.328  -0.564   8.101 -0.7218  1.0477  0.0976
   77SLPC  C315 7054   6.147  -0.696   8.117 -0.0747 -0.2584  0.1804
   77SLPC  H15X 7055   6.186  -0.784   8.172 -1.1530 -0.7204  0.2323
   77SLPC  H15Y 7056   6.069  -0.744   8.054 -1.9359 -0.3187  2.4123
   77SLPC  C316 7057   6.064  -0.606   8.211 -0.2804  0.1313 -0.3987
   77SLPC  H16X 7058   6.117  -0.568   8.301 -1.7602  1.5485 -0.0827
   77SLPC  H16Y 7059   5.979  -0.667   8.247 -0.9048  0.0843 -1.8835
   77SLPC  C317 7060   6.005  -0.484   8.143  1.0756  0.6275  0.0125
   77SLPC  H17X 7061   6.080  -0.433   8.079  0.7010  1.9481  0.5863
   77SLPC  H17Y 7062   5.967  -0.410   8.216  1.5729  0.6648  0.2350
   77SLPC  C318 7063   5.889  -0.522   8.048 -0.8426 -0.2647  0.2827
   77SLPC  H18X 7064   5.873  -0.431   7.987  2.3476  0.8736  0.9566
   77SLPC  H18Y 7065   5.806  -0.557   8.113 -1.0318  0.4058  0.4078
   77SLPC  H18Z 7066   5.913  -0.607   7.980  0.5716 -1.2492  1.8885
   78SLPC     N 7067   2.501   0.673   6.180  0.3145 -0.6490  0.7927
   78SLPC   C13 7068   2.471   0.762   6.062  0.2730  0.6079 -0.2346
   78SLPC  H13A 7069   2.375   0.808   6.075 -0.9773 -2.3192  1.9817
   78SLPC  H13B 7070   2.553   0.830   6.045  0.1785  0.2548 -2.5063
   78SLPC  H13C 7071   2.465   0.702   5.972 -0.4556 -1.3676  1.0772
   78SLPC   C14 7072   2.539   0.767   6.294  0.3228  0.8453 -0.3936
   78SLPC  H14A 7073   2.558   0.709   6.383 -2.2220 -0.3951 -0.5816
   78SLPC  H14B 7074   2.636   0.810   6.274  1.1504 -0.8318 -0.1744
   78SLPC  H14C 7075   2.458   0.837   6.303 -2.8647 -2.4866 -0.7505
   78SLPC   C15 7076   2.615   0.578   6.144 -0.0423  0.6473  0.4011
   78SLPC  H15A 7077   2.596   0.523   6.053 -2.1565  1.9073  0.0177
   78SLPC  H15B 7078   2.704   0.640   6.139  0.5830 -0.2953 -0.5614
   78SLPC  H15C 7079   2.618   0.502   6.220 -2.2670  0.0558 -0.0471
   78SLPC   C12 7080   2.371   0.593   6.209 -0.0643  0.1688  0.0397
   78SLPC  H12A 7081   2.347   0.528   6.127 -2.2534 -1.9481  2.1836
   78SLPC  H12B 7082   2.292   0.666   6.221 -0.2851 -0.4378  3.0866
   78SLPC   C11 7083   2.361   0.504   6.336  0.1992 -0.3217 -0.5321
   78SLPC  H11A 7084   2.263   0.452   6.345 -0.1650  0.5403  0.7022
   78SLPC  H11B 7085   2.378   0.569   6.424  1.7269 -0.1146 -0.9653
   78SLPC     P 7086   2.453   0.260   6.270  0.1998  0.1931  0.1869
   78SLPC   O13 7087   2.509   0.279   6.135  0.0528  0.2670 -0.1082
   78SLPC   O14 7088   2.523   0.172   6.364 -0.0298 -0.4503 -0.8805
   78SLPC   O12 7089   2.459   0.403   6.341  0.2422  0.2922  0.0111
   78SLPC   O11 7090   2.297   0.221   6.269 -0.2797  0.1232  0.3619
   78SLPC    C1 7091   2.219   0.210   6.385  0.1036  0.4038  0.0743
   78SLPC    HA 7092   2.260   0.240   6.484 -0.4061 -0.7155  0.6481
   78SLPC    HB 7093   2.130   0.275   6.385 -1.0888 -1.1061  2.1479
   78SLPC    C2 7094   2.171   0.061   6.416 -0.7168  0.0603  0.2979
   78SLPC    HS 7095   2.153   0.025   6.312  1.0215  2.2279 -0.8399
   78SLPC   O21 7096   2.045   0.058   6.492  0.1501 -0.6832 -0.7828
   78SLPC   C21 7097   1.932   0.051   6.431  0.2563 -0.2518  0.5037
   78SLPC   O22 7098   1.914   0.024   6.312 -0.0908  0.5923  0.3234
   78SLPC   C22 7099   1.824   0.072   6.531 -0.3538  0.4493 -0.5348
   78SLPC   H2R 7100   1.873   0.143   6.602 -0.2846 -0.4924  0.3873
   78SLPC   H2S 7101   1.737   0.119   6.481 -1.4483 -1.6158 -0.6590
   78SLPC    C3 7102   2.274  -0.016   6.491 -0.4990  0.8458  0.3145
   78SLPC    HX 7103   2.365  -0.012   6.429 -0.6395  0.8602  0.1093
   78SLPC    HY 7104   2.241  -0.122   6.493 -0.6993  0.8314 -1.8753
   78SLPC   O31 7105   2.294   0.027   6.621  0.1103 -0.1387  0.9341
   78SLPC   C31 7106   2.382  -0.040   6.702 -0.5276 -0.1517  0.4637
   78SLPC   O32 7107   2.449  -0.135   6.659  0.9296  0.4729 -0.1880
   78SLPC   C32 7108   2.372   0.014   6.846 -0.2500 -0.5908 -0.1729
   78SLPC   H2X 7109   2.347   0.120   6.826 -0.3740 -0.6867 -0.5289
   78SLPC   H2Y 7110   2.470   0.001   6.897 -0.5440  0.3202  0.6495
   78SLPC   C23 7111   1.794  -0.055   6.611  0.7234 -0.4997  0.7535
   78SLPC   H3R 7112   1.876  -0.111   6.660 -0.1296 -1.0513  1.5859
   78SLPC   H3S 7113   1.742  -0.128   6.545 -1.1375  1.6484 -0.2825
   78SLPC   C24 7114   1.698  -0.020   6.730  0.3900  0.3332  0.1734
   78SLPC   H4R 7115   1.636  -0.111   6.751 -2.0893  1.8880  0.0553
   78SLPC   H4S 7116   1.626   0.057   6.696 -0.1098  0.0176  0.4840
   78SLPC   C25 7117   1.753   0.029   6.862  1.1754  0.4484  0.0741
   78SLPC   H5R 7118   1.808   0.123   6.843  1.7602  0.2600  0.7769
   78SLPC   H5S 7119   1.837  -0.037   6.893  1.1814  1.8356  3.4957
   78SLPC   C26 7120   1.648   0.047   6.974 -1.1154  0.9487 -0.1422
   78SLPC   H6R 7121   1.608  -0.054   6.996  1.2660 -0.1365 -0.5435
   78SLPC   H6S 7122   1.564   0.113   6.944 -2.7440 -1.7766 -1.9718
   78SLPC   C27 7123   1.699   0.113   7.108 -0.6399  0.4979 -0.6660
   78SLPC   H7R 7124   1.610   0.162   7.154 -1.0530  0.3661 -1.3066
   78SLPC   H7S 7125   1.765   0.192   7.068 -2.4112  1.6017 -1.5376
   78SLPC   C28 7126   1.759   0.011   7.207 -0.6093  0.5095  0.3102
   78SLPC   H8R 7127   1.833  -0.045   7.147 -2.6072 -0.5564 -1.2584
   78SLPC   H8S 7128   1.686  -0.066   7.240 -0.9616  0.5853 -0.2815
   78SLPC   C29 7129   1.834   0.077   7.316 -0.0621 -0.6871  0.1288
   78SLPC   H9R 7130   1.940   0.094   7.292  0.7202 -2.4391  2.0465
   78SLPC  C210 7131   1.789   0.105   7.437  0.7209  0.3981 -0.1276
   78SLPC  H10R 7132   1.856   0.150   7.512 -0.8304  1.5848  0.5865
   78SLPC  C211 7133   1.659   0.075   7.503  0.3424 -0.1438  0.4622
   78SLPC  H11R 7134   1.580   0.052   7.428 -0.1581 -1.3482  1.3233
   78SLPC  H11S 7135   1.618   0.168   7.547  0.7401 -0.0763  0.6889
   78SLPC  C212 7136   1.665  -0.049   7.589  0.2874  0.1909 -0.2602
   78SLPC  H12R 7137   1.696  -0.138   7.533 -1.2687 -0.1555 -0.5956
   78SLPC  C213 7138   1.642  -0.063   7.718 -0.6858  0.2380 -0.4319
   78SLPC  H13R 7139   1.636  -0.162   7.766  2.8219  0.1796  0.1578
   78SLPC  C214 7140   1.609   0.051   7.810 -0.8753  0.9229  0.6395
   78SLPC  H14R 7141   1.507   0.034   7.851 -1.2726  0.4107 -0.5280
   78SLPC  H14S 7142   1.621   0.151   7.764 -3.0974  0.9832  0.0814
   78SLPC  C215 7143   1.728   0.059   7.909  0.8054  0.5542 -0.2133
   78SLPC  H15R 7144   1.826   0.068   7.857 -0.5627 -3.2197 -4.0104
   78SLPC  H15S 7145   1.726  -0.038   7.965  0.8126  0.7479  0.1254
   78SLPC  C216 7146   1.705   0.165   8.019 -0.6504  0.0791  0.0034
   78SLPC  H16R 7147   1.632   0.126   8.094 -2.2466 -0.3456 -1.7005
   78SLPC  H16S 7148   1.679   0.268   7.987  0.2854  0.2233 -0.3204
   78SLPC  C217 7149   1.837   0.189   8.104  0.1381  0.4455 -0.3628
   78SLPC  H17R 7150   1.913   0.255   8.057  0.4068  0.1609 -0.3323
   78SLPC  H17S 7151   1.887   0.090   8.105 -0.3291  0.2029  0.5604
   78SLPC  C218 7152   1.794   0.236   8.239 -0.1373  0.1689  0.8810
   78SLPC  H18R 7153   1.871   0.287   8.301  2.5229 -0.1303 -1.9651
   78SLPC  H18S 7154   1.743   0.159   8.300  0.2543 -0.4798  0.4019
   78SLPC  H18T 7155   1.710   0.305   8.215  0.2425 -0.5600 -3.2615
   78SLPC   C33 7156   2.256  -0.056   6.923 -0.1183 -0.0393 -0.5772
   78SLPC   H3X 7157   2.293  -0.159   6.940  1.7408  0.9683  2.1951
   78SLPC   H3Y 7158   2.157  -0.047   6.872  0.7805  1.9914 -2.0776
   78SLPC   C34 7159   2.241  -0.005   7.069 -0.1743  0.4532 -0.2152
   78SLPC   H4X 7160   2.149  -0.042   7.119  0.3427 -1.9274 -0.8966
   78SLPC   H4Y 7161   2.238   0.106   7.065  1.5963  0.5385  0.0302
   78SLPC   C35 7162   2.362  -0.036   7.157  0.1047  0.2772  0.2473
   78SLPC   H5X 7163   2.460  -0.014   7.109  0.6918  1.1965  1.7808
   78SLPC   H5Y 7164   2.362  -0.145   7.175  1.4128  0.1249 -0.5575
   78SLPC   C36 7165   2.367   0.038   7.294  0.4181 -0.8414 -0.0128
   78SLPC   H6X 7166   2.365   0.148   7.281  0.6739 -0.8168  0.1497
   78SLPC   H6Y 7167   2.459   0.006   7.348  0.3524  1.0535  1.3176
   78SLPC   C37 7168   2.242   0.013   7.377 -0.0498  0.7376 -0.0283
   78SLPC   H7X 7169   2.218  -0.093   7.356 -0.1507  0.7675 -0.0659
   78SLPC   H7Y 7170   2.158   0.067   7.329  0.8420  0.8228 -1.5387
   78SLPC   C38 7171   2.256   0.038   7.520 -0.0857 -0.5459 -0.1687
   78SLPC   H8X 7172   2.320   0.129   7.528 -0.5812  0.1038 -2.5897
   78SLPC   H8Y 7173   2.308  -0.049   7.566 -0.6148 -0.7189  0.1092
   78SLPC   C39 7174   2.118   0.062   7.586 -0.4528  0.0748 -0.3755
   78SLPC   H9X 7175   2.056  -0.030   7.574  2.0144 -1.9568  1.2122
   78SLPC   H9Y 7176   2.063   0.145   7.537 -0.0156 -0.1078 -1.2054
   78SLPC  C310 7177   2.123   0.088   7.736  0.3137 -0.4027  0.4559
   78SLPC  H10X 7178   2.193   0.015   7.782  1.3205  1.2727  1.7075
   78SLPC  H10Y 7179   2.025   0.075   7.786 -0.2191 -0.2501 -0.5361
   78SLPC  C311 7180   2.190   0.225   7.765 -0.8123  0.1215 -0.0619
   78SLPC  H11X 7181   2.235   0.263   7.671  0.6793 -0.7304  0.2842
   78SLPC  H11Y 7182   2.272   0.223   7.839  0.7441  1.4723 -1.6687
   78SLPC  C312 7183   2.086   0.327   7.824  0.7707 -0.1664  0.2587
   78SLPC  H12X 7184   2.050   0.298   7.924 -1.4073  1.3227 -0.0246
   78SLPC  H12Y 7185   1.994   0.339   7.763 -0.6771 -0.6133  2.2826
   78SLPC  C313 7186   2.143   0.465   7.826 -0.0877 -0.4204 -0.0467
   78SLPC  H13X 7187   2.067   0.535   7.865  1.6027  1.4318  0.0803
   78SLPC  H13Y 7188   2.162   0.490   7.719 -0.6817  0.6073  0.0804
   78SLPC  C314 7189   2.281   0.475   7.911  0.4638  0.3026  0.6060
   78SLPC  H14X 7190   2.363   0.432   7.850  0.3877 -1.6749  1.8032
   78SLPC  H14Y 7191   2.263   0.414   8.002 -1.6922  0.1705  0.1393
   78SLPC  C315 7192   2.329   0.622   7.937 -0.0638 -0.0726  0.3506
   78SLPC  H15X 7193   2.235   0.670   7.972  0.0364  0.0324  0.4737
   78SLPC  H15Y 7194   2.363   0.676   7.846  2.3305 -1.0447  0.5956
   78SLPC  C316 7195   2.447   0.635   8.035  0.2053  0.5667 -0.5940
   78SLPC  H16X 7196   2.542   0.612   7.982  0.3651 -1.7037  0.5552
   78SLPC  H16Y 7197   2.440   0.565   8.121 -0.8183  1.3995  0.0199
   78SLPC  C317 7198   2.450   0.766   8.112  0.7482 -0.9162 -0.5032
   78SLPC  H17X 7199   2.431   0.858   8.052 -0.1317  1.0750  2.5459
   78SLPC  H17Y 7200   2.552   0.783   8.153  1.7546 -3.7328 -1.6210
   78SLPC  C318 7201   2.356   0.771   8.234 -0.5500  0.0338 -0.1887
   78SLPC  H18X 7202   2.253   0.772   8.192  0.1892  2.1199 -2.1009
   78SLPC  H18Y 7203   2.365   0.850   8.312  0.5763  0.4232 -0.7001
   78SLPC  H18Z 7204   2.369   0.669   8.275 -1.8663 -1.2680 -2.7484
   79SLPC     N 7205   5.899   3.750   6.234  0.2589  0.5552 -0.4306
   79SLPC   C13 7206   5.869   3.796   6.092 -0.3500  0.4004 -0.2837
   79SLPC  H13A 7207   5.764   3.791   6.066  0.0413  1.2886 -2.2581
   79SLPC  H13B 7208   5.915   3.891   6.069  1.5444 -0.3624  0.1807
   79SLPC  H13C 7209   5.918   3.725   6.028  0.6336 -0.8678  1.7689
   79SLPC   C14 7210   5.816   3.631   6.255  0.4842  0.0879 -0.8953
   79SLPC  H14A 7211   5.828   3.588   6.353 -0.2655  1.0104 -0.3895
   79SLPC  H14B 7212   5.710   3.651   6.254  0.4890  0.2958  0.7015
   79SLPC  H14C 7213   5.843   3.562   6.176  0.8498  0.3577 -1.0085
   79SLPC   C15 7214   5.853   3.848   6.334 -0.0934  0.2526  0.7110
   79SLPC  H15A 7215   5.751   3.880   6.317 -0.0997  2.0366  3.5972
   79SLPC  H15B 7216   5.864   3.803   6.431  1.5826 -1.5001 -0.2077
   79SLPC  H15C 7217   5.915   3.936   6.336  1.7567 -0.8543 -1.7003
   79SLPC   C12 7218   6.047   3.715   6.258  0.1977 -0.3985  0.7032
   79SLPC  H12A 7219   6.111   3.801   6.239  0.0515 -0.1813  1.1792
   79SLPC  H12B 7220   6.072   3.638   6.187  1.7096 -0.4388  1.2480
   79SLPC   C11 7221   6.086   3.653   6.397 -0.0320  0.2604 -0.0723
   79SLPC  H11A 7222   6.051   3.714   6.483  0.6580  0.3331  0.1667
   79SLPC  H11B 7223   6.198   3.654   6.398  0.0383  1.3453  3.1538
   79SLPC     P 7224   6.092   3.399   6.335 -0.2699 -0.3406  0.4328
   79SLPC   O13 7225   6.030   3.276   6.387 -0.1645  0.5102  0.1236
   79SLPC   O14 7226   6.089   3.434   6.190  0.0549  0.2405 -0.0459
   79SLPC   O12 7227   6.032   3.522   6.411 -0.2769  1.0381 -0.1040
   79SLPC   O11 7228   6.240   3.414   6.378 -0.4509 -0.2223 -0.0869
   79SLPC    C1 7229   6.286   3.391   6.509 -0.3582 -0.0730 -0.4796
   79SLPC    HA 7230   6.372   3.462   6.507 -2.5734  2.7723 -3.5871
   79SLPC    HB 7231   6.223   3.429   6.592  1.4844  1.0414  0.4888
   79SLPC    C2 7232   6.317   3.241   6.530  0.6504  0.3613 -0.3261
   79SLPC    HS 7233   6.220   3.186   6.529  0.1552  1.2138 -0.2447
   79SLPC   O21 7234   6.387   3.226   6.657  0.1823  0.1759 -0.6159
   79SLPC   C21 7235   6.308   3.242   6.767 -0.0284  0.2609 -0.3419
   79SLPC   O22 7236   6.190   3.262   6.762  0.1723 -0.7523  0.1797
   79SLPC   C22 7237   6.392   3.211   6.896  0.3817  0.4294  0.6091
   79SLPC   H2R 7238   6.470   3.136   6.871 -1.0753 -0.7040 -0.7211
   79SLPC   H2S 7239   6.432   3.306   6.937 -3.0871  0.4080  4.6545
   79SLPC    C3 7240   6.397   3.171   6.417 -0.1076 -0.2690  0.3757
   79SLPC    HX 7241   6.487   3.233   6.400  1.6480 -2.9109 -0.4538
   79SLPC    HY 7242   6.356   3.164   6.313  1.6939 -2.5949 -0.2445
   79SLPC   O31 7243   6.429   3.034   6.455  0.0513  0.0420  0.2183
   79SLPC   C31 7244   6.563   3.011   6.479 -0.1019 -0.4471 -0.4270
   79SLPC   O32 7245   6.654   3.097   6.467 -0.4617 -0.0916 -0.3906
   79SLPC   C32 7246   6.588   2.866   6.513 -0.1731 -0.0942 -0.5179
   79SLPC   H2X 7247   6.657   2.834   6.432  0.7593  1.2664 -0.2920
   79SLPC   H2Y 7248   6.494   2.807   6.514 -0.7697  0.8407 -0.5740
   79SLPC   C23 7249   6.305   3.150   7.005 -0.0557  0.3509  0.6635
   79SLPC   H3R 7250   6.265   3.052   6.971  2.5104  0.1573 -2.2324
   79SLPC   H3S 7251   6.232   3.232   7.026 -1.4657  0.3058 -3.1530
   79SLPC   C24 7252   6.384   3.122   7.138  0.2174 -0.3117 -0.3868
   79SLPC   H4R 7253   6.415   3.224   7.169 -0.5944  0.3360 -1.6077
   79SLPC   H4S 7254   6.478   3.070   7.110  0.6032  0.2597 -0.1772
   79SLPC   C25 7255   6.311   3.050   7.248  0.1448 -0.5957  0.1340
   79SLPC   H5R 7256   6.286   2.946   7.215 -1.3430 -0.4611  0.7789
   79SLPC   H5S 7257   6.223   3.106   7.284  1.4830  0.1773  2.4006
   79SLPC   C26 7258   6.390   3.040   7.374 -0.2520  0.2782 -0.2119
   79SLPC   H6R 7259   6.420   3.143   7.400  1.6977  0.0596 -1.3979
   79SLPC   H6S 7260   6.476   2.972   7.355 -0.9354 -1.4213  2.3651
   79SLPC   C27 7261   6.313   2.969   7.482 -0.4867 -0.1242  0.2094
   79SLPC   H7R 7262   6.263   2.884   7.432 -1.8284  0.5387  0.3754
   79SLPC   H7S 7263   6.243   3.040   7.531 -0.0484 -1.2725  2.6774
   79SLPC   C28 7264   6.409   2.921   7.592  0.3083 -0.2747 -0.6347
   79SLPC   H8R 7265   6.437   3.011   7.650 -0.8560 -1.2356  1.5529
   79SLPC   H8S 7266   6.497   2.870   7.547 -1.1992 -1.9842 -1.7929
   79SLPC   C29 7267   6.350   2.817   7.682 -0.6332  0.3196  1.1901
   79SLPC   H9R 7268   6.351   2.721   7.629  0.2317 -0.2358  2.1653
   79SLPC  C210 7269   6.297   2.835   7.804  0.3045  0.4969 -0.2528
   79SLPC  H10R 7270   6.257   2.746   7.856  1.3682 -0.8180 -1.5877
   79SLPC  C211 7271   6.294   2.962   7.887  0.3707  0.9672 -0.9146
   79SLPC  H11R 7272   6.380   3.029   7.866 -0.1016  1.9245  0.1327
   79SLPC  H11S 7273   6.314   2.932   7.992 -0.2953 -1.9608 -1.5161
   79SLPC  C212 7274   6.168   3.049   7.879  0.4748  0.6464 -0.2810
   79SLPC  H12R 7275   6.130   3.051   7.776  1.7682  0.7544 -0.7647
   79SLPC  C213 7276   6.105   3.118   7.978  0.1006 -0.0811 -0.4595
   79SLPC  H13R 7277   6.001   3.152   7.961 -0.6320 -0.7874  2.2191
   79SLPC  C214 7278   6.147   3.135   8.123  0.3038  0.5913  0.6333
   79SLPC  H14R 7279   6.148   3.244   8.142 -0.0457  1.1537 -2.0991
   79SLPC  H14S 7280   6.240   3.078   8.144  0.2742  1.2252  2.7666
   79SLPC  C215 7281   6.043   3.095   8.238  0.4704 -0.1046 -0.1788
   79SLPC  H15R 7282   6.042   2.985   8.252  1.1018 -0.1106 -0.1518
   79SLPC  H15S 7283   5.942   3.131   8.209  1.6429  1.3291 -2.9411
   79SLPC  C216 7284   6.074   3.168   8.369  0.3727 -0.0206  1.0693
   79SLPC  H16R 7285   5.980   3.163   8.427 -2.0572 -2.1041 -2.5978
   79SLPC  H16S 7286   6.093   3.277   8.357 -1.3253  0.4794  2.6529
   79SLPC  C217 7287   6.189   3.092   8.438  0.0963 -0.3773 -0.5682
   79SLPC  H17R 7288   6.237   3.155   8.516  1.4173 -0.1857 -1.5107
   79SLPC  H17S 7289   6.278   3.079   8.374 -0.2998  1.7822 -1.6498
   79SLPC  C218 7290   6.154   2.947   8.475  0.0907  0.0937  0.5793
   79SLPC  H18R 7291   6.044   2.940   8.487  0.0706 -0.9309 -0.0175
   79SLPC  H18S 7292   6.221   2.927   8.561 -0.6803  3.2038  2.0185
   79SLPC  H18T 7293   6.176   2.884   8.386  0.3979  1.2447 -0.1872
   79SLPC   C33 7294   6.653   2.836   6.651  0.2309 -0.0273 -0.6189
   79SLPC   H3X 7295   6.740   2.904   6.653  0.0372  0.2102  0.2856
   79SLPC   H3Y 7296   6.704   2.737   6.651 -0.8795 -0.6764 -2.7809
   79SLPC   C34 7297   6.558   2.845   6.780 -0.2997  0.4968 -0.6020
   79SLPC   H4X 7298   6.521   2.948   6.797 -3.1808 -0.4307 -0.7842
   79SLPC   H4Y 7299   6.625   2.821   6.865 -1.2595  3.2691  1.0509
   79SLPC   C35 7300   6.436   2.749   6.785 -0.5599 -0.3523  0.4373
   79SLPC   H5X 7301   6.458   2.643   6.757  0.7362  0.3059 -1.2482
   79SLPC   H5Y 7302   6.355   2.785   6.718  0.1444  1.2467  0.4041
   79SLPC   C36 7303   6.378   2.757   6.927  0.0795  0.8055 -0.7207
   79SLPC   H6X 7304   6.321   2.851   6.941 -1.3856 -0.2015  0.3554
   79SLPC   H6Y 7305   6.470   2.754   6.989  1.5828 -0.1416 -2.8797
   79SLPC   C37 7306   6.291   2.634   6.965  0.7068 -0.5653 -0.3122
   79SLPC   H7X 7307   6.288   2.638   7.076 -0.3594  0.0552 -0.3434
   79SLPC   H7Y 7308   6.331   2.538   6.926 -1.7815 -0.8260 -2.5724
   79SLPC   C38 7309   6.148   2.658   6.914 -0.2214  0.1750  0.7457
   79SLPC   H8X 7310   6.094   2.561   6.911  1.6150 -0.9670  2.2548
   79SLPC   H8Y 7311   6.159   2.699   6.811 -1.3649 -0.4489  0.3617
   79SLPC   C39 7312   6.077   2.765   6.991  1.2179  0.3110 -0.6050
   79SLPC   H9X 7313   5.980   2.770   6.937 -0.4277 -1.7038  1.9016
   79SLPC   H9Y 7314   6.120   2.867   6.980  0.0610  1.2247  2.1893
   79SLPC  C310 7315   6.059   2.729   7.135 -0.1507 -0.8343 -0.4257
   79SLPC  H10X 7316   6.156   2.767   7.174 -0.5540 -0.7625  0.5313
   79SLPC  H10Y 7317   6.049   2.623   7.164 -0.2606 -0.2386  1.9241
   79SLPC  C311 7318   5.940   2.790   7.211  0.0097  0.0015  0.8835
   79SLPC  H11X 7319   5.845   2.756   7.164  0.0978  1.0294 -0.0722
   79SLPC  H11Y 7320   5.954   2.900   7.221 -2.1476  0.3613  0.3484
   79SLPC  C312 7321   5.926   2.744   7.360 -0.1153  0.0986  0.4365
   79SLPC  H12X 7322   6.023   2.752   7.414 -1.4532  1.0420  2.8487
   79SLPC  H12Y 7323   5.898   2.637   7.373  1.9473 -0.4927  0.3720
   79SLPC  C313 7324   5.828   2.827   7.437 -0.3289  0.0960  0.8335
   79SLPC  H13X 7325   5.729   2.794   7.398  0.2442 -0.7869  0.1077
   79SLPC  H13Y 7326   5.840   2.936   7.418  0.1245  0.2160  1.7529
   79SLPC  C314 7327   5.840   2.800   7.590 -0.2630 -0.1968 -0.0599
   79SLPC  H14X 7328   5.946   2.822   7.613 -0.3638  2.1566 -1.5125
   79SLPC  H14Y 7329   5.825   2.694   7.621  3.9215 -1.6812 -2.3265
   79SLPC  C315 7330   5.744   2.893   7.669 -0.3954  0.6152  0.0327
   79SLPC  H15X 7331   5.638   2.866   7.649  0.5312 -2.4633 -1.2182
   79SLPC  H15Y 7332   5.759   2.999   7.637  1.4937  0.2223 -0.5323
   79SLPC  C316 7333   5.766   2.877   7.820 -0.5338  0.2342  0.2244
   79SLPC  H16X 7334   5.871   2.908   7.837 -1.2488  2.6039  0.7077
   79SLPC  H16Y 7335   5.765   2.772   7.854  0.4296  0.2184  0.2161
   79SLPC  C317 7336   5.672   2.968   7.910 -0.2489  0.0841 -0.5954
   79SLPC  H17X 7337   5.565   2.946   7.895 -0.5795  0.5228  0.9083
   79SLPC  H17Y 7338   5.681   3.074   7.878  0.3644 -0.0440 -0.8755
   79SLPC  C318 7339   5.712   2.947   8.060 -0.1637 -0.2259 -0.0255
   79SLPC  H18X 7340   5.626   2.986   8.118 -0.0110  0.4843 -0.2676
   79SLPC  H18Y 7341   5.799   3.013   8.078  1.1009 -1.9693  0.4854
   79SLPC  H18Z 7342   5.732   2.842   8.090  0.6802 -0.0851 -0.0762
   80SLPC     N 7343   0.713   6.639   5.927  0.1934 -0.1190  0.0943
   80SLPC   C13 7344   0.687   6.783   5.933  0.0722 -0.3675  0.5107
   80SLPC  H13A 7345   0.694   6.824   5.833 -1.0983  1.2313  1.0376
   80SLPC  H13B 7346   0.587   6.798   5.971 -0.1898 -0.8663  0.0424
   80SLPC  H13C 7347   0.760   6.835   5.992 -1.1222  1.3158  0.5942
   80SLPC   C14 7348   0.825   6.592   5.844 -0.7149 -0.5352 -0.1046
   80SLPC  H14A 7349   0.792   6.612   5.743  0.6756  2.3212 -0.0872
   80SLPC  H14B 7350   0.915   6.646   5.872  0.6394 -0.6305 -3.6909
   80SLPC  H14C 7351   0.854   6.488   5.845  2.4699  0.2423  0.3988
   80SLPC   C15 7352   0.595   6.564   5.863  0.6322 -0.9101  0.2406
   80SLPC  H15A 7353   0.588   6.574   5.756 -0.1832  0.9541  0.4243
   80SLPC  H15B 7354   0.620   6.461   5.881  2.5594 -0.1584  2.4332
   80SLPC  H15C 7355   0.497   6.579   5.905  1.0849 -1.7022  1.6602
   80SLPC   C12 7356   0.726   6.586   6.068  0.3427 -0.0706  0.4342
   80SLPC  H12A 7357   0.744   6.480   6.058 -0.0031  0.0853 -3.1818
   80SLPC  H12B 7358   0.627   6.588   6.110  0.6067  2.4249  1.0804
   80SLPC   C11 7359   0.831   6.648   6.157  0.5617 -0.8360  0.1597
   80SLPC  H11A 7360   0.926   6.668   6.104  0.8318 -0.7290  0.6766
   80SLPC  H11B 7361   0.858   6.574   6.235  2.3125 -0.5362 -0.1293
   80SLPC     P 7362   0.660   6.772   6.307  0.0094  0.1537 -0.0211
   80SLPC   O13 7363   0.589   6.900   6.320 -0.2535  0.2289 -0.4516
   80SLPC   O14 7364   0.572   6.654   6.287  0.6975 -0.3650 -0.3908
   80SLPC   O12 7365   0.770   6.772   6.205  0.0752  0.5714 -0.1023
   80SLPC   O11 7366   0.716   6.743   6.449  0.5137 -1.0695 -0.5027
   80SLPC    C1 7367   0.857   6.754   6.476 -0.3067  0.0765  0.2498
   80SLPC    HA 7368   0.889   6.649   6.488  1.0556  0.0155 -2.8573
   80SLPC    HB 7369   0.920   6.786   6.390 -1.2520 -1.0505 -0.8999
   80SLPC    C2 7370   0.887   6.840   6.597  0.6219  0.2385 -0.0508
   80SLPC    HS 7371   0.998   6.843   6.606  0.9962  0.2461 -3.3201
   80SLPC   O21 7372   0.824   6.793   6.712  0.6881 -0.0894 -0.4382
   80SLPC   C21 7373   0.882   6.695   6.776  0.0771  0.3796 -0.3517
   80SLPC   O22 7374   0.989   6.644   6.744  0.1644  0.6676 -0.2371
   80SLPC   C22 7375   0.806   6.664   6.908 -0.2167  0.1856 -0.2021
   80SLPC   H2R 7376   0.818   6.749   6.978  1.1718  0.1487 -0.3743
   80SLPC   H2S 7377   0.699   6.660   6.877 -0.3476 -0.5799  0.3389
   80SLPC    C3 7378   0.846   6.986   6.574 -0.4826  0.5038 -0.1353
   80SLPC    HX 7379   0.745   6.979   6.529 -1.4063  0.8522  1.8162
   80SLPC    HY 7380   0.914   7.031   6.498  0.7444 -2.0065 -0.6111
   80SLPC   O31 7381   0.861   7.060   6.691  0.2428  0.1832  0.4441
   80SLPC   C31 7382   0.772   7.165   6.699 -0.2165 -0.4381  0.1189
   80SLPC   O32 7383   0.716   7.213   6.595  0.4617 -0.9664 -0.8325
   80SLPC   C32 7384   0.748   7.214   6.841 -0.2824 -1.5121 -0.4814
   80SLPC   H2X 7385   0.843   7.205   6.897 -0.9520  1.5110  1.3470
   80SLPC   H2Y 7386   0.661   7.156   6.878 -2.7629  1.0894 -1.8226
   80SLPC   C23 7387   0.835   6.529   6.974 -0.6238  0.4519  0.4722
   80SLPC   H3R 7388   0.945   6.514   6.968 -0.7059 -1.2078  2.1189
   80SLPC   H3S 7389   0.777   6.450   6.921 -1.9239  1.2532  0.6644
   80SLPC   C24 7390   0.797   6.523   7.122 -0.6047  0.7477 -0.0702
   80SLPC   H4R 7391   0.702   6.466   7.120 -0.1395 -0.0258 -0.7731
   80SLPC   H4S 7392   0.766   6.624   7.158 -1.0438  0.1661  1.2252
   80SLPC   C25 7393   0.890   6.438   7.206  0.2220 -0.2958 -0.3613
   80SLPC   H5R 7394   0.982   6.496   7.228  0.0278 -1.1135  3.1351
   80SLPC   H5S 7395   0.919   6.349   7.147 -0.2969 -0.6472 -0.0928
   80SLPC   C26 7396   0.831   6.412   7.344 -0.1143 -0.2594 -0.7864
   80SLPC   H6R 7397   0.725   6.443   7.354 -0.4779 -1.2498 -1.3458
   80SLPC   H6S 7398   0.890   6.457   7.426  1.3591 -0.0877 -1.8994
   80SLPC   C27 7399   0.830   6.258   7.376  0.1518 -0.3613 -1.0530
   80SLPC   H7R 7400   0.936   6.228   7.391  0.9294  2.7053  0.3363
   80SLPC   H7S 7401   0.784   6.198   7.295 -0.0312 -0.7591 -0.6619
   80SLPC   C28 7402   0.745   6.232   7.501 -0.5627 -0.2557 -0.9760
   80SLPC   H8R 7403   0.737   6.124   7.523  0.3722 -0.6949 -2.6029
   80SLPC   H8S 7404   0.642   6.271   7.482  0.3966  2.6360 -0.7612
   80SLPC   C29 7405   0.812   6.296   7.628  0.3843 -0.0430 -0.2433
   80SLPC   H9R 7406   0.904   6.246   7.662 -0.8337 -2.3752 -0.2063
   80SLPC  C210 7407   0.759   6.394   7.699  0.9280  0.7240  0.4033
   80SLPC  H10R 7408   0.817   6.438   7.781  1.6226  2.2789 -0.8677
   80SLPC  C211 7409   0.633   6.470   7.669 -0.0296  0.3336  0.1493
   80SLPC  H11R 7410   0.556   6.432   7.740  1.8067 -1.2300  1.3876
   80SLPC  H11S 7411   0.605   6.468   7.562  0.4720 -1.3159  0.0222
   80SLPC  C212 7412   0.653   6.618   7.712 -0.3360  0.0451 -0.0522
   80SLPC  H12R 7413   0.713   6.671   7.637 -0.3001 -1.0023 -0.7756
   80SLPC  C213 7414   0.586   6.694   7.800  0.4850  0.2543  0.2616
   80SLPC  H13R 7415   0.604   6.801   7.820 -3.0586  0.8411  0.9712
   80SLPC  C214 7416   0.477   6.638   7.892  0.1125 -0.6520 -0.2630
   80SLPC  H14R 7417   0.497   6.538   7.936  0.3751  0.2570  1.8486
   80SLPC  H14S 7418   0.381   6.640   7.836 -0.4080 -0.8513  0.6022
   80SLPC  C215 7419   0.474   6.740   8.014  0.0550  1.1377  0.8736
   80SLPC  H15R 7420   0.430   6.834   7.975 -0.1151  1.0806  0.9294
   80SLPC  H15S 7421   0.572   6.755   8.065  0.2636  0.8090  0.5771
   80SLPC  C216 7422   0.386   6.675   8.125  0.5940  0.5095  0.2511
   80SLPC  H16R 7423   0.435   6.589   8.176  0.4737  0.6818  0.6641
   80SLPC  H16S 7424   0.295   6.635   8.075  1.0844  1.1992 -1.2366
   80SLPC  C217 7425   0.346   6.764   8.243  0.0628 -0.4916  0.1427
   80SLPC  H17R 7426   0.437   6.769   8.306 -1.4254  1.6087  2.3381
   80SLPC  H17S 7427   0.265   6.721   8.306 -1.0752 -0.9389 -1.5413
   80SLPC  C218 7428   0.319   6.912   8.207  0.3427 -0.3423  0.0336
   80SLPC  H18R 7429   0.310   6.963   8.305  0.0965 -2.3606  1.1265
   80SLPC  H18S 7430   0.234   6.929   8.138  1.6297 -0.1759 -1.5784
   80SLPC  H18T 7431   0.411   6.950   8.158 -0.3410 -0.1045 -1.1019
   80SLPC   C33 7432   0.703   7.364   6.842  0.1425  0.0613 -0.2081
   80SLPC   H3X 7433   0.602   7.377   6.798  0.3932  1.3292 -0.4424
   80SLPC   H3Y 7434   0.769   7.435   6.788 -1.6808  2.1060  0.1624
   80SLPC   C34 7435   0.704   7.411   6.991  0.9466  0.3609  0.4208
   80SLPC   H4X 7436   0.810   7.400   7.022  1.0012 -0.2602  0.0483
   80SLPC   H4Y 7437   0.636   7.349   7.053 -1.7483  3.9960  1.4259
   80SLPC   C35 7438   0.645   7.559   7.007  0.8269 -0.0050  0.4741
   80SLPC   H5X 7439   0.541   7.551   6.969  0.4953 -1.0717  1.5638
   80SLPC   H5Y 7440   0.710   7.627   6.947 -1.1973  1.7553  0.1485
   80SLPC   C36 7441   0.645   7.611   7.152  0.1735  0.6099 -0.7861
   80SLPC   H6X 7442   0.561   7.684   7.149  0.3768  0.9002  0.1518
   80SLPC   H6Y 7443   0.745   7.657   7.167 -0.2908  1.0064  1.5420
   80SLPC   C37 7444   0.609   7.505   7.253  0.2202  0.0383  0.1909
   80SLPC   H7X 7445   0.687   7.427   7.255 -0.2014 -0.3762  2.0490
   80SLPC   H7Y 7446   0.514   7.453   7.226  0.1099  1.1914 -1.8821
   80SLPC   C38 7447   0.587   7.567   7.393  0.2947 -0.8656 -0.1594
   80SLPC   H8X 7448   0.508   7.645   7.393  2.0603  1.0212 -1.5508
   80SLPC   H8Y 7449   0.680   7.626   7.407 -1.2168  1.5821  0.0762
   80SLPC   C39 7450   0.564   7.471   7.503 -0.1115  0.0262 -0.1160
   80SLPC   H9X 7451   0.661   7.421   7.523 -0.3152 -0.2459  0.2182
   80SLPC   H9Y 7452   0.489   7.397   7.467  0.9580 -0.4035 -1.5554
   80SLPC  C310 7453   0.537   7.550   7.634  0.6591 -0.2124 -0.2840
   80SLPC  H10X 7454   0.456   7.623   7.613 -0.1369 -1.0407 -0.1614
   80SLPC  H10Y 7455   0.624   7.612   7.665  0.1630 -0.0290  0.7866
   80SLPC  C311 7456   0.484   7.469   7.752  0.0081  0.0464  0.3361
   80SLPC  H11X 7457   0.566   7.465   7.827  0.2283  0.0234  0.0959
   80SLPC  H11Y 7458   0.466   7.361   7.730  3.3916 -0.1847 -1.9294
   80SLPC  C312 7459   0.363   7.529   7.820  0.8786  0.1280 -0.2140
   80SLPC  H12X 7460   0.278   7.538   7.749 -0.1031 -0.8850  0.8163
   80SLPC  H12Y 7461   0.389   7.633   7.848  0.2247  0.3689 -0.4759
   80SLPC  C313 7462   0.316   7.452   7.943  0.7059 -0.0258  0.0686
   80SLPC  H13X 7463   0.301   7.346   7.913  4.4251 -0.8046  0.3833
   80SLPC  H13Y 7464   0.220   7.502   7.967  0.4049 -1.4513  2.0759
   80SLPC  C314 7465   0.415   7.468   8.059  0.1521  0.6897  0.8008
   80SLPC  H14X 7466   0.465   7.567   8.055  0.6754  0.3922 -0.7602
   80SLPC  H14Y 7467   0.488   7.384   8.054 -1.2802 -0.5354 -1.1299
   80SLPC  C315 7468   0.347   7.461   8.201  0.1573 -0.4517 -0.2018
   80SLPC  H15X 7469   0.267   7.384   8.194 -0.0544 -0.3040  0.4999
   80SLPC  H15Y 7470   0.288   7.552   8.223  2.1533  0.8939 -0.1192
   80SLPC  C316 7471   0.441   7.407   8.315  0.0618 -0.3724 -0.7094
   80SLPC  H16X 7472   0.372   7.402   8.402 -0.2164  0.6656 -0.8626
   80SLPC  H16Y 7473   0.517   7.485   8.333 -0.4277  0.3665 -1.7527
   80SLPC  C317 7474   0.513   7.276   8.293 -0.3472 -0.4363  0.1042
   80SLPC  H17X 7475   0.582   7.299   8.209  1.3717  0.8679  1.7739
   80SLPC  H17Y 7476   0.454   7.194   8.247 -1.2620  0.5999 -0.6187
   80SLPC  C318 7477   0.593   7.220   8.413  0.0506  0.2379 -0.4093
   80SLPC  H18X 7478   0.670   7.294   8.443  0.5873 -0.3138 -0.4223
   80SLPC  H18Y 7479   0.647   7.135   8.368  0.0554  1.4371 -2.8365
   80SLPC  H18Z 7480   0.528   7.190   8.498  3.4126 -1.0569  1.9219
   81SAPS     N 7481   2.113   2.834  11.050 -0.6257 -0.2328  0.1862
   81SAPS   HN1 7482   2.055   2.808  10.968 -0.4128 -2.6896  0.7305
   81SAPS   HN2 7483   2.052   2.828  11.134 -0.3974 -0.0445  0.3704
   81SAPS   HN3 7484   2.144   2.933  11.041  3.3185 -1.2910  0.1919
   81SAPS   C12 7485   2.238   2.751  11.055 -0.3286  0.2568  0.4376
   81SAPS  H12A 7486   2.290   2.775  10.964 -2.2093  0.6543 -0.5948
   81SAPS   C13 7487   2.336   2.785  11.165  0.3351  0.1944 -0.1666
   81SAPS  O13A 7488   2.329   2.876  11.255  0.5003  0.2865 -0.0644
   81SAPS  O13B 7489   2.441   2.713  11.162 -0.1348  0.7446  0.2117
   81SAPS   C11 7490   2.194   2.601  11.053 -0.5844 -0.0583 -0.5132
   81SAPS  H11A 7491   2.130   2.596  11.143  0.2501  1.7238  0.2277
   81SAPS  H11B 7492   2.286   2.543  11.079  0.0641  1.5409  0.9533
   81SAPS     P 7493   2.033   2.437  10.945  0.2129  0.1190 -0.1279
   81SAPS   O13 7494   2.100   2.338  11.037  0.2238 -0.5226 -0.6666
   81SAPS   O14 7495   1.895   2.477  10.979  0.2187 -0.2197 -0.5482
   81SAPS   O12 7496   2.126   2.565  10.932 -0.3976  0.6694 -0.6788
   81SAPS   O11 7497   2.044   2.372  10.807  0.7548 -0.3186  0.3761
   81SAPS    C1 7498   2.169   2.321  10.751  1.0000 -0.1812  0.0584
   81SAPS    HA 7499   2.259   2.363  10.801  0.7249  1.1174 -0.4872
   81SAPS    HB 7500   2.180   2.211  10.763  1.3567 -0.2792 -1.0624
   81SAPS    C2 7501   2.176   2.371  10.595  0.0775  0.5327  0.0970
   81SAPS    HS 7502   2.282   2.365  10.563 -0.0394 -1.9931  0.0017
   81SAPS   O21 7503   2.111   2.503  10.580 -0.5913  0.4635 -0.3097
   81SAPS   C21 7504   2.180   2.606  10.614  0.1804  0.1747 -0.7825
   81SAPS   O22 7505   2.295   2.610  10.657  0.4185  0.1030 -0.5479
   81SAPS   C22 7506   2.096   2.727  10.593  0.7695 -0.9205 -0.0147
   81SAPS   H2R 7507   1.988   2.700  10.583  1.0611 -1.7442 -1.0828
   81SAPS   H2S 7508   2.106   2.789  10.685  2.2934  0.0341 -0.7964
   81SAPS    C3 7509   2.099   2.257  10.509  0.8800 -0.6106 -0.2175
   81SAPS    HX 7510   1.998   2.247  10.554  0.4305 -1.4712 -1.3441
   81SAPS    HY 7511   2.154   2.162  10.529 -1.4182 -1.7411  1.1573
   81SAPS   O31 7512   2.096   2.289  10.369 -0.1285 -0.5090 -0.1707
   81SAPS   C31 7513   1.979   2.357  10.332 -0.4270  0.3121 -0.7120
   81SAPS   O32 7514   1.902   2.409  10.413  0.2740  0.0262  0.2184
   81SAPS   C32 7515   1.960   2.359  10.181  0.2249 -0.9713 -0.5447
   81SAPS   H2X 7516   1.849   2.354  10.178  0.0502  1.0518  0.7554
   81SAPS   H2Y 7517   1.981   2.266  10.124  1.3994  0.0769 -1.9130
   81SAPS   C23 7518   2.160   2.824  10.486  0.5396 -0.0260 -0.7410
   81SAPS   H3R 7519   2.269   2.805  10.491  0.1332 -2.2805  0.6198
   81SAPS   H3S 7520   2.141   2.928  10.523 -2.0954 -1.0064  0.9395
   81SAPS   C24 7521   2.109   2.813  10.337  0.0729 -0.0295 -0.6672
   81SAPS   H4R 7522   2.132   2.708  10.309  0.2325 -0.1677 -0.0196
   81SAPS   H4S 7523   2.178   2.875  10.275  3.0536 -2.0987  0.3334
   81SAPS   C25 7524   1.964   2.853  10.346 -0.7827  0.2103 -0.0984
   81SAPS   H5R 7525   1.908   2.822  10.435 -0.9298 -0.4447 -0.4113
   81SAPS   C26 7526   1.893   2.908  10.253 -0.4086  0.2721  0.2888
   81SAPS   H6R 7527   1.788   2.928  10.278 -0.9385 -1.4817 -0.4235
   81SAPS   C27 7528   1.945   2.949  10.116 -0.5191  0.1692 -0.0063
   81SAPS   H7R 7529   2.002   2.865  10.070 -2.1857 -0.2318 -1.4446
   81SAPS   H7S 7530   2.017   3.033  10.120  1.3792 -1.4233  0.9455
   81SAPS   C28 7531   1.829   2.986  10.025  0.1830 -0.7402  0.1456
   81SAPS   H8R 7532   1.780   3.083  10.036  0.4366 -0.7883  2.0188
   81SAPS   C29 7533   1.789   2.900   9.930  0.4904 -0.0753 -0.7867
   81SAPS   H9R 7534   1.702   2.919   9.865  0.2284 -0.7065 -0.6257
   81SAPS  C210 7535   1.852   2.761   9.905  0.2979 -0.0606  0.2569
   81SAPS  H10R 7536   1.875   2.708  10.000  0.4833  2.0782  1.4681
   81SAPS  H10S 7537   1.950   2.786   9.860  0.8381  2.3934  2.5257
   81SAPS  C211 7538   1.782   2.672   9.805  0.1378  0.0921  0.5914
   81SAPS  H11R 7539   1.690   2.629   9.847  0.1945  0.3374  0.9672
   81SAPS  C212 7540   1.806   2.647   9.675 -0.1973 -1.2358  0.0873
   81SAPS  H12R 7541   1.729   2.588   9.623 -0.4732 -2.0234  1.3500
   81SAPS  C213 7542   1.916   2.709   9.594 -0.3720 -0.2488 -0.1686
   81SAPS  H13R 7543   2.000   2.637   9.599 -1.7352 -1.8714  0.5107
   81SAPS  H13S 7544   1.958   2.794   9.651 -2.4874  1.5192 -1.1217
   81SAPS  C214 7545   1.875   2.744   9.452 -0.0499 -0.3087  0.5309
   81SAPS  H14R 7546   1.892   2.673   9.370  0.4599 -0.9186  1.1508
   81SAPS  C215 7547   1.833   2.864   9.411 -0.2358  0.2283 -0.2524
   81SAPS  H15R 7548   1.812   2.872   9.303  5.0465  1.6043 -1.4304
   81SAPS  C216 7549   1.807   2.993   9.482 -0.0269  0.3360 -0.2536
   81SAPS  H16R 7550   1.859   3.080   9.435 -0.7088  0.2421 -1.2010
   81SAPS  H16S 7551   1.846   2.985   9.586 -1.1286 -0.2114  0.1355
   81SAPS  C217 7552   1.660   3.027   9.475  0.8714 -0.0982 -0.2621
   81SAPS  H17R 7553   1.606   2.948   9.530 -0.2395  0.3197 -0.7168
   81SAPS  H17S 7554   1.624   3.023   9.370  0.1697  2.8508 -0.2182
   81SAPS  C218 7555   1.634   3.166   9.541 -0.1296  0.3066 -1.2225
   81SAPS  H18R 7556   1.525   3.173   9.556  0.0171 -1.1045  0.9382
   81SAPS  H18S 7557   1.664   3.258   9.487 -1.2467  2.3925  1.4646
   81SAPS  C219 7558   1.688   3.189   9.691 -0.0302 -0.1432 -0.1227
   81SAPS  H19R 7559   1.799   3.184   9.694  0.0187 -1.2499 -1.9950
   81SAPS  H19S 7560   1.667   3.100   9.753  0.0438  1.0191  1.6648
   81SAPS  C220 7561   1.629   3.308   9.764  0.5193 -0.4009  0.0524
   81SAPS  H20R 7562   1.630   3.396   9.696 -1.2975 -1.4332 -1.4044
   81SAPS  H20S 7563   1.665   3.324   9.868 -1.4543 -0.1711  0.7475
   81SAPS  H20T 7564   1.520   3.287   9.769  0.4627 -0.4828 -1.1151
   81SAPS   C33 7565   2.014   2.488  10.113 -0.1569 -0.0325  0.0886
   81SAPS   H3X 7566   1.982   2.581  10.164  0.1867  0.6601 -0.9266
   81SAPS   H3Y 7567   1.966   2.496  10.013  0.0481  1.0046  0.0658
   81SAPS   C34 7568   2.157   2.482  10.108 -1.4863  0.2850 -0.6531
   81SAPS   H4X 7569   2.181   2.373  10.103 -0.5082  0.4585 -0.0547
   81SAPS   H4Y 7570   2.208   2.510  10.203 -0.4933  0.4891 -1.2274
   81SAPS   C35 7571   2.222   2.568   9.996 -0.2965  0.0191  0.2150
   81SAPS   H5X 7572   2.328   2.584  10.024 -0.0777  2.4279 -1.6746
   81SAPS   H5Y 7573   2.172   2.667  10.008  2.0869  1.0213  3.0120
   81SAPS   C36 7574   2.214   2.507   9.858 -0.7205 -0.0630  0.7692
   81SAPS   H6X 7575   2.113   2.469   9.833  0.3222 -0.5815 -3.4306
   81SAPS   H6Y 7576   2.286   2.423   9.871  0.0308  0.7233  1.9215
   81SAPS   C37 7577   2.267   2.581   9.740  0.0742 -0.6562 -0.9554
   81SAPS   H7X 7578   2.366   2.627   9.759 -0.2473  0.9958 -2.9166
   81SAPS   H7Y 7579   2.196   2.663   9.715  0.9282  0.7506  0.9892
   81SAPS   C38 7580   2.282   2.487   9.626  0.1215 -0.1237 -0.3546
   81SAPS   H8X 7581   2.194   2.424   9.602  1.5419 -1.9850 -0.9147
   81SAPS   H8Y 7582   2.362   2.412   9.645 -0.5573 -0.8671 -0.4035
   81SAPS   C39 7583   2.319   2.559   9.499 -0.0936  0.1497 -0.0208
   81SAPS   H9X 7584   2.422   2.600   9.506  0.9755 -2.3070 -0.3160
   81SAPS   H9Y 7585   2.255   2.648   9.482 -1.4084 -0.2415  2.4481
   81SAPS  C310 7586   2.308   2.468   9.378  0.0245  0.4444 -0.4351
   81SAPS  H10X 7587   2.204   2.427   9.381  0.9520 -1.9950  1.0520
   81SAPS  H10Y 7588   2.375   2.379   9.373  0.2414  0.5901 -0.1150
   81SAPS  C311 7589   2.331   2.557   9.250 -0.1431 -1.1052  0.9560
   81SAPS  H11X 7590   2.431   2.599   9.277 -0.0921 -1.2769  1.0410
   81SAPS  H11Y 7591   2.266   2.646   9.240  0.3199 -0.8480  0.1697
   81SAPS  C312 7592   2.333   2.479   9.113  0.2028  0.4279 -0.3951
   81SAPS  H12X 7593   2.236   2.427   9.097  0.8102 -1.1133  0.7029
   81SAPS  H12Y 7594   2.407   2.396   9.116 -2.1896 -1.8054  0.9097
   81SAPS  C313 7595   2.365   2.573   8.998  0.4223 -0.2832  0.5341
   81SAPS  H13X 7596   2.470   2.607   9.012  0.5260 -1.1438  2.1182
   81SAPS  H13Y 7597   2.295   2.659   8.986 -1.7549 -2.2460 -2.0744
   81SAPS  C314 7598   2.368   2.505   8.859 -0.3238 -0.1918 -0.3561
   81SAPS  H14X 7599   2.268   2.491   8.813 -0.0409  0.4888 -1.1930
   81SAPS  H14Y 7600   2.405   2.401   8.870 -0.4589 -0.0766  1.6369
   81SAPS  C315 7601   2.465   2.578   8.761 -0.7309 -0.3922 -0.0599
   81SAPS  H15X 7602   2.568   2.557   8.797 -0.4968 -2.3127 -1.6712
   81SAPS  H15Y 7603   2.444   2.687   8.762  0.6021 -0.1250  0.3722
   81SAPS  C316 7604   2.450   2.516   8.620  0.1076  0.3441 -0.0256
   81SAPS  H16X 7605   2.349   2.521   8.575  0.9933  1.2049 -2.0242
   81SAPS  H16Y 7606   2.457   2.406   8.635  0.9208  0.3102 -0.5998
   81SAPS  C317 7607   2.560   2.554   8.522 -0.6854 -0.2269 -0.5257
   81SAPS  H17X 7608   2.645   2.507   8.576  0.4507  0.4066 -1.6981
   81SAPS  H17Y 7609   2.586   2.662   8.522  1.2414 -0.6203  1.5690
   81SAPS  C318 7610   2.538   2.505   8.380  0.1114  0.3502  0.1919
   81SAPS  H18X 7611   2.640   2.497   8.336 -0.1651 -2.9661 -0.0573
   81SAPS  H18Y 7612   2.482   2.576   8.316 -1.3886  0.6733  1.7746
   81SAPS  H18Z 7613   2.480   2.411   8.371  0.4537  0.3306 -2.2881
   82SAPS     N 7614   0.684   2.527  10.746  0.1575 -0.4925 -0.3322
   82SAPS   HN1 7615   0.739   2.568  10.667 -2.7975  1.0680 -1.7279
   82SAPS   HN2 7616   0.647   2.438  10.705 -2.2086  0.0231  0.5598
   82SAPS   HN3 7617   0.601   2.587  10.760 -0.4031 -1.6867  2.0237
   82SAPS   C12 7618   0.761   2.530  10.866 -0.0503  0.0261  0.8070
   82SAPS  H12A 7619   0.804   2.629  10.876 -2.9812  1.3842  1.3750
   82SAPS   C13 7620   0.666   2.511  10.995 -0.1832  0.3144  0.1068
   82SAPS  O13A 7621   0.548   2.465  10.981 -0.3502  0.6898  0.8943
   82SAPS  O13B 7622   0.721   2.529  11.108 -0.0767  0.3621 -0.1120
   82SAPS   C11 7623   0.875   2.428  10.881  0.8556 -0.3329 -0.0096
   82SAPS  H11A 7624   0.834   2.326  10.866  0.6402 -0.2653  0.1077
   82SAPS  H11B 7625   0.915   2.432  10.985 -0.7782 -1.9397  0.7312
   82SAPS     P 7626   1.110   2.364  10.804  0.1445  0.2060  0.1520
   82SAPS   O13 7627   1.173   2.400  10.929  0.0207  0.2954 -0.1772
   82SAPS   O14 7628   1.086   2.219  10.779 -0.4535 -0.1121  0.1506
   82SAPS   O12 7629   0.974   2.447  10.781 -0.1842  0.1337  0.0353
   82SAPS   O11 7630   1.194   2.408  10.688 -0.6744 -0.2818 -0.1946
   82SAPS    C1 7631   1.193   2.540  10.634 -0.1960  0.5089 -0.7393
   82SAPS    HA 7632   1.152   2.613  10.707 -0.0393 -0.4958  0.3728
   82SAPS    HB 7633   1.294   2.572  10.601  0.7255 -0.3727  1.0538
   82SAPS    C2 7634   1.089   2.539  10.514 -0.7096 -1.0754  0.2516
   82SAPS    HS 7635   1.002   2.496  10.569 -0.3153 -0.8073  1.1109
   82SAPS   O21 7636   1.139   2.457  10.418  0.1718  0.1546  0.6271
   82SAPS   C21 7637   1.042   2.384  10.366  0.0440  0.5889 -0.7372
   82SAPS   O22 7638   0.928   2.364  10.405  0.0942 -0.1215 -0.4069
   82SAPS   C22 7639   1.092   2.306  10.248 -0.1287 -0.4263  0.2013
   82SAPS   H2R 7640   1.172   2.234  10.279 -1.6773 -2.7727 -0.9673
   82SAPS   H2S 7641   1.003   2.251  10.211 -1.3215 -0.2612  2.6419
   82SAPS    C3 7642   1.042   2.684  10.465  0.2871  0.1215 -0.4524
   82SAPS    HX 7643   1.121   2.747  10.419  2.1086 -2.9543 -1.8716
   82SAPS    HY 7644   1.018   2.743  10.556  1.9577  0.4756 -0.1978
   82SAPS   O31 7645   0.937   2.678  10.367 -0.2972  0.7363 -0.1142
   82SAPS   C31 7646   0.819   2.652  10.413  0.1961  0.2392 -0.2903
   82SAPS   O32 7647   0.794   2.641  10.531  0.4037  0.2075  0.2524
   82SAPS   C32 7648   0.715   2.632  10.305  0.3405 -1.2755  0.1681
   82SAPS   H2X 7649   0.629   2.696  10.335 -0.1520 -1.9932  0.3135
   82SAPS   H2Y 7650   0.679   2.528  10.314 -0.2022 -1.1017  0.0469
   82SAPS   C23 7651   1.135   2.404  10.136  0.0784 -0.4348  0.1672
   82SAPS   H3R 7652   1.236   2.371  10.101 -0.4771 -1.1052 -0.8455
   82SAPS   H3S 7653   1.147   2.507  10.176 -0.9464  0.0649 -0.7612
   82SAPS   C24 7654   1.039   2.409  10.021 -0.2191 -0.3017  0.7670
   82SAPS   H4R 7655   0.937   2.418  10.063  0.2093  0.7140  1.6320
   82SAPS   H4S 7656   1.044   2.316   9.959  1.0784 -0.1941  0.6817
   82SAPS   C25 7657   1.077   2.532   9.936 -0.4552  0.2704 -0.0271
   82SAPS   H5R 7658   1.137   2.609   9.988  1.8539 -1.8257  0.6267
   82SAPS   C26 7659   1.029   2.561   9.816 -0.7763 -0.0187  0.0032
   82SAPS   H6R 7660   1.070   2.649   9.763 -0.8680  0.6536  1.0080
   82SAPS   C27 7661   0.940   2.460   9.742 -0.5416 -0.1203  0.5665
   82SAPS   H7R 7662   0.851   2.512   9.702 -1.1687 -2.1015 -0.7265
   82SAPS   H7S 7663   0.902   2.376   9.803 -0.9477 -0.4266 -0.1025
   82SAPS   C28 7664   1.029   2.406   9.629  0.3270  0.5452 -0.3356
   82SAPS   H8R 7665   1.123   2.356   9.658 -0.1608 -0.1738  0.0275
   82SAPS   C29 7666   1.002   2.411   9.499 -0.2089  0.0852  0.1198
   82SAPS   H9R 7667   1.074   2.370   9.426 -0.8418 -0.3486 -0.2722
   82SAPS  C210 7668   0.866   2.457   9.432 -0.4931 -0.2935 -0.2463
   82SAPS  H10R 7669   0.875   2.561   9.394 -2.9618 -0.0876 -0.4170
   82SAPS  H10S 7670   0.786   2.473   9.507  1.2045  1.8526  1.2722
   82SAPS  C211 7671   0.811   2.379   9.317 -0.4736  0.4075 -0.6154
   82SAPS  H11R 7672   0.719   2.324   9.344 -0.0078  0.9169  2.4101
   82SAPS  C212 7673   0.866   2.371   9.193  0.4896 -0.4140  0.5917
   82SAPS  H12R 7674   0.814   2.305   9.122 -0.5710  1.9434 -0.9458
   82SAPS  C213 7675   0.978   2.460   9.132 -0.1705 -0.6638  0.2499
   82SAPS  H13R 7676   1.029   2.536   9.196 -2.0550  1.7158 -0.8925
   82SAPS  H13S 7677   0.933   2.514   9.046  0.3433  0.0285  0.4065
   82SAPS  C214 7678   1.080   2.377   9.070 -0.1818  0.0561 -0.6663
   82SAPS  H14R 7679   1.072   2.272   9.103  1.1123  0.4078  0.8750
   82SAPS  C215 7680   1.172   2.407   8.976 -0.1412 -0.6062 -0.1412
   82SAPS  H15R 7681   1.235   2.321   8.951 -0.5146 -0.9991  0.2524
   82SAPS  C216 7682   1.198   2.544   8.923  0.4054 -1.2823  0.2392
   82SAPS  H16R 7683   1.294   2.581   8.966 -0.8868  1.2391  1.1330
   82SAPS  H16S 7684   1.124   2.616   8.965  1.3674  0.8869 -1.5444
   82SAPS  C217 7685   1.203   2.554   8.769 -0.1348  0.5414  0.1524
   82SAPS  H17R 7686   1.111   2.503   8.733  0.8296 -1.6081  0.6125
   82SAPS  H17S 7687   1.278   2.485   8.725 -2.1155 -0.3024 -2.1804
   82SAPS  C218 7688   1.230   2.693   8.715  0.3881  0.0933  0.1334
   82SAPS  H18R 7689   1.335   2.719   8.741  0.2513 -1.2011  2.1860
   82SAPS  H18S 7690   1.144   2.753   8.752 -0.5189 -0.4228 -1.0495
   82SAPS  C219 7691   1.219   2.696   8.564 -0.1080 -0.8824 -0.1606
   82SAPS  H19R 7692   1.228   2.804   8.542 -0.9185 -0.0731  2.9797
   82SAPS  H19S 7693   1.121   2.656   8.530 -0.3319 -0.3013 -0.2186
   82SAPS  C220 7694   1.328   2.610   8.491  0.5733 -0.4967  0.1788
   82SAPS  H20R 7695   1.315   2.613   8.381  0.7187 -0.6700  0.1579
   82SAPS  H20S 7696   1.322   2.504   8.524  0.6423 -0.6698 -0.3529
   82SAPS  H20T 7697   1.426   2.648   8.525  0.2627  0.1008  0.4271
   82SAPS   C33 7698   0.767   2.667  10.159  0.2753  0.2368  0.0499
   82SAPS   H3X 7699   0.683   2.640  10.091  1.3687  1.6353 -1.9825
   82SAPS   H3Y 7700   0.851   2.603  10.125 -2.4355 -2.4412 -2.2504
   82SAPS   C34 7701   0.778   2.824  10.138 -0.7753  0.3699 -0.2001
   82SAPS   H4X 7702   0.887   2.845  10.138 -0.5179 -0.8370  0.7321
   82SAPS   H4Y 7703   0.730   2.871  10.227  0.7658  1.4993  0.0737
   82SAPS   C35 7704   0.705   2.873  10.011 -0.1576  0.2530 -0.9237
   82SAPS   H5X 7705   0.695   2.984  10.016 -3.5794  0.0589 -1.1686
   82SAPS   H5Y 7706   0.598   2.844  10.000 -0.6734  2.0789 -1.0888
   82SAPS   C36 7707   0.763   2.814   9.877 -0.9321 -0.0937 -0.4249
   82SAPS   H6X 7708   0.745   2.705   9.868 -1.8546 -0.1082  1.1858
   82SAPS   H6Y 7709   0.870   2.840   9.890 -1.1192  2.3790 -2.7936
   82SAPS   C37 7710   0.706   2.880   9.752  0.9778  0.7870  0.1612
   82SAPS   H7X 7711   0.721   2.990   9.758 -0.6475  1.0421  0.1861
   82SAPS   H7Y 7712   0.602   2.842   9.743  1.0084  0.7987 -0.2394
   82SAPS   C38 7713   0.772   2.820   9.629 -0.7503  0.0747 -0.7395
   82SAPS   H8X 7714   0.721   2.845   9.534  0.1900  1.9420 -0.7983
   82SAPS   H8Y 7715   0.778   2.709   9.628 -1.5694  0.0025  0.0677
   82SAPS   C39 7716   0.907   2.891   9.601 -0.2984  0.1299 -0.6607
   82SAPS   H9X 7717   0.987   2.870   9.675 -0.4470 -2.0834 -1.0506
   82SAPS   H9Y 7718   0.896   3.002   9.600 -1.0865  0.0991  1.2065
   82SAPS  C310 7719   0.978   2.852   9.462  0.7876 -0.5003 -0.2639
   82SAPS  H10X 7720   0.992   2.742   9.462 -2.4295 -1.0423  1.5707
   82SAPS  H10Y 7721   1.078   2.899   9.475 -0.0082  0.8247  1.6714
   82SAPS  C311 7722   0.896   2.904   9.340  0.7633  0.2321  0.3413
   82SAPS  H11X 7723   0.872   3.012   9.339  0.3500  0.2237 -2.7541
   82SAPS  H11Y 7724   0.794   2.861   9.331  0.8169  0.3452 -1.0465
   82SAPS  C312 7725   0.973   2.863   9.214  0.0168  0.3048 -0.2071
   82SAPS  H12X 7726   0.985   2.753   9.228  1.3460  0.3962 -0.5510
   82SAPS  H12Y 7727   1.078   2.896   9.221  0.4585 -0.6438 -1.8431
   82SAPS  C313 7728   0.916   2.907   9.084  1.3071  0.0180  0.2104
   82SAPS  H13X 7729   0.815   2.863   9.068  1.9960 -1.2357 -1.0002
   82SAPS  H13Y 7730   0.975   2.873   8.995 -0.0127  0.7909 -1.0005
   82SAPS  C314 7731   0.918   3.061   9.073  0.2086  0.7777  0.0363
   82SAPS  H14X 7732   1.022   3.098   9.079  0.6499  0.2371 -2.6734
   82SAPS  H14Y 7733   0.848   3.100   9.149 -1.8022 -2.1158 -0.1478
   82SAPS  C315 7734   0.868   3.103   8.933  0.4269  0.7715 -0.2301
   82SAPS  H15X 7735   0.835   3.209   8.938  0.9730  0.9197  0.4535
   82SAPS  H15Y 7736   0.788   3.044   8.885  0.5251  1.5168 -1.3342
   82SAPS  C316 7737   0.984   3.088   8.835  0.0006  0.2469 -0.0094
   82SAPS  H16X 7738   1.022   2.984   8.829 -0.4700  0.1231 -0.9186
   82SAPS  H16Y 7739   1.061   3.155   8.878  0.1263 -0.4273  0.8608
   82SAPS  C317 7740   0.951   3.141   8.696 -0.3054  0.4034  0.3297
   82SAPS  H17X 7741   0.949   3.252   8.687  2.2417  0.3078 -4.2682
   82SAPS  H17Y 7742   0.848   3.103   8.678 -0.9965  0.7005  3.1679
   82SAPS  C318 7743   1.053   3.084   8.596  0.4961 -0.2864  0.0347
   82SAPS  H18X 7744   1.158   3.112   8.618  0.2425  0.4224  0.3669
   82SAPS  H18Y 7745   1.024   3.124   8.496 -2.1204  0.3663  0.9793
   82SAPS  H18Z 7746   1.057   2.973   8.595 -2.7221 -0.4952  0.5963
   83SAPS     N 7747   2.583   2.977  11.265  0.1107  0.3381  0.1599
   83SAPS   HN1 7748   2.644   2.929  11.335 -1.6913 -0.2859  1.3502
   83SAPS   HN2 7749   2.524   3.047  11.314  0.3750 -0.6193  1.9404
   83SAPS   HN3 7750   2.524   2.898  11.232 -0.2331  1.2888 -1.6273
   83SAPS   C12 7751   2.654   3.032  11.144 -0.5074 -0.4645  0.2003
   83SAPS  H12A 7752   2.708   3.119  11.176 -0.3597 -0.2158 -0.6865
   83SAPS   C13 7753   2.752   2.930  11.068 -0.0938 -0.4945 -0.0972
   83SAPS  O13A 7754   2.766   2.815  11.123  0.0575 -0.6365  0.2926
   83SAPS  O13B 7755   2.821   2.975  10.973 -0.4068 -0.3152 -0.0152
   83SAPS   C11 7756   2.552   3.078  11.037 -0.2753  1.0203 -0.2300
   83SAPS  H11A 7757   2.506   2.983  11.003  0.7913 -0.7248  2.7585
   83SAPS  H11B 7758   2.603   3.122  10.949  0.4258 -1.5053 -1.1561
   83SAPS     P 7759   2.430   3.319  11.049  0.0721 -0.1986 -0.3585
   83SAPS   O13 7760   2.284   3.333  11.046  0.4912 -0.1737 -0.0596
   83SAPS   O14 7761   2.517   3.415  11.129  0.0841 -0.1860  0.4095
   83SAPS   O12 7762   2.453   3.169  11.089  0.0071 -0.0159 -0.0568
   83SAPS   O11 7763   2.473   3.328  10.901  0.2433  0.2889 -0.0064
   83SAPS    C1 7764   2.490   3.460  10.847  0.0394 -0.6354  0.1835
   83SAPS    HA 7765   2.530   3.534  10.920 -1.1176  0.6971 -0.4808
   83SAPS    HB 7766   2.571   3.453  10.772  0.4190 -0.6515  0.5929
   83SAPS    C2 7767   2.363   3.509  10.770 -0.5770 -0.1464 -0.2455
   83SAPS    HS 7768   2.274   3.516  10.836 -1.0028 -0.8685 -0.7168
   83SAPS   O21 7769   2.331   3.425  10.654 -0.0972  0.5318  0.0388
   83SAPS   C21 7770   2.205   3.414  10.617 -0.3580 -0.0530  0.1808
   83SAPS   O22 7771   2.112   3.463  10.675  0.6526  0.3177  0.1170
   83SAPS   C22 7772   2.191   3.322  10.496  0.6260 -0.0092 -0.9945
   83SAPS   H2R 7773   2.283   3.338  10.436 -0.5439  1.6941 -2.4429
   83SAPS   H2S 7774   2.181   3.215  10.527  0.4368 -0.4735 -2.5814
   83SAPS    C3 7775   2.381   3.651  10.715  0.2345  0.3247  0.5968
   83SAPS    HX 7776   2.384   3.720  10.802  1.3388 -0.0515  0.8780
   83SAPS    HY 7777   2.292   3.684  10.657  1.2885  1.1792 -0.5950
   83SAPS   O31 7778   2.510   3.662  10.649  0.2704 -0.1259 -0.3611
   83SAPS   C31 7779   2.493   3.647  10.509  0.2630 -0.3301  0.3569
   83SAPS   O32 7780   2.388   3.643  10.455 -0.0891 -0.4092  0.5496
   83SAPS   C32 7781   2.622   3.664  10.428  0.4327 -0.2208 -0.5947
   83SAPS   H2X 7782   2.692   3.579  10.445  1.4053  0.5353 -0.7017
   83SAPS   H2Y 7783   2.669   3.745  10.488 -0.2574 -1.7771  2.2867
   83SAPS   C23 7784   2.076   3.363  10.402 -0.0093 -0.3202 -0.3739
   83SAPS   H3R 7785   1.997   3.410  10.465  0.8916 -1.8781  2.0660
   83SAPS   H3S 7786   2.048   3.268  10.352  3.6093 -0.9499 -1.4864
   83SAPS   C24 7787   2.104   3.459  10.282 -0.8002  1.1647  0.3821
   83SAPS   H4R 7788   2.127   3.557  10.328  0.6829  0.8135  0.4320
   83SAPS   H4S 7789   2.012   3.474  10.221  1.5858  0.6706 -3.7701
   83SAPS   C25 7790   2.210   3.419  10.184 -0.3695 -0.2565  0.3342
   83SAPS   H5R 7791   2.305   3.451  10.229 -1.4497  1.8626  1.2518
   83SAPS   C26 7792   2.202   3.355  10.063 -0.4941  0.1659 -0.0468
   83SAPS   H6R 7793   2.283   3.328   9.993 -0.8569  0.5352 -0.6110
   83SAPS   C27 7794   2.079   3.298  10.000  0.3797  0.2716  0.1325
   83SAPS   H7R 7795   1.997   3.259  10.064  0.2949 -3.8618 -2.1315
   83SAPS   H7S 7796   2.112   3.204   9.950  1.2100 -0.5775  2.1565
   83SAPS   C28 7797   2.011   3.398   9.910  0.0041 -0.5532 -0.0002
   83SAPS   H8R 7798   1.935   3.465   9.953 -0.4257 -1.6528  1.0122
   83SAPS   C29 7799   2.039   3.421   9.777  0.6992 -0.3740 -0.8641
   83SAPS   H9R 7800   1.981   3.502   9.731  0.2450 -1.2346 -1.8076
   83SAPS  C210 7801   2.139   3.357   9.690 -0.0253  0.4037  0.1595
   83SAPS  H10R 7802   2.244   3.362   9.726 -0.5262  2.8070  1.4617
   83SAPS  H10S 7803   2.149   3.409   9.592 -0.2128 -0.9926 -0.6272
   83SAPS  C211 7804   2.109   3.206   9.657  0.1125 -0.0360 -0.2170
   83SAPS  H11R 7805   2.042   3.158   9.729  0.6075  0.4945  0.6070
   83SAPS  C212 7806   2.138   3.130   9.553  0.1045  0.1626 -0.1295
   83SAPS  H12R 7807   2.094   3.029   9.558  0.2602  0.1025  4.8345
   83SAPS  C213 7808   2.221   3.166   9.432  0.5693  0.8326 -0.8895
   83SAPS  H13R 7809   2.258   3.270   9.441 -1.6352  1.5642  0.5379
   83SAPS  H13S 7810   2.153   3.178   9.345 -0.5912  0.9629  0.0155
   83SAPS  C214 7811   2.324   3.058   9.421  0.3635 -0.1377  0.3553
   83SAPS  H14R 7812   2.424   3.060   9.465  0.3105 -0.5817  0.5043
   83SAPS  C215 7813   2.303   2.938   9.362 -0.0198 -0.0887 -0.7091
   83SAPS  H15R 7814   2.390   2.871   9.358 -0.1259 -0.3132  0.3256
   83SAPS  C216 7815   2.169   2.892   9.306 -0.3845 -0.5871  0.6953
   83SAPS  H16R 7816   2.088   2.949   9.354  0.8291  1.1021  0.8272
   83SAPS  H16S 7817   2.159   2.783   9.325  1.9147 -1.0196 -0.1684
   83SAPS  C217 7818   2.168   2.900   9.151 -0.2912  0.2822 -0.6409
   83SAPS  H17R 7819   2.083   2.843   9.106  1.3866 -0.7861 -2.6206
   83SAPS  H17S 7820   2.254   2.849   9.102 -1.2957  0.6292 -2.9229
   83SAPS  C218 7821   2.167   3.042   9.098  0.2497 -0.7123  0.7285
   83SAPS  H18R 7822   2.255   3.109   9.107  0.3297 -0.9675  1.9842
   83SAPS  H18S 7823   2.081   3.090   9.149 -1.2370 -2.4335 -0.0200
   83SAPS  C219 7824   2.125   3.040   8.945  0.6576 -0.3779  0.8687
   83SAPS  H19R 7825   2.118   3.148   8.917 -0.8288 -0.8556 -0.7538
   83SAPS  H19S 7826   2.022   3.000   8.941  0.3970  0.3457 -2.4007
   83SAPS  C220 7827   2.219   2.964   8.856  0.2879 -0.2367  0.8005
   83SAPS  H20R 7828   2.216   2.859   8.894 -0.5754 -0.0156  1.3662
   83SAPS  H20S 7829   2.328   2.987   8.859  0.4524  0.2010 -3.2411
   83SAPS  H20T 7830   2.175   2.948   8.756  0.3659 -3.3682  1.1547
   83SAPS   C33 7831   2.611   3.698  10.281 -0.5435  0.0721  0.0067
   83SAPS   H3X 7832   2.702   3.752  10.248 -0.1777  1.1156  2.4925
   83SAPS   H3Y 7833   2.529   3.772  10.266 -0.9426 -0.3186  0.2026
   83SAPS   C34 7834   2.581   3.576  10.193 -0.3821  0.0199 -0.9134
   83SAPS   H4X 7835   2.494   3.513  10.221 -1.6291  1.7774 -0.6530
   83SAPS   H4Y 7836   2.670   3.511  10.202  1.7509  2.9386  0.9282
   83SAPS   C35 7837   2.575   3.611  10.046 -0.1909  0.1984  0.7221
   83SAPS   H5X 7838   2.673   3.655  10.017  0.5430 -1.3087  0.8350
   83SAPS   H5Y 7839   2.496   3.687  10.027  0.1304  0.1262 -1.1132
   83SAPS   C36 7840   2.556   3.500   9.950  0.0377 -0.2200  1.2001
   83SAPS   H6X 7841   2.462   3.441   9.961 -0.0983 -1.2978 -3.3742
   83SAPS   H6Y 7842   2.647   3.435   9.955 -1.8859 -3.0962  1.2492
   83SAPS   C37 7843   2.543   3.545   9.799 -0.2423 -0.4183  0.1902
   83SAPS   H7X 7844   2.619   3.623   9.778 -0.3427 -0.4225 -0.1985
   83SAPS   H7Y 7845   2.458   3.610   9.771 -1.4735 -1.0378  2.2607
   83SAPS   C38 7846   2.549   3.430   9.702 -0.6202  0.2810  0.6242
   83SAPS   H8X 7847   2.449   3.380   9.701 -2.3200  3.3974 -0.0744
   83SAPS   H8Y 7848   2.631   3.369   9.745  1.1272  2.9512  1.3075
   83SAPS   C39 7849   2.573   3.471   9.552 -0.3637  0.0240  0.4739
   83SAPS   H9X 7850   2.681   3.488   9.531 -0.2625 -1.4590 -0.3528
   83SAPS   H9Y 7851   2.524   3.570   9.538 -0.0212  0.4976  2.3801
   83SAPS  C310 7852   2.534   3.361   9.444  0.2968  0.0700 -0.3419
   83SAPS  H10X 7853   2.449   3.304   9.487  0.4882 -0.3894 -0.5637
   83SAPS  H10Y 7854   2.616   3.287   9.431 -1.1577 -1.2805 -2.5332
   83SAPS  C311 7855   2.498   3.419   9.306 -0.3030 -0.1135 -0.2075
   83SAPS  H11X 7856   2.563   3.504   9.275  1.0102 -1.2551 -0.7342
   83SAPS  H11Y 7857   2.397   3.463   9.316 -0.4444 -1.0392  6.4092
   83SAPS  C312 7858   2.498   3.319   9.184  0.1964  0.1637 -0.1094
   83SAPS  H12X 7859   2.422   3.239   9.199 -0.9743  0.7364 -2.3850
   83SAPS  H12Y 7860   2.591   3.258   9.185  1.0287  1.4008 -0.4743
   83SAPS  C313 7861   2.498   3.388   9.044  0.1132 -0.0054  0.1267
   83SAPS  H13X 7862   2.589   3.447   9.021  0.0633  0.8819  2.0590
   83SAPS  H13Y 7863   2.423   3.469   9.053  0.5534  0.3820  0.3575
   83SAPS  C314 7864   2.468   3.286   8.935  0.2686  0.0748  0.6927
   83SAPS  H14X 7865   2.385   3.221   8.970  1.4137 -3.6719 -2.7468
   83SAPS  H14Y 7866   2.557   3.227   8.907 -0.4639 -0.4389 -0.6605
   83SAPS  C315 7867   2.424   3.352   8.809 -0.2204  0.0634  0.1889
   83SAPS  H15X 7868   2.353   3.432   8.837  0.9407  1.5424 -0.9272
   83SAPS  H15Y 7869   2.376   3.273   8.747  1.1488  0.1164 -1.0000
   83SAPS  C316 7870   2.542   3.411   8.728 -0.7234 -0.1761  0.3567
   83SAPS  H16X 7871   2.595   3.488   8.789 -1.7044  0.6862  0.1581
   83SAPS  H16Y 7872   2.504   3.459   8.636 -1.6061 -1.4515  0.0291
   83SAPS  C317 7873   2.646   3.309   8.677 -0.3164  0.2573  0.3343
   83SAPS  H17X 7874   2.591   3.228   8.625  0.0779  0.5218 -0.5088
   83SAPS  H17Y 7875   2.705   3.276   8.765  1.4286 -0.3458 -1.0333
   83SAPS  C318 7876   2.740   3.373   8.578 -0.2859  0.3340  0.0757
   83SAPS  H18X 7877   2.741   3.473   8.627 -2.2026  0.7706 -0.6976
   83SAPS  H18Y 7878   2.700   3.396   8.477  0.3189  1.0187 -0.0208
   83SAPS  H18Z 7879   2.840   3.326   8.566 -1.5411 -2.4106 -0.4824
   84SAPS     N 7880   2.999   2.811  11.250  0.4059  0.5181 -0.0494
   84SAPS   HN1 7881   3.057   2.750  11.189 -0.5468 -2.5431  1.9076
   84SAPS   HN2 7882   2.993   2.764  11.342  0.3037 -0.2152 -0.4233
   84SAPS   HN3 7883   2.907   2.811  11.201  0.6847  1.2701 -0.5988
   84SAPS   C12 7884   3.042   2.945  11.261 -0.4108  0.4246  0.1708
   84SAPS  H12A 7885   3.038   2.983  11.160  0.1923 -3.0031 -1.2691
   84SAPS   C13 7886   2.953   3.040  11.348 -0.2840  0.1867  0.5976
   84SAPS  O13A 7887   2.857   2.983  11.410 -0.4467  0.6189  0.2807
   84SAPS  O13B 7888   2.979   3.162  11.357  0.0444 -0.0441  0.4853
   84SAPS   C11 7889   3.179   2.952  11.332 -0.4351  0.3293  0.6815
   84SAPS  H11A 7890   3.167   2.893  11.425 -0.0819 -1.6430 -0.4692
   84SAPS  H11B 7891   3.203   3.057  11.358 -0.1187  0.1793  0.9937
   84SAPS     P 7892   3.380   2.977  11.161 -0.1563 -0.1502  0.8263
   84SAPS   O13 7893   3.355   3.123  11.183  0.2770 -0.0735 -0.2029
   84SAPS   O14 7894   3.517   2.931  11.174  0.5195 -0.0983 -0.0965
   84SAPS   O12 7895   3.280   2.892  11.254 -0.0168 -0.2517  0.3903
   84SAPS   O11 7896   3.330   2.932  11.010  0.6343 -0.4407 -0.0232
   84SAPS    C1 7897   3.296   2.794  10.989  0.7209 -0.4187 -0.7969
   84SAPS    HA 7898   3.335   2.722  11.065 -1.0941 -1.6943 -1.0030
   84SAPS    HB 7899   3.185   2.787  10.999  0.8164  0.9597  2.6345
   84SAPS    C2 7900   3.344   2.745  10.853 -0.2293  0.0432  0.6312
   84SAPS    HS 7901   3.454   2.737  10.870 -0.4518 -0.4286  1.8887
   84SAPS   O21 7902   3.319   2.855  10.744 -0.1562  0.0453 -0.2978
   84SAPS   C21 7903   3.410   2.854  10.646  0.3648  0.0388 -0.1643
   84SAPS   O22 7904   3.506   2.776  10.649  0.3073 -0.1378  1.0166
   84SAPS   C22 7905   3.383   2.959  10.546  0.5206 -0.0590 -0.5416
   84SAPS   H2R 7906   3.286   2.949  10.493  0.3635 -1.8661  0.0251
   84SAPS   H2S 7907   3.389   3.058  10.596 -0.3958 -0.2047 -0.1251
   84SAPS    C3 7908   3.290   2.597  10.817  0.3280  0.0017  0.3582
   84SAPS    HX 7909   3.181   2.587  10.833  0.5532 -5.4194  0.5932
   84SAPS    HY 7910   3.327   2.538  10.904  2.9206  1.0712  0.0842
   84SAPS   O31 7911   3.333   2.547  10.686  0.5962  0.2356  0.2364
   84SAPS   C31 7912   3.429   2.455  10.690  0.9260  0.6307 -0.3932
   84SAPS   O32 7913   3.473   2.401  10.788  0.7155 -0.0297 -0.0679
   84SAPS   C32 7914   3.468   2.432  10.545  1.4139 -0.4834 -0.4425
   84SAPS   H2X 7915   3.398   2.495  10.486 -0.6873 -0.4303  1.9399
   84SAPS   H2Y 7916   3.449   2.323  10.533 -0.5722 -0.4713  1.8722
   84SAPS   C23 7917   3.499   2.955  10.442 -0.0227 -0.4521  1.0084
   84SAPS   H3R 7918   3.599   2.942  10.490  0.3506  1.5824  0.8767
   84SAPS   H3S 7919   3.507   3.057  10.399 -2.3107 -0.4404  0.5221
   84SAPS   C24 7920   3.469   2.869  10.322 -0.1168 -0.0138  0.8088
   84SAPS   H4R 7921   3.400   2.927  10.257  1.4168  3.2086  1.8478
   84SAPS   H4S 7922   3.424   2.771  10.347 -0.0054 -0.3502 -0.2769
   84SAPS   C25 7923   3.597   2.834  10.257 -0.6681 -0.7485 -0.2485
   84SAPS   H5R 7924   3.664   2.763  10.307  0.8970  0.5211 -0.4635
   84SAPS   C26 7925   3.642   2.884  10.145  0.0869  0.1892  0.0385
   84SAPS   H6R 7926   3.741   2.853  10.109  1.5266  0.9400  3.0208
   84SAPS   C27 7927   3.562   2.991  10.058 -0.3029 -0.3347 -0.6935
   84SAPS   H7R 7928   3.636   3.054  10.004  0.0455 -1.0098 -1.0130
   84SAPS   H7S 7929   3.499   3.057  10.122  0.7658  1.4935 -1.4414
   84SAPS   C28 7930   3.464   2.936   9.955 -0.4172 -0.5935 -0.5990
   84SAPS   H8R 7931   3.412   2.852  10.004  1.1984 -0.6029  1.1940
   84SAPS   C29 7932   3.440   2.975   9.828 -0.3970  0.1431  0.2859
   84SAPS   H9R 7933   3.363   2.921   9.770 -1.6586  0.8576  1.2264
   84SAPS  C210 7934   3.494   3.094   9.748 -0.1001 -0.0354 -0.2900
   84SAPS  H10R 7935   3.565   3.161   9.801  0.0117  1.0408 -1.7387
   84SAPS  H10S 7936   3.406   3.162   9.736 -1.3309 -0.9798  2.5420
   84SAPS  C211 7937   3.554   3.051   9.613  0.6918 -0.7712 -0.3641
   84SAPS  H11R 7938   3.493   3.072   9.524 -0.5821 -2.6061  0.0381
   84SAPS  C212 7939   3.676   2.998   9.595  0.1289  0.4435  0.0352
   84SAPS  H12R 7940   3.698   2.979   9.489 -1.5195  2.3432 -0.6971
   84SAPS  C213 7941   3.768   2.970   9.707 -1.1122  0.3597 -0.1308
   84SAPS  H13R 7942   3.762   3.051   9.783 -2.3257  2.2021 -2.0721
   84SAPS  H13S 7943   3.870   2.988   9.667 -1.3615  2.1690 -0.0197
   84SAPS  C214 7944   3.777   2.833   9.771 -0.1915 -0.1784 -0.2254
   84SAPS  H14R 7945   3.684   2.774   9.774 -0.3277  0.0744  1.6392
   84SAPS  C215 7946   3.888   2.783   9.824 -0.5145 -0.0362 -0.1016
   84SAPS  H15R 7947   3.890   2.679   9.861  0.8527  0.7209  2.1565
   84SAPS  C216 7948   4.029   2.841   9.836 -0.0196 -0.6574 -0.4560
   84SAPS  H16R 7949   4.034   2.928   9.767 -0.3503  1.9167  2.5332
   84SAPS  H16S 7950   4.107   2.768   9.806  2.7219  1.8070  0.2589
   84SAPS  C217 7951   4.064   2.891   9.978  0.0619 -0.3675  0.1427
   84SAPS  H17R 7952   4.173   2.910   9.990 -0.1599 -0.2893  2.4488
   84SAPS  H17S 7953   4.037   2.819  10.058 -0.9941  2.0079  2.0138
   84SAPS  C218 7954   4.004   3.030  10.003  0.9047  0.6807  0.9504
   84SAPS  H18R 7955   3.900   3.038   9.964  1.5278  0.1927 -0.9421
   84SAPS  H18S 7956   4.064   3.097   9.937 -1.1249  0.2628 -1.4854
   84SAPS  C219 7957   4.015   3.069  10.149  0.9384 -0.0143  0.0683
   84SAPS  H19R 7958   4.123   3.056  10.173  1.0425  0.3356 -0.1991
   84SAPS  H19S 7959   3.954   2.990  10.199 -0.8217  0.4524 -1.2518
   84SAPS  C220 7960   3.965   3.209  10.182 -0.2493 -0.1879  0.2930
   84SAPS  H20R 7961   3.967   3.229  10.291  0.8460 -0.3591  0.3125
   84SAPS  H20S 7962   3.862   3.220  10.141  0.7884  0.0817 -2.3982
   84SAPS  H20T 7963   4.028   3.283  10.128 -1.2022  0.9626  0.6933
   84SAPS   C33 7964   3.616   2.458  10.520 -0.3678 -0.0622  0.0723
   84SAPS   H3X 7965   3.673   2.414  10.605  0.0379 -0.5603 -0.4485
   84SAPS   H3Y 7966   3.649   2.564  10.513  1.4111 -0.5412  0.5658
   84SAPS   C34 7967   3.673   2.380  10.400 -0.3315 -0.4928 -0.1915
   84SAPS   H4X 7968   3.647   2.274  10.383  0.9074 -0.8116 -0.1640
   84SAPS   H4Y 7969   3.783   2.389  10.406 -0.4092 -0.5342  1.6307
   84SAPS   C35 7970   3.630   2.451  10.264 -0.4106  0.6659 -0.2809
   84SAPS   H5X 7971   3.649   2.560  10.269  0.6190  0.4382  2.0524
   84SAPS   H5Y 7972   3.520   2.434  10.254 -1.0017  3.9691 -0.8222
   84SAPS   C36 7973   3.707   2.386  10.143  0.7320 -0.5510 -0.1204
   84SAPS   H6X 7974   3.697   2.275  10.145  0.6405 -0.6154 -2.0492
   84SAPS   H6Y 7975   3.810   2.423  10.159  0.6330 -0.5783  0.6396
   84SAPS   C37 7976   3.653   2.424  10.005 -0.5282  0.1281 -0.4279
   84SAPS   H7X 7977   3.646   2.535   9.999  0.4578  0.3138  1.1340
   84SAPS   H7Y 7978   3.551   2.379  10.002 -0.1971 -0.5987 -1.1236
   84SAPS   C38 7979   3.738   2.378   9.886 -0.8827  0.1088 -0.4459
   84SAPS   H8X 7980   3.730   2.267   9.882 -1.8643  0.1960 -3.4041
   84SAPS   H8Y 7981   3.844   2.403   9.907 -1.0630  0.6020 -0.0986
   84SAPS   C39 7982   3.699   2.427   9.751 -0.5595 -0.3752  0.4673
   84SAPS   H9X 7983   3.717   2.536   9.757  0.5089 -0.2796 -2.6183
   84SAPS   H9Y 7984   3.591   2.410   9.730  0.1279 -2.5337 -1.8377
   84SAPS  C310 7985   3.795   2.366   9.638  0.0295 -0.0369 -0.0379
   84SAPS  H10X 7986   3.781   2.256   9.640  0.0294 -0.0244  0.7604
   84SAPS  H10Y 7987   3.896   2.386   9.679  0.6532 -0.9923 -1.0563
   84SAPS  C311 7988   3.763   2.419   9.493 -0.1255  0.2874  0.6230
   84SAPS  H11X 7989   3.780   2.529   9.488  2.6565  0.0343  2.5144
   84SAPS  H11Y 7990   3.659   2.387   9.470  0.0603 -0.3976  0.7263
   84SAPS  C312 7991   3.844   2.349   9.386 -0.0876 -0.4836 -0.1824
   84SAPS  H12X 7992   3.822   2.240   9.387 -0.6742 -0.4019 -1.6932
   84SAPS  H12Y 7993   3.951   2.355   9.417 -0.6485 -0.2187  1.7885
   84SAPS  C313 7994   3.830   2.407   9.247  0.4744 -0.0053  0.1986
   84SAPS  H13X 7995   3.850   2.516   9.248 -1.5123  0.3989  1.7371
   84SAPS  H13Y 7996   3.724   2.385   9.222  0.3422 -1.4074  1.8164
   84SAPS  C314 7997   3.918   2.329   9.144 -0.0876 -0.2208 -0.4685
   84SAPS  H14X 7998   3.897   2.221   9.158  0.4267 -0.7129 -2.9933
   84SAPS  H14Y 7999   4.027   2.344   9.159 -0.2876 -0.0287  0.8813
   84SAPS  C315 8000   3.888   2.344   8.991 -0.8670  0.2148 -1.0154
   84SAPS  H15X 8001   3.942   2.434   8.954 -1.6610  1.3282  0.4161
   84SAPS  H15Y 8002   3.784   2.383   8.987  0.1214  3.8065  1.9672
   84SAPS  C316 8003   3.910   2.224   8.903  0.4369  0.2625 -0.2083
   84SAPS  H16X 8004   3.869   2.237   8.801  0.3130 -0.6610 -0.2851
   84SAPS  H16Y 8005   3.856   2.132   8.932  0.7717  0.0391 -0.2872
   84SAPS  C317 8006   4.060   2.189   8.873  0.4031 -0.3366  0.3137
   84SAPS  H17X 8007   4.108   2.174   8.972 -1.3152  0.3209  1.2982
   84SAPS  H17Y 8008   4.121   2.271   8.830 -0.4119  0.7178  1.1267
   84SAPS  C318 8009   4.080   2.065   8.789  0.0293 -0.7999 -0.7591
   84SAPS  H18X 8010   4.022   1.983   8.835 -0.4668 -0.1751 -0.2494
   84SAPS  H18Y 8011   4.187   2.036   8.784  0.4597  0.7058 -0.9577
   84SAPS  H18Z 8012   4.029   2.086   8.693 -2.0937 -3.2450 -0.2819
   85SAPS     N 8013   0.667   4.608  11.168  0.1673  0.3033 -0.1170
   85SAPS   HN1 8014   0.715   4.526  11.210 -1.1180 -0.7253 -0.5709
   85SAPS   HN2 8015   0.729   4.627  11.087  0.8696 -3.1134 -0.5254
   85SAPS   HN3 8016   0.657   4.687  11.236  1.1880  2.2847 -2.1289
   85SAPS   C12 8017   0.525   4.568  11.129  0.2174  0.6695 -0.2461
   85SAPS  H12A 8018   0.521   4.472  11.079  0.6047 -0.3753  1.5989
   85SAPS   C13 8019   0.432   4.534  11.247 -0.0448 -0.4150 -0.3442
   85SAPS  O13A 8020   0.483   4.521  11.363 -0.3492 -0.4647 -0.5525
   85SAPS  O13B 8021   0.319   4.485  11.216 -0.1012 -0.4969  0.0838
   85SAPS   C11 8022   0.452   4.681  11.049  0.2285  0.0792  1.2454
   85SAPS  H11A 8023   0.444   4.783  11.094  3.3022  1.7779 -1.6107
   85SAPS  H11B 8024   0.347   4.649  11.029  0.6263 -1.5319  1.6019
   85SAPS     P 8025   0.604   4.816  10.893  0.2476 -0.1408 -0.1318
   85SAPS   O13 8026   0.559   4.949  10.948  0.1240  0.3954  0.8154
   85SAPS   O14 8027   0.732   4.764  10.954  0.4781 -0.3414 -0.1068
   85SAPS   O12 8028   0.499   4.702  10.917  0.0993  0.2881  0.4663
   85SAPS   O11 8029   0.616   4.831  10.736  0.8747 -0.7257 -0.0519
   85SAPS    C1 8030   0.509   4.821  10.648  0.3567 -0.2325  0.3306
   85SAPS    HA 8031   0.462   4.721  10.655  2.0718 -1.1829 -0.8879
   85SAPS    HB 8032   0.432   4.900  10.657  0.7729  0.4861 -1.8027
   85SAPS    C2 8033   0.560   4.856  10.501 -0.4569 -0.9008  0.5319
   85SAPS    HS 8034   0.470   4.854  10.436 -0.6025 -1.6109  0.7537
   85SAPS   O21 8035   0.662   4.765  10.453  0.0892  0.3311 -0.8541
   85SAPS   C21 8036   0.619   4.650  10.418  0.7194 -0.0004 -0.4859
   85SAPS   O22 8037   0.507   4.602  10.431  0.1462 -0.0277  0.2741
   85SAPS   C22 8038   0.727   4.580  10.343 -0.1255  0.3978 -0.2677
   85SAPS   H2R 8039   0.795   4.665  10.321 -0.3523  1.7195  3.3805
   85SAPS   H2S 8040   0.770   4.505  10.413 -0.7553  0.4906  0.2313
   85SAPS    C3 8041   0.615   4.994  10.481 -0.2130  0.1712 -0.2235
   85SAPS    HX 8042   0.700   5.014  10.549 -0.3156  0.1250 -0.0805
   85SAPS    HY 8043   0.543   5.068  10.522 -0.1090  0.7533 -1.0461
   85SAPS   O31 8044   0.657   5.022  10.346  0.2455  0.5104  0.0190
   85SAPS   C31 8045   0.572   5.068  10.262 -0.3844  0.5880 -0.3293
   85SAPS   O32 8046   0.460   5.106  10.288  0.5723 -0.2000 -0.0173
   85SAPS   C32 8047   0.632   5.044  10.125  0.0322  0.3206 -0.1098
   85SAPS   H2X 8048   0.716   4.971  10.127 -1.3513 -1.3347 -0.1691
   85SAPS   H2Y 8049   0.680   5.137  10.088 -0.8558 -0.3087 -3.0673
   85SAPS   C23 8050   0.685   4.514  10.208 -0.0133 -0.2710 -0.0990
   85SAPS   H3R 8051   0.587   4.461  10.213 -0.6052  0.7177 -0.8218
   85SAPS   H3S 8052   0.767   4.445  10.182  0.8652  0.9707 -0.6967
   85SAPS   C24 8053   0.693   4.622  10.102  0.7968  0.0710 -0.8529
   85SAPS   H4R 8054   0.792   4.671  10.103  0.7163  0.2664  1.1318
   85SAPS   H4S 8055   0.627   4.708  10.129  1.9821  0.3833  1.2631
   85SAPS   C25 8056   0.651   4.562   9.972 -0.5072 -0.2942 -0.0903
   85SAPS   H5R 8057   0.553   4.512   9.975 -0.5471 -0.2065  0.1567
   85SAPS   C26 8058   0.719   4.575   9.857 -0.2520  0.6702 -0.4745
   85SAPS   H6R 8059   0.681   4.520   9.769  0.0724  0.2664 -0.3691
   85SAPS   C27 8060   0.847   4.648   9.831  0.6047 -0.1447 -0.2704
   85SAPS   H7R 8061   0.929   4.573   9.828  0.4125 -0.3740  0.1744
   85SAPS   H7S 8062   0.870   4.713   9.919  0.2207 -1.0885  0.5501
   85SAPS   C28 8063   0.843   4.749   9.721  0.5095 -0.0003 -0.4695
   85SAPS   H8R 8064   0.842   4.854   9.755 -0.8710  0.5161 -2.0107
   85SAPS   C29 8065   0.851   4.710   9.589 -0.1027  0.1646  0.0504
   85SAPS   H9R 8066   0.836   4.786   9.511  0.1541 -1.2970 -1.4926
   85SAPS  C210 8067   0.852   4.572   9.530 -0.5903  0.1059  0.2454
   85SAPS  H10R 8068   0.749   4.534   9.517 -0.8616  0.3883  1.3921
   85SAPS  H10S 8069   0.902   4.509   9.607  0.5207 -0.1775 -0.6902
   85SAPS  C211 8070   0.934   4.561   9.409 -0.4718  0.0628  0.4011
   85SAPS  H11R 8071   1.042   4.548   9.425 -0.7947  0.1912  3.1405
   85SAPS  C212 8072   0.890   4.574   9.286  0.2280 -0.1066 -0.3707
   85SAPS  H12R 8073   0.961   4.569   9.202  2.4743  0.3920  1.4181
   85SAPS  C213 8074   0.743   4.608   9.249  0.1539 -0.1122 -0.3111
   85SAPS  H13R 8075   0.673   4.624   9.334  2.0978  3.0487  0.8798
   85SAPS  H13S 8076   0.695   4.520   9.202 -1.2336 -0.2296  1.2454
   85SAPS  C214 8077   0.730   4.743   9.174  0.2985 -0.7774  0.0660
   85SAPS  H14R 8078   0.715   4.830   9.240  3.4189 -0.6671  0.7763
   85SAPS  C215 8079   0.752   4.766   9.043 -0.3612 -0.0161  0.3966
   85SAPS  H15R 8080   0.748   4.866   8.997 -0.8949  0.2432  0.9934
   85SAPS  C216 8081   0.780   4.644   8.946 -0.0687  0.0616  0.1852
   85SAPS  H16R 8082   0.709   4.561   8.965 -0.0452 -0.1877 -0.7705
   85SAPS  H16S 8083   0.877   4.606   8.983 -0.5824  1.0905  2.8345
   85SAPS  C217 8084   0.770   4.682   8.799  0.2326  0.4723 -0.0151
   85SAPS  H17R 8085   0.676   4.739   8.784  1.9809  3.2518 -1.4186
   85SAPS  H17S 8086   0.765   4.592   8.735  2.5454  0.0752  0.2649
   85SAPS  C218 8087   0.894   4.758   8.751 -0.5401 -0.3806  0.0520
   85SAPS  H18R 8088   0.981   4.689   8.742  0.7286  1.3228 -1.4834
   85SAPS  H18S 8089   0.928   4.826   8.832  1.3493 -2.6699  1.3338
   85SAPS  C219 8090   0.877   4.830   8.623 -0.5631 -0.1792 -0.0281
   85SAPS  H19R 8091   0.793   4.899   8.648  0.0452  0.5573  0.0042
   85SAPS  H19S 8092   0.855   4.760   8.540  2.3139 -0.4840 -0.6164
   85SAPS  C220 8093   1.004   4.916   8.589 -0.3451 -0.4765 -0.2670
   85SAPS  H20R 8094   1.038   4.967   8.682  1.2587 -0.3462 -0.9104
   85SAPS  H20S 8095   0.990   4.979   8.499  2.0913 -2.6303 -2.3048
   85SAPS  H20T 8096   1.081   4.841   8.562  1.0293  1.2213 -1.2371
   85SAPS   C33 8097   0.525   5.004  10.020 -0.2576  0.7700  0.0386
   85SAPS   H3X 8098   0.439   5.070  10.045 -1.1263 -1.0242  2.1902
   85SAPS   H3Y 8099   0.497   4.902  10.055  0.6790  0.1983 -0.8465
   85SAPS   C34 8100   0.556   5.002   9.871  0.4701 -0.3685 -0.3753
   85SAPS   H4X 8101   0.650   4.946   9.848  0.1992  0.1245 -2.9493
   85SAPS   H4Y 8102   0.584   5.103   9.835 -1.1920  0.8826  1.6087
   85SAPS   C35 8103   0.435   4.941   9.802  0.2019 -0.0348 -0.0405
   85SAPS   H5X 8104   0.344   4.991   9.842  0.9030 -0.5381  2.3224
   85SAPS   H5Y 8105   0.439   4.833   9.827 -2.5754 -0.4895 -1.1430
   85SAPS   C36 8106   0.449   4.931   9.646 -0.0820  0.5887  0.3570
   85SAPS   H6X 8107   0.354   4.892   9.603  1.4150 -1.1921 -1.5300
   85SAPS   H6Y 8108   0.524   4.850   9.634 -1.1302 -0.4376  0.4403
   85SAPS   C37 8109   0.495   5.045   9.556  0.5860  0.3083  0.4572
   85SAPS   H7X 8110   0.603   5.060   9.580  0.9665 -0.5245 -0.6393
   85SAPS   H7Y 8111   0.437   5.139   9.569 -1.6717 -0.9182 -0.2167
   85SAPS   C38 8112   0.459   5.016   9.401 -0.9149  0.2681  0.1655
   85SAPS   H8X 8113   0.355   4.979   9.407 -0.5551 -0.9148 -0.5599
   85SAPS   H8Y 8114   0.527   4.937   9.362 -0.1690 -1.2934  4.1637
   85SAPS   C39 8115   0.467   5.140   9.314 -0.3187  0.4313 -0.2384
   85SAPS   H9X 8116   0.392   5.221   9.326  0.0248  0.5352  1.4160
   85SAPS   H9Y 8117   0.436   5.117   9.210  0.8050  2.1788 -1.0153
   85SAPS  C310 8118   0.607   5.203   9.286 -0.4168  0.2385  0.5077
   85SAPS  H10X 8119   0.690   5.138   9.320  0.2931  0.2649 -1.1220
   85SAPS  H10Y 8120   0.612   5.293   9.351 -0.8011 -0.1809  1.1368
   85SAPS  C311 8121   0.639   5.249   9.137 -0.0496  0.6804 -0.3514
   85SAPS  H11X 8122   0.743   5.288   9.139  0.1309  0.2840 -1.4333
   85SAPS  H11Y 8123   0.570   5.332   9.110 -2.7265  0.8051  5.3361
   85SAPS  C312 8124   0.621   5.138   9.032  0.0145 -0.2027 -0.3801
   85SAPS  H12X 8125   0.520   5.159   8.990  0.6246  1.9177 -0.8968
   85SAPS  H12Y 8126   0.621   5.038   9.080  2.6701 -0.0502  0.0500
   85SAPS  C313 8127   0.729   5.146   8.916 -0.3167  0.8294 -0.7840
   85SAPS  H13X 8128   0.724   5.067   8.838  2.1524  2.0616 -2.2994
   85SAPS  H13Y 8129   0.824   5.111   8.962 -1.0657 -0.8355 -0.4205
   85SAPS  C314 8130   0.749   5.284   8.851  0.1891 -0.4382  0.3951
   85SAPS  H14X 8131   0.844   5.275   8.794 -0.1523  0.0192 -0.2694
   85SAPS  H14Y 8132   0.776   5.348   8.937  0.8618 -1.8446  1.2592
   85SAPS  C315 8133   0.638   5.339   8.761  0.4030  0.1769 -0.4785
   85SAPS  H15X 8134   0.540   5.346   8.813  0.3612  3.9435 -0.7888
   85SAPS  H15Y 8135   0.628   5.259   8.686 -3.2620  1.9234 -2.1227
   85SAPS  C316 8136   0.669   5.476   8.690  0.2812  0.2015  0.0382
   85SAPS  H16X 8137   0.755   5.462   8.622  1.4960  2.8685  0.8987
   85SAPS  H16Y 8138   0.687   5.562   8.758 -0.3531  1.0417 -0.8483
   85SAPS  C317 8139   0.557   5.521   8.593  0.2545  0.2131  0.0344
   85SAPS  H17X 8140   0.604   5.604   8.536 -1.1030  0.1111 -1.3076
   85SAPS  H17Y 8141   0.471   5.556   8.655  1.3931  0.3540  1.5794
   85SAPS  C318 8142   0.502   5.423   8.490  0.0941  0.2386 -0.7855
   85SAPS  H18X 8143   0.447   5.341   8.541  1.0439  1.3185  2.1768
   85SAPS  H18Y 8144   0.588   5.380   8.433 -0.5649 -0.7334 -1.0623
   85SAPS  H18Z 8145   0.435   5.473   8.416 -1.1101 -1.3852 -0.8465
   86SAPS     N 8146   2.307   4.430  11.018  0.3110 -0.0823 -0.3932
   86SAPS   HN1 8147   2.358   4.349  10.978 -2.1656 -1.5783 -0.7344
   86SAPS   HN2 8148   2.244   4.387  11.089  0.0272 -0.7627 -1.0472
   86SAPS   HN3 8149   2.241   4.469  10.948 -1.3569 -1.3888  0.3749
   86SAPS   C12 8150   2.401   4.534  11.082  0.2255 -0.4019  0.4455
   86SAPS  H12A 8151   2.369   4.633  11.056  2.9144  0.9485  1.7860
   86SAPS   C13 8152   2.384   4.529  11.238 -0.0496  0.2070  0.0754
   86SAPS  O13A 8153   2.293   4.455  11.291  0.0616 -0.2852  0.5469
   86SAPS  O13B 8154   2.453   4.604  11.305 -0.3702 -0.7576 -0.0510
   86SAPS   C11 8155   2.548   4.512  11.034  0.3855 -0.5111 -0.1341
   86SAPS  H11A 8156   2.575   4.411  11.072  1.1742  0.3643  1.7773
   86SAPS  H11B 8157   2.610   4.587  11.087  0.4681 -1.4702  1.1936
   86SAPS     P 8158   2.585   4.647  10.812  0.3310  0.1611 -0.1173
   86SAPS   O13 8159   2.486   4.750  10.849 -0.1254  0.4812  0.2126
   86SAPS   O14 8160   2.724   4.692  10.809  0.5823 -0.0402  0.5074
   86SAPS   O12 8161   2.567   4.518  10.895  0.3390 -0.6137  0.2264
   86SAPS   O11 8162   2.549   4.599  10.665  0.0467  0.4104 -0.0397
   86SAPS    C1 8163   2.517   4.457  10.631  0.0085  0.0216 -0.4422
   86SAPS    HA 8164   2.611   4.399  10.637  0.1561  0.3994  1.2751
   86SAPS    HB 8165   2.451   4.404  10.703 -0.2359  0.8878 -0.0106
   86SAPS    C2 8166   2.464   4.446  10.480  0.0045 -0.3518 -0.7285
   86SAPS    HS 8167   2.433   4.342  10.458  2.9747 -1.7620  1.1037
   86SAPS   O21 8168   2.571   4.488  10.389 -1.0767  0.6551  0.2695
   86SAPS   C21 8169   2.583   4.414  10.271 -0.8933 -0.0581  0.3090
   86SAPS   O22 8170   2.529   4.307  10.245 -0.2483  0.5646  0.4068
   86SAPS   C22 8171   2.689   4.483  10.182  0.5330 -0.0427  0.2946
   86SAPS   H2R 8172   2.637   4.569  10.134  1.3245  0.7008  0.7268
   86SAPS   H2S 8173   2.770   4.522  10.248 -0.7772 -0.5050  2.2615
   86SAPS    C3 8174   2.341   4.539  10.462 -0.4776  0.1146  0.6990
   86SAPS    HX 8175   2.378   4.643  10.471  0.6898 -0.1340 -0.7715
   86SAPS    HY 8176   2.270   4.525  10.546 -0.7231  0.8852  0.6275
   86SAPS   O31 8177   2.270   4.507  10.339 -0.6503 -0.2090 -0.2525
   86SAPS   C31 8178   2.303   4.583  10.234 -0.2024  0.2981  0.0123
   86SAPS   O32 8179   2.379   4.682  10.241 -0.5394 -0.4657 -0.0742
   86SAPS   C32 8180   2.256   4.522  10.098 -0.3878  0.3198 -0.5260
   86SAPS   H2X 8181   2.151   4.553  10.084 -0.1031  1.7108  0.1954
   86SAPS   H2Y 8182   2.254   4.414  10.125  2.0660  0.0846 -1.0651
   86SAPS   C23 8183   2.736   4.385  10.073  0.6011 -0.8996  0.7598
   86SAPS   H3R 8184   2.641   4.357  10.022  1.0070  0.7364 -0.9906
   86SAPS   H3S 8185   2.783   4.296  10.119 -0.8915 -1.9976  0.2653
   86SAPS   C24 8186   2.824   4.456   9.970  1.4928 -0.3932 -0.0005
   86SAPS   H4R 8187   2.771   4.551   9.949  0.1722 -0.7758  1.4213
   86SAPS   H4S 8188   2.823   4.393   9.879  0.9500 -0.2556 -0.0934
   86SAPS   C25 8189   2.958   4.484  10.023 -0.1289 -0.8560  0.3138
   86SAPS   H5R 8190   2.957   4.545  10.115 -0.9422 -1.5624  0.7893
   86SAPS   C26 8191   3.070   4.431   9.981 -1.3795  0.1758  0.6367
   86SAPS   H6R 8192   3.165   4.462  10.027 -0.4210 -0.8196 -0.5971
   86SAPS   C27 8193   3.098   4.333   9.863 -0.5810  0.1657 -0.2433
   86SAPS   H7R 8194   3.034   4.243   9.877  1.2957 -1.4075 -1.1987
   86SAPS   H7S 8195   3.198   4.286   9.876 -0.0373  0.7490 -2.0006
   86SAPS   C28 8196   3.094   4.378   9.718  0.1789 -0.5058 -0.6231
   86SAPS   H8R 8197   2.994   4.411   9.684 -0.1591  0.6139  1.3262
   86SAPS   C29 8198   3.198   4.402   9.628  0.1374 -1.1604  0.1408
   86SAPS   H9R 8199   3.180   4.441   9.527 -0.9013  0.5682  0.9383
   86SAPS  C210 8200   3.340   4.376   9.667 -0.3302 -0.2018  0.1108
   86SAPS  H10R 8201   3.378   4.298   9.598  0.8171 -1.0880  1.6826
   86SAPS  H10S 8202   3.353   4.330   9.767  0.2437 -0.5558 -0.1209
   86SAPS  C211 8203   3.425   4.501   9.653 -0.3543 -0.1063 -0.0755
   86SAPS  H11R 8204   3.417   4.555   9.748 -2.0456 -1.7406  0.7853
   86SAPS  C212 8205   3.496   4.546   9.549 -0.5751 -0.4727 -0.4247
   86SAPS  H12R 8206   3.558   4.636   9.554  0.8714 -1.4754  0.4097
   86SAPS  C213 8207   3.497   4.478   9.419  0.4767  0.2534  0.1395
   86SAPS  H13R 8208   3.492   4.367   9.425 -0.8662  0.3144  0.4963
   86SAPS  H13S 8209   3.599   4.501   9.383  0.6284  0.2422  0.5547
   86SAPS  C214 8210   3.393   4.523   9.322 -0.0647 -0.0017  0.4800
   86SAPS  H14R 8211   3.317   4.595   9.358  0.7206  1.5240 -0.7731
   86SAPS  C215 8212   3.379   4.469   9.198  0.3555  1.2183 -0.2735
   86SAPS  H15R 8213   3.322   4.521   9.120  2.3682  3.0181 -0.6477
   86SAPS  C216 8214   3.464   4.349   9.144  0.1014 -0.0002 -0.1585
   86SAPS  H16R 8215   3.407   4.254   9.155  1.2295 -0.9140 -1.8161
   86SAPS  H16S 8216   3.555   4.328   9.203  0.3078 -1.2917 -0.9024
   86SAPS  C217 8217   3.490   4.375   8.993 -0.1272  0.6113 -0.6347
   86SAPS  H17R 8218   3.553   4.466   8.985 -1.0661  1.1680 -1.9953
   86SAPS  H17S 8219   3.393   4.401   8.944 -0.8021 -0.0277  0.3365
   86SAPS  C218 8220   3.558   4.256   8.923 -0.1659  0.1341  0.5349
   86SAPS  H18R 8221   3.578   4.297   8.821 -3.6196  1.6394  0.3011
   86SAPS  H18S 8222   3.493   4.167   8.908  0.5905  0.0899 -4.0680
   86SAPS  C219 8223   3.676   4.204   8.997 -0.5995  0.0051  0.0199
   86SAPS  H19R 8224   3.637   4.158   9.090  0.2911 -0.0013  0.3977
   86SAPS  H19S 8225   3.734   4.291   9.034 -1.0656  0.4919 -0.3716
   86SAPS  C220 8226   3.765   4.105   8.926  0.2915  0.1052  0.0768
   86SAPS  H20R 8227   3.835   4.053   8.995  1.6979  1.6871 -0.1114
   86SAPS  H20S 8228   3.820   4.168   8.853 -2.2938  1.9667 -0.4355
   86SAPS  H20T 8229   3.702   4.028   8.876 -2.3117  1.5033  0.9912
   86SAPS   C33 8230   2.361   4.553   9.992  0.2840 -0.2503  0.0326
   86SAPS   H3X 8231   2.462   4.511  10.011  0.4673  0.0600 -0.2365
   86SAPS   H3Y 8232   2.368   4.662   9.970 -1.6471  0.0582  0.7176
   86SAPS   C34 8233   2.312   4.496   9.860 -0.2508 -0.2270  0.2039
   86SAPS   H4X 8234   2.212   4.540   9.837 -0.4091  0.1771  1.5993
   86SAPS   H4Y 8235   2.296   4.386   9.866  2.7017 -0.9362 -2.3467
   86SAPS   C35 8236   2.420   4.514   9.753 -0.0474  0.1482  0.3703
   86SAPS   H5X 8237   2.507   4.465   9.803  1.2817  1.1301 -0.9133
   86SAPS   H5Y 8238   2.440   4.620   9.728  1.2285 -0.7928 -3.1312
   86SAPS   C36 8239   2.379   4.445   9.617 -0.2651 -0.6925 -0.6655
   86SAPS   H6X 8240   2.290   4.496   9.575 -0.0217 -0.9109 -1.4732
   86SAPS   H6Y 8241   2.336   4.346   9.643 -0.4888 -0.0433  1.5680
   86SAPS   C37 8242   2.486   4.422   9.513 -0.0628 -0.3675 -1.0696
   86SAPS   H7X 8243   2.538   4.518   9.490  0.1299 -0.6593 -1.8693
   86SAPS   H7Y 8244   2.429   4.389   9.424 -0.9855  0.2687 -0.7264
   86SAPS   C38 8245   2.583   4.318   9.549  0.1322 -0.0317  0.3527
   86SAPS   H8X 8246   2.544   4.216   9.566  1.4543 -1.2309 -2.8850
   86SAPS   H8Y 8247   2.645   4.357   9.632  1.0681  4.3148 -2.0949
   86SAPS   C39 8248   2.679   4.299   9.434 -0.0931  0.9094 -0.3033
   86SAPS   H9X 8249   2.685   4.406   9.405 -0.1059  2.1487  3.5736
   86SAPS   H9Y 8250   2.633   4.239   9.352 -1.3287  1.2014  0.1544
   86SAPS  C310 8251   2.822   4.256   9.475 -0.2622 -0.1932 -0.3362
   86SAPS  H10X 8252   2.821   4.148   9.503  0.6092 -0.4009 -1.0573
   86SAPS  H10Y 8253   2.837   4.314   9.568  1.3853  2.8193 -2.3284
   86SAPS  C311 8254   2.946   4.300   9.385  0.0731  0.5465  0.3850
   86SAPS  H11X 8255   3.041   4.260   9.427  0.4170  1.5303  0.5710
   86SAPS  H11Y 8256   2.962   4.410   9.392  0.5499  0.4266  1.4424
   86SAPS  C312 8257   2.954   4.239   9.250  0.1544 -0.5612  0.2394
   86SAPS  H12X 8258   2.857   4.253   9.198  0.0522 -1.7195  0.1013
   86SAPS  H12Y 8259   2.963   4.129   9.258  0.3880 -0.6461 -0.9778
   86SAPS  C313 8260   3.075   4.281   9.164 -0.4400  0.6359 -0.5146
   86SAPS  H13X 8261   3.167   4.285   9.227 -0.6750  0.9179 -0.1863
   86SAPS  H13Y 8262   3.062   4.380   9.116  1.6823  0.8718 -0.6753
   86SAPS  C314 8263   3.108   4.182   9.056  0.1780 -0.1841 -0.0570
   86SAPS  H14X 8264   3.105   4.081   9.102 -0.6887 -0.1441 -0.0015
   86SAPS  H14Y 8265   3.211   4.201   9.018  0.2287  1.8428  0.9787
   86SAPS  C315 8266   3.005   4.189   8.944  0.7923  0.2995  0.4466
   86SAPS  H15X 8267   3.029   4.267   8.868  0.3083 -0.2837 -0.3117
   86SAPS  H15Y 8268   2.907   4.209   8.991 -0.3630 -0.2813 -1.5822
   86SAPS  C316 8269   2.972   4.049   8.878 -0.6082 -0.5911 -0.5795
   86SAPS  H16X 8270   2.873   4.047   8.828 -0.7935 -3.0629 -0.2517
   86SAPS  H16Y 8271   2.971   3.994   8.974  1.1010 -1.1553 -0.8456
   86SAPS  C317 8272   3.080   3.998   8.784  0.3448  0.1750 -0.0532
   86SAPS  H17X 8273   3.172   3.972   8.841  2.5319  2.2175 -2.3803
   86SAPS  H17Y 8274   3.103   4.084   8.717  1.7631  1.0243  1.4496
   86SAPS  C318 8275   3.029   3.871   8.716  0.7883  0.2059 -0.3656
   86SAPS  H18X 8276   3.004   3.791   8.788  0.7638  1.8058  1.5039
   86SAPS  H18Y 8277   3.098   3.833   8.638 -2.0424 -0.5218 -2.6677
   86SAPS  H18Z 8278   2.934   3.884   8.661 -0.5931  0.8797  2.0247
   87SAPS     N 8279   1.877   6.156  11.004  0.6530 -0.1204 -0.1397
   87SAPS   HN1 8280   1.863   6.054  11.023  2.8903 -0.4596 -0.0962
   87SAPS   HN2 8281   1.837   6.215  11.079  3.1257  1.7437 -0.1722
   87SAPS   HN3 8282   1.833   6.175  10.911  0.1744 -5.7516 -1.4424
   87SAPS   C12 8283   2.028   6.176  11.001  0.1985  0.0606 -1.0777
   87SAPS  H12A 8284   2.043   6.282  10.985 -1.4381  0.3929 -0.6111
   87SAPS   C13 8285   2.098   6.152  11.140 -0.3435  0.6072  0.0513
   87SAPS  O13A 8286   2.026   6.137  11.240  0.0225 -0.4805  0.3866
   87SAPS  O13B 8287   2.222   6.163  11.148 -0.4793  0.4473 -0.5504
   87SAPS   C11 8288   2.086   6.082  10.887 -0.3686 -0.2766  0.3735
   87SAPS  H11A 8289   2.083   5.973  10.908  3.2844 -0.6730 -0.4570
   87SAPS  H11B 8290   2.194   6.104  10.897 -0.3290  1.3502 -2.5910
   87SAPS     P 8291   2.122   6.123  10.641  0.5161  0.0961  0.2016
   87SAPS   O13 8292   2.204   6.247  10.645  0.1054 -0.2195 -0.2757
   87SAPS   O14 8293   2.196   6.004  10.644  0.2171  0.7228  0.6045
   87SAPS   O12 8294   2.021   6.117  10.763  0.5058  0.1320  0.5021
   87SAPS   O11 8295   2.033   6.121  10.505  0.2430 -0.2191 -0.4311
   87SAPS    C1 8296   1.909   6.194  10.501  0.6098  0.7485 -1.0315
   87SAPS    HA 8297   1.829   6.132  10.454  1.4305 -1.1994  0.0382
   87SAPS    HB 8298   1.865   6.221  10.599 -3.5184  0.1399 -2.4712
   87SAPS    C2 8299   1.894   6.340  10.430  0.1147  0.1116  0.1614
   87SAPS    HS 8300   1.788   6.368  10.448 -0.0936  0.0734 -0.9295
   87SAPS   O21 8301   1.915   6.314  10.283 -0.1589  0.0777 -0.6761
   87SAPS   C21 8302   1.826   6.357  10.202  0.5697 -0.7481  0.3200
   87SAPS   O22 8303   1.733   6.434  10.228  0.1324 -0.0140  0.0889
   87SAPS   C22 8304   1.875   6.310  10.064 -0.7301  0.3387 -0.1209
   87SAPS   H2R 8305   1.973   6.356  10.040  1.1483 -2.9035  0.6976
   87SAPS   H2S 8306   1.898   6.201  10.065  0.1548  0.5239  0.0450
   87SAPS    C3 8307   1.984   6.448  10.492  0.1402 -0.2846  0.0210
   87SAPS    HX 8308   2.090   6.417  10.502  0.4451  0.7433  0.0469
   87SAPS    HY 8309   1.937   6.466  10.591  1.2652 -0.4248  0.5925
   87SAPS   O31 8310   1.975   6.575  10.419 -0.4022 -0.1323  0.0681
   87SAPS   C31 8311   2.056   6.576  10.313  0.0742 -0.4961  0.1338
   87SAPS   O32 8312   2.142   6.494  10.285  0.2128  0.6501  0.1403
   87SAPS   C32 8313   2.023   6.712  10.237  0.2351 -0.0054  0.0206
   87SAPS   H2X 8314   2.123   6.761  10.231 -0.9811  2.7060  0.6077
   87SAPS   H2Y 8315   1.947   6.771  10.293 -0.6457  0.4303 -1.5833
   87SAPS   C23 8316   1.781   6.358   9.962  0.2196 -0.3774  0.8646
   87SAPS   H3R 8317   1.750   6.464   9.976  0.0143  0.0858 -2.3011
   87SAPS   H3S 8318   1.689   6.296   9.972 -0.3990  0.4376  0.3677
   87SAPS   C24 8319   1.833   6.349   9.817 -0.4703 -0.0112  0.1120
   87SAPS   H4R 8320   1.749   6.362   9.746  0.7839  0.5274 -1.3353
   87SAPS   H4S 8321   1.864   6.242   9.809  1.0881  0.5342 -2.2110
   87SAPS   C25 8322   1.948   6.437   9.766 -0.3774 -0.0799  0.2303
   87SAPS   H5R 8323   2.002   6.505   9.833  5.6022 -1.9843 -2.0497
   87SAPS   C26 8324   1.986   6.437   9.637 -0.0015 -0.1111 -1.3537
   87SAPS   H6R 8325   2.061   6.512   9.609  2.8563 -2.5108 -0.5855
   87SAPS   C27 8326   1.932   6.364   9.521 -0.2046  0.1246 -1.1735
   87SAPS   H7R 8327   1.841   6.309   9.554 -1.0593  1.2854 -1.5051
   87SAPS   H7S 8328   2.005   6.289   9.485  1.8627  0.1773  2.4038
   87SAPS   C28 8329   1.896   6.463   9.417  0.3449 -0.0392  0.6948
   87SAPS   H8R 8330   1.819   6.537   9.442  0.0341  0.2543 -0.9656
   87SAPS   C29 8331   1.943   6.475   9.291  0.0052  0.7202 -0.0578
   87SAPS   H9R 8332   1.901   6.550   9.221 -1.6802 -1.1631 -1.1680
   87SAPS  C210 8333   2.049   6.393   9.217 -0.2381 -0.5371  0.0780
   87SAPS  H10R 8334   2.025   6.289   9.247 -2.8532  0.5518  2.1596
   87SAPS  H10S 8335   2.143   6.437   9.256 -1.4249  1.5235  0.7460
   87SAPS  C211 8336   2.020   6.392   9.066 -0.6502 -0.0986  0.1698
   87SAPS  H11R 8337   1.913   6.398   9.042 -0.5255  2.2414 -0.0275
   87SAPS  C212 8338   2.106   6.384   8.967 -0.7284  0.2559 -0.3198
   87SAPS  H12R 8339   2.062   6.388   8.866 -2.3125 -0.1771  0.3341
   87SAPS  C213 8340   2.255   6.394   8.969 -0.1764 -0.5705 -0.0756
   87SAPS  H13R 8341   2.298   6.383   9.071  2.7893  1.1829 -1.0152
   87SAPS  H13S 8342   2.270   6.501   8.942  0.3541 -0.6005  0.0964
   87SAPS  C214 8343   2.339   6.315   8.868  0.0694 -0.7300  0.1161
   87SAPS  H14R 8344   2.302   6.297   8.766 -1.3913  0.3496  0.4273
   87SAPS  C215 8345   2.455   6.249   8.901  0.1173  0.1378 -0.1098
   87SAPS  H15R 8346   2.505   6.203   8.814 -2.6426 -0.2146 -1.6540
   87SAPS  C216 8347   2.524   6.233   9.042  0.0428  0.2627 -0.5857
   87SAPS  H16R 8348   2.574   6.135   9.051  0.4274  0.2834 -2.2163
   87SAPS  H16S 8349   2.454   6.246   9.127  2.1259  2.6258  0.9243
   87SAPS  C217 8350   2.615   6.359   9.053  0.1344  0.3211 -0.5131
   87SAPS  H17R 8351   2.637   6.370   9.162  0.3031 -1.1953 -0.3637
   87SAPS  H17S 8352   2.554   6.448   9.028  1.6755  0.7275 -3.2020
   87SAPS  C218 8353   2.746   6.365   8.969 -0.3004 -0.0540 -0.5647
   87SAPS  H18R 8354   2.735   6.331   8.864  4.7637 -2.4772 -0.6137
   87SAPS  H18S 8355   2.801   6.282   9.019 -0.8792 -1.0497 -1.5287
   87SAPS  C219 8356   2.837   6.484   8.986 -0.2299 -0.5331  0.3599
   87SAPS  H19R 8357   2.782   6.578   8.964  1.1758  0.3873  0.6389
   87SAPS  H19S 8358   2.926   6.486   8.920 -0.1793  0.3472  0.4508
   87SAPS  C220 8359   2.885   6.497   9.131  0.4099  0.3393  0.1938
   87SAPS  H20R 8360   2.956   6.580   9.150  0.1427  0.1921  1.9936
   87SAPS  H20S 8361   2.935   6.402   9.162  0.1303  0.6304  1.6157
   87SAPS  H20T 8362   2.801   6.512   9.202  0.5540 -0.2004  0.4886
   87SAPS   C33 8363   1.948   6.679  10.103  0.2292  0.2413 -0.7440
   87SAPS   H3X 8364   1.857   6.619  10.127 -0.4650  2.0014  1.2946
   87SAPS   H3Y 8365   2.012   6.617  10.037  0.3343  1.3774 -1.7372
   87SAPS   C34 8366   1.906   6.800  10.029 -0.8702 -0.3817  0.0628
   87SAPS   H4X 8367   1.985   6.875  10.010  0.9719 -1.4030  3.0166
   87SAPS   H4Y 8368   1.824   6.852  10.084 -1.6713 -0.7798 -0.7279
   87SAPS   C35 8369   1.853   6.766   9.887 -0.7489  0.6371  0.2597
   87SAPS   H5X 8370   1.762   6.704   9.898  0.5065 -1.4226 -0.4571
   87SAPS   H5Y 8371   1.916   6.687   9.840 -2.7124 -0.2514 -0.9903
   87SAPS   C36 8372   1.825   6.883   9.802 -0.0183 -0.7162 -0.5058
   87SAPS   H6X 8373   1.923   6.934   9.792 -0.4097  0.1083 -0.2126
   87SAPS   H6Y 8374   1.762   6.955   9.858 -1.2729 -2.8100  0.9434
   87SAPS   C37 8375   1.764   6.855   9.659  0.5731  0.4260 -0.1046
   87SAPS   H7X 8376   1.705   6.945   9.630 -1.4093 -0.8635 -0.2961
   87SAPS   H7Y 8377   1.688   6.776   9.679  0.7551 -0.1561 -1.5883
   87SAPS   C38 8378   1.859   6.815   9.557 -0.1152 -0.0755  0.0425
   87SAPS   H8X 8379   1.794   6.810   9.467  2.5304 -0.1812 -1.9972
   87SAPS   H8Y 8380   1.898   6.716   9.591 -2.6620 -1.2476 -0.2386
   87SAPS   C39 8381   1.977   6.902   9.521 -0.2891 -0.2791  0.5591
   87SAPS   H9X 8382   2.053   6.915   9.601  1.2400 -1.3954 -0.6478
   87SAPS   H9Y 8383   1.934   6.999   9.486 -0.1734 -0.9116 -1.4392
   87SAPS  C310 8384   2.060   6.848   9.397  0.2404  0.4392  0.2993
   87SAPS  H10X 8385   2.072   6.738   9.401 -2.6825 -0.0623 -1.4460
   87SAPS  H10Y 8386   2.158   6.899   9.403 -0.0922  1.0753  0.3969
   87SAPS  C311 8387   1.990   6.872   9.263 -0.2885 -0.1294 -0.2916
   87SAPS  H11X 8388   1.959   6.978   9.266  0.0012 -0.0467  2.4752
   87SAPS  H11Y 8389   1.899   6.808   9.264  0.6536 -1.5580  1.7880
   87SAPS  C312 8390   2.067   6.844   9.138 -0.4471  0.2525 -0.0596
   87SAPS  H12X 8391   2.105   6.742   9.119 -3.9993 -0.9479 -1.5584
   87SAPS  H12Y 8392   2.144   6.923   9.123 -1.8056  1.9663  1.4357
   87SAPS  C313 8393   1.986   6.871   9.012  0.0338  0.3885  0.0562
   87SAPS  H13X 8394   1.916   6.957   9.023 -0.7163 -0.0932 -0.8198
   87SAPS  H13Y 8395   1.925   6.779   9.014  0.6985 -0.0503  0.9054
   87SAPS  C314 8396   2.065   6.885   8.885 -0.0063 -0.1792 -0.1630
   87SAPS  H14X 8397   2.143   6.805   8.887 -0.5636 -0.8157 -1.9961
   87SAPS  H14Y 8398   2.115   6.983   8.872 -0.2201 -0.1329 -0.6445
   87SAPS  C315 8399   1.975   6.871   8.758  0.2260  0.2426 -0.2428
   87SAPS  H15X 8400   2.046   6.863   8.673  2.0864  0.9787  1.1849
   87SAPS  H15Y 8401   1.906   6.957   8.745  2.9249  2.2701 -2.0479
   87SAPS  C316 8402   1.881   6.753   8.749 -0.0797  1.0653 -1.0257
   87SAPS  H16X 8403   1.823   6.722   8.838  3.4547  0.2523  1.2322
   87SAPS  H16Y 8404   1.932   6.656   8.726 -1.4126 -0.5695  2.2592
   87SAPS  C317 8405   1.782   6.757   8.625  0.0591 -0.0013 -0.3072
   87SAPS  H17X 8406   1.855   6.761   8.541 -0.0830 -0.5889 -0.4648
   87SAPS  H17Y 8407   1.737   6.859   8.623  0.9479  0.4225  0.7225
   87SAPS  C318 8408   1.700   6.632   8.608 -0.0963  0.1316 -0.1687
   87SAPS  H18X 8409   1.766   6.543   8.595  0.6459  0.8808 -1.9283
   87SAPS  H18Y 8410   1.630   6.639   8.522  0.9699 -0.2444 -1.1069
   87SAPS  H18Z 8411   1.634   6.610   8.694  0.1827 -0.6664 -0.1470
   88SAPS     N 8412   6.020   1.993  10.999 -0.1031 -0.5325 -0.4840
   88SAPS   HN1 8413   6.117   2.022  10.977 -0.7378  1.5756 -0.6859
   88SAPS   HN2 8414   6.018   1.957  11.096 -0.1989  1.8366  0.4510
   88SAPS   HN3 8415   5.989   1.923  10.928 -0.0740 -0.9849 -0.0557
   88SAPS   C12 8416   5.930   2.102  10.998 -0.2686  0.2109 -0.0951
   88SAPS  H12A 8417   5.828   2.066  10.988 -0.9008  1.5839  1.0291
   88SAPS   C13 8418   5.944   2.204  11.118 -0.7396  0.2455  0.5774
   88SAPS  O13A 8419   6.031   2.184  11.208  0.2894 -0.2909  0.4857
   88SAPS  O13B 8420   5.876   2.309  11.123  0.1993  0.2895 -0.1728
   88SAPS   C11 8421   5.959   2.181  10.863  0.6889  0.4849 -0.6037
   88SAPS  H11A 8422   5.889   2.266  10.850 -1.3898 -1.4581 -3.0741
   88SAPS  H11B 8423   5.939   2.123  10.770 -1.1869  2.4621 -1.5251
   88SAPS     P 8424   6.205   2.183  10.762  0.6785 -0.2749  0.3242
   88SAPS   O13 8425   6.313   2.273  10.769  0.0307 -0.1234 -0.7225
   88SAPS   O14 8426   6.216   2.037  10.797  0.1162 -0.5771  0.3722
   88SAPS   O12 8427   6.092   2.230  10.861  0.5586  0.0823 -0.0963
   88SAPS   O11 8428   6.143   2.196  10.615  0.2133  0.1337  0.1137
   88SAPS    C1 8429   6.090   2.320  10.563  0.0848 -0.0823  0.1112
   88SAPS    HA 8430   5.997   2.313  10.502  0.5763  0.0577 -0.6685
   88SAPS    HB 8431   6.068   2.398  10.639 -0.5457 -1.8019  1.7645
   88SAPS    C2 8432   6.188   2.381  10.451  0.4392  0.0326 -0.3429
   88SAPS    HS 8433   6.268   2.425  10.513 -1.1887  2.1687  0.3568
   88SAPS   O21 8434   6.125   2.482  10.368  0.8343 -0.2262  0.0422
   88SAPS   C21 8435   6.091   2.596  10.416  0.0009 -0.2035  0.3544
   88SAPS   O22 8436   6.107   2.630  10.529 -0.5829  0.0006 -0.3334
   88SAPS   C22 8437   6.041   2.691  10.305 -0.9497 -0.1530  0.3283
   88SAPS   H2R 8438   6.007   2.784  10.356  0.7575  1.2490 -0.9631
   88SAPS   H2S 8439   6.133   2.719  10.249 -2.0879 -1.7411 -2.5633
   88SAPS    C3 8440   6.253   2.275  10.352 -0.3127  0.0238  0.2170
   88SAPS    HX 8441   6.170   2.210  10.315 -0.9515  0.4804  0.8211
   88SAPS    HY 8442   6.315   2.210  10.417  0.3739  2.7296  2.4840
   88SAPS   O31 8443   6.312   2.334  10.236  0.3212 -0.1207 -0.2209
   88SAPS   C31 8444   6.379   2.240  10.166  0.8100  0.5789  0.4745
   88SAPS   O32 8445   6.375   2.118  10.193  0.1996  0.2393 -0.1272
   88SAPS   C32 8446   6.461   2.316  10.061 -0.4791 -0.6003 -0.1975
   88SAPS   H2X 8447   6.521   2.394  10.112  0.9002 -1.2135 -0.8179
   88SAPS   H2Y 8448   6.396   2.378   9.995  1.6444  0.2923 -1.5787
   88SAPS   C23 8449   5.938   2.628  10.212 -0.0422 -0.4961  0.3123
   88SAPS   H3R 8450   5.902   2.709  10.143  2.1013 -0.2654 -0.6039
   88SAPS   H3S 8451   5.853   2.595  10.276  0.3562 -0.6503  0.7608
   88SAPS   C24 8452   5.981   2.525  10.107  0.5253 -0.5582 -0.0165
   88SAPS   H4R 8453   6.018   2.430  10.153 -0.5787 -1.2006 -0.4039
   88SAPS   H4S 8454   6.060   2.575  10.048  0.1038  0.3798  0.2013
   88SAPS   C25 8455   5.851   2.475  10.038  0.4503  0.1242  1.2640
   88SAPS   H5R 8456   5.779   2.421  10.102 -0.4810  1.9433  1.8319
   88SAPS   C26 8457   5.814   2.484   9.910 -0.1098 -0.1421  1.1509
   88SAPS   H6R 8458   5.720   2.445   9.867  0.2872 -0.0810  0.2168
   88SAPS   C27 8459   5.895   2.547   9.795 -0.9911  0.0301  0.0410
   88SAPS   H7R 8460   5.907   2.471   9.715 -0.6696  0.0575  0.0620
   88SAPS   H7S 8461   5.992   2.582   9.836 -1.5927  1.7018  0.1196
   88SAPS   C28 8462   5.837   2.681   9.753  0.8414  0.4405  0.4311
   88SAPS   H8R 8463   5.834   2.751   9.838  1.2212 -1.4158  2.0484
   88SAPS   C29 8464   5.814   2.721   9.623 -0.1366 -0.4192 -0.4136
   88SAPS   H9R 8465   5.776   2.824   9.610 -2.9436 -0.9864  2.2677
   88SAPS  C210 8466   5.847   2.645   9.500 -0.1269 -0.6280 -0.3588
   88SAPS  H10R 8467   5.760   2.576   9.496  0.4520 -1.3594 -0.5651
   88SAPS  H10S 8468   5.931   2.574   9.517 -0.5055 -1.0032 -0.0400
   88SAPS  C211 8469   5.863   2.720   9.367  0.3255  0.6611  0.7456
   88SAPS  H11R 8470   5.965   2.752   9.337  0.8750  0.0211  1.8883
   88SAPS  C212 8471   5.770   2.749   9.271  0.2926  0.3466  0.1136
   88SAPS  H12R 8472   5.792   2.791   9.172  3.7678 -0.8165  0.2548
   88SAPS  C213 8473   5.621   2.717   9.292  0.4223 -0.1974  0.0420
   88SAPS  H13R 8474   5.545   2.784   9.247 -0.2349 -1.2945 -0.5094
   88SAPS  H13S 8475   5.605   2.746   9.398  0.3824 -1.1757  0.3173
   88SAPS  C214 8476   5.580   2.573   9.270 -0.0661  0.0917 -0.5405
   88SAPS  H14R 8477   5.563   2.510   9.359  2.6050 -1.0412 -0.7380
   88SAPS  C215 8478   5.566   2.517   9.152  0.3120  0.3476  0.5783
   88SAPS  H15R 8479   5.521   2.416   9.148 -0.7203  0.8333 -2.3673
   88SAPS  C216 8480   5.591   2.576   9.019  0.3671  0.0287 -0.7314
   88SAPS  H16R 8481   5.672   2.517   8.972 -0.8460  0.0187 -2.9391
   88SAPS  H16S 8482   5.619   2.683   9.033  0.6545  0.0103 -1.1562
   88SAPS  C217 8483   5.466   2.567   8.931 -0.5423 -0.0915 -0.1913
   88SAPS  H17R 8484   5.400   2.637   8.987  0.1283 -0.2488  0.8425
   88SAPS  H17S 8485   5.422   2.466   8.942  0.6055 -0.6454 -0.4524
   88SAPS  C218 8486   5.489   2.597   8.781 -0.7967 -0.1574  0.4803
   88SAPS  H18R 8487   5.511   2.703   8.756 -0.7664 -0.0401  1.0046
   88SAPS  H18S 8488   5.395   2.581   8.723 -0.6533  0.2256  0.1300
   88SAPS  C219 8489   5.579   2.506   8.704  0.0259 -0.5999  0.2388
   88SAPS  H19R 8490   5.682   2.496   8.744  0.0997  1.1881  0.5825
   88SAPS  H19S 8491   5.588   2.548   8.602  0.1727 -0.1009  0.4539
   88SAPS  C220 8492   5.533   2.356   8.696 -0.4601  0.0756  0.8552
   88SAPS  H20R 8493   5.600   2.301   8.626  0.0669  0.4993  1.0252
   88SAPS  H20S 8494   5.432   2.347   8.650  0.5370 -0.8020 -1.3700
   88SAPS  H20T 8495   5.522   2.317   8.799 -0.1746  3.4512  2.2951
   88SAPS   C33 8496   6.541   2.232   9.963 -0.7526 -0.3993 -0.3022
   88SAPS   H3X 8497   6.515   2.124   9.964 -1.0471 -0.3334  0.7730
   88SAPS   H3Y 8498   6.648   2.249   9.990 -0.9033  1.4730 -0.7318
   88SAPS   C34 8499   6.519   2.274   9.822 -0.0469 -0.2327  0.4118
   88SAPS   H4X 8500   6.548   2.381   9.815  2.0561 -0.8485 -1.2097
   88SAPS   H4Y 8501   6.413   2.254   9.797 -0.6182 -0.4029  2.7322
   88SAPS   C35 8502   6.609   2.186   9.732 -0.7891 -0.8805 -0.1685
   88SAPS   H5X 8503   6.571   2.082   9.744 -1.6589 -0.6275 -0.6962
   88SAPS   H5Y 8504   6.712   2.187   9.774 -0.8271 -1.0492 -0.0704
   88SAPS   C36 8505   6.621   2.228   9.581  0.0646 -0.1185 -0.0711
   88SAPS   H6X 8506   6.671   2.324   9.558  0.9873 -0.8233 -1.0860
   88SAPS   H6Y 8507   6.522   2.243   9.533  0.2974 -1.0169 -0.8626
   88SAPS   C37 8508   6.698   2.125   9.494  0.2471  0.6734 -0.3554
   88SAPS   H7X 8509   6.640   2.030   9.492 -0.4822  1.1003 -0.0677
   88SAPS   H7Y 8510   6.798   2.105   9.537  0.6090 -0.8345 -1.7799
   88SAPS   C38 8511   6.709   2.171   9.347 -0.0408 -0.5579  0.1849
   88SAPS   H8X 8512   6.608   2.178   9.301 -0.1875  1.0198  0.6824
   88SAPS   H8Y 8513   6.763   2.090   9.294 -0.0784  0.4727 -1.4979
   88SAPS   C39 8514   6.795   2.297   9.313 -0.0741  0.1567  0.3554
   88SAPS   H9X 8515   6.901   2.285   9.344 -0.1503 -0.5824  0.3402
   88SAPS   H9Y 8516   6.760   2.390   9.363 -1.0966  2.2743 -3.8586
   88SAPS  C310 8517   6.804   2.344   9.164  0.0858  0.2133 -0.4668
   88SAPS  H10X 8518   6.705   2.385   9.138  0.5217  0.2062 -2.2595
   88SAPS  H10Y 8519   6.834   2.264   9.093 -0.6795 -0.0247 -0.5306
   88SAPS  C311 8520   6.913   2.453   9.137  0.0995  0.0917  0.7328
   88SAPS  H11X 8521   7.016   2.416   9.158 -0.0759  0.4542  2.3765
   88SAPS  H11Y 8522   6.913   2.527   9.221  0.7612 -0.6244  1.3767
   88SAPS  C312 8523   6.876   2.522   9.006  0.0190  0.2335 -0.1219
   88SAPS  H12X 8524   6.767   2.532   8.986 -0.3573 -2.5437  0.0957
   88SAPS  H12Y 8525   6.904   2.457   8.921 -0.2394  2.0250 -1.6259
   88SAPS  C313 8526   6.954   2.652   8.975 -0.4563 -0.1000  0.8810
   88SAPS  H13X 8527   6.923   2.724   9.054 -1.1378 -0.5066  0.9921
   88SAPS  H13Y 8528   6.918   2.690   8.877  0.3580 -2.2613 -0.3346
   88SAPS  C314 8529   7.109   2.616   8.966  0.1676  0.0237 -0.2445
   88SAPS  H14X 8530   7.128   2.546   8.882  1.9183 -0.1416  0.2571
   88SAPS  H14Y 8531   7.132   2.583   9.069 -0.2988  4.2101  1.4325
   88SAPS  C315 8532   7.204   2.735   8.932  0.5853  0.3285 -0.2650
   88SAPS  H15X 8533   7.314   2.716   8.928  0.3352 -1.0909 -2.1925
   88SAPS  H15Y 8534   7.191   2.812   9.011 -1.2379 -2.2877  2.1765
   88SAPS  C316 8535   7.170   2.793   8.788  0.4213  0.3822 -0.1421
   88SAPS  H16X 8536   7.133   2.898   8.791  2.7327  1.2330  1.3839
   88SAPS  H16Y 8537   7.078   2.742   8.750  0.8017  1.2644 -2.4267
   88SAPS  C317 8538   7.270   2.785   8.669 -0.4315 -0.1410 -0.3592
   88SAPS  H17X 8539   7.223   2.836   8.582  0.6831 -0.1009 -0.9512
   88SAPS  H17Y 8540   7.292   2.681   8.636 -1.6030 -1.0015  1.4101
   88SAPS  C318 8541   7.398   2.865   8.714 -0.4402  0.3968  0.0567
   88SAPS  H18X 8542   7.377   2.958   8.771  0.8337  0.4488  0.4725
   88SAPS  H18Y 8543   7.458   2.895   8.626  0.6570  0.6073  0.8547
   88SAPS  H18Z 8544   7.472   2.793   8.755  0.8958  1.5385 -0.2452
   89SAPS     N 8545   4.692   0.319  11.063  0.5563 -0.0839  0.5180
   89SAPS   HN1 8546   4.605   0.373  11.082  0.8986  0.3155  0.9690
   89SAPS   HN2 8547   4.677   0.263  10.977 -1.0874  0.7906  0.1773
   89SAPS   HN3 8548   4.715   0.259  11.144  0.0714  1.4301  1.8342
   89SAPS   C12 8549   4.810   0.409  11.025  0.1097  0.0166 -0.1760
   89SAPS  H12A 8550   4.805   0.487  11.100  2.1007  0.2557 -0.2273
   89SAPS   C13 8551   4.945   0.345  11.057 -0.5057 -0.5098 -0.3215
   89SAPS  O13A 8552   4.949   0.237  11.120  0.0002 -0.6618  0.0402
   89SAPS  O13B 8553   5.048   0.416  11.041  0.0159 -0.3041  0.0511
   89SAPS   C11 8554   4.797   0.448  10.878  0.2591  0.0164 -0.0809
   89SAPS  H11A 8555   4.866   0.535  10.872  0.7568 -0.1053  2.6686
   89SAPS  H11B 8556   4.698   0.489  10.851 -0.5302  0.2009  2.7355
   89SAPS     P 8557   4.753   0.229  10.735 -0.2640 -0.4826 -0.0687
   89SAPS   O13 8558   4.842   0.146  10.649 -0.3381  0.9860  0.4510
   89SAPS   O14 8559   4.694   0.156  10.851  0.0768 -0.0172 -0.2887
   89SAPS   O12 8560   4.841   0.340  10.792  0.8062 -0.2219  0.2209
   89SAPS   O11 8561   4.632   0.298  10.645 -0.2794 -0.2986 -0.4299
   89SAPS    C1 8562   4.660   0.407  10.553 -0.4380  0.1865 -0.1175
   89SAPS    HA 8563   4.568   0.464  10.531 -1.1548 -1.3048 -1.1706
   89SAPS    HB 8564   4.730   0.479  10.600 -1.2250  1.2190 -0.5040
   89SAPS    C2 8565   4.709   0.370  10.411 -0.4767  0.5424 -0.2038
   89SAPS    HS 8566   4.815   0.337  10.408 -0.8375 -1.2481  2.5943
   89SAPS   O21 8567   4.676   0.473  10.316 -0.4377  0.4760  0.3023
   89SAPS   C21 8568   4.734   0.590  10.320 -0.9656  0.9613 -0.1135
   89SAPS   O22 8569   4.801   0.631  10.417 -0.7888  0.5757  0.0215
   89SAPS   C22 8570   4.724   0.653  10.190  0.1971 -0.6858  0.3933
   89SAPS   H2R 8571   4.658   0.598  10.120  0.1893 -0.5671  0.3060
   89SAPS   H2S 8572   4.678   0.752  10.210 -1.6589 -1.9362  2.8255
   89SAPS    C3 8573   4.637   0.233  10.360 -0.2623  0.3715  0.2154
   89SAPS    HX 8574   4.534   0.226  10.401 -0.5037  0.9390 -0.2734
   89SAPS    HY 8575   4.695   0.149  10.404 -0.5639 -1.3917 -2.5580
   89SAPS   O31 8576   4.633   0.209  10.219 -0.0683 -0.0403  0.3885
   89SAPS   C31 8577   4.752   0.195  10.160 -0.4314 -0.8085 -0.4979
   89SAPS   O32 8578   4.861   0.190  10.208 -0.0499  0.4392 -0.2195
   89SAPS   C32 8579   4.732   0.180  10.017 -0.2885  0.4548  0.2520
   89SAPS   H2X 8580   4.698   0.279   9.978 -1.4829  1.8504  4.3421
   89SAPS   H2Y 8581   4.639   0.122   9.998 -0.9818  1.1622  1.4320
   89SAPS   C23 8582   4.863   0.671  10.133  0.0042  0.1861 -0.4158
   89SAPS   H3R 8583   4.921   0.743  10.195 -1.0859  0.8121 -0.0774
   89SAPS   H3S 8584   4.845   0.727  10.039 -1.1913  0.6199  0.0401
   89SAPS   C24 8585   4.931   0.535  10.104 -0.3928  0.0287  0.4014
   89SAPS   H4R 8586   4.869   0.459  10.051  0.1065  0.5067 -0.9196
   89SAPS   H4S 8587   4.950   0.488  10.203  1.3711 -0.3943 -0.1104
   89SAPS   C25 8588   5.058   0.554  10.027 -0.5354 -0.0121 -0.3895
   89SAPS   H5R 8589   5.147   0.587  10.083 -0.2400 -1.5182  0.0774
   89SAPS   C26 8590   5.068   0.561   9.895 -0.1671  0.1887  0.1837
   89SAPS   H6R 8591   5.166   0.579   9.849  0.0875 -3.4244 -0.9880
   89SAPS   C27 8592   4.955   0.544   9.797 -0.0490  0.5066  0.6266
   89SAPS   H7R 8593   4.874   0.484   9.845 -0.6973  1.4043  0.6729
   89SAPS   H7S 8594   4.995   0.482   9.714 -0.3872  0.6285  0.3694
   89SAPS   C28 8595   4.893   0.677   9.747  0.1309 -0.0141  0.3312
   89SAPS   H8R 8596   4.837   0.727   9.828  0.4577  0.0885  0.4972
   89SAPS   C29 8597   4.894   0.727   9.620  0.4327 -0.3771 -0.0701
   89SAPS   H9R 8598   4.851   0.827   9.602  1.3939  0.1868  0.6535
   89SAPS  C210 8599   4.971   0.669   9.506 -0.7042  0.1884  0.4721
   89SAPS  H10R 8600   5.072   0.644   9.545 -0.6331 -0.1093  0.1048
   89SAPS  H10S 8601   4.985   0.741   9.422 -0.7930 -2.1236 -1.6393
   89SAPS  C211 8602   4.923   0.546   9.434  0.1285 -0.0978 -0.7603
   89SAPS  H11R 8603   4.867   0.471   9.492  0.7247  0.3671  0.4498
   89SAPS  C212 8604   4.930   0.525   9.303  0.1786  0.5419 -0.4664
   89SAPS  H12R 8605   4.890   0.429   9.267  0.5162  0.1716  0.1208
   89SAPS  C213 8606   4.978   0.615   9.197 -0.1111  0.0604 -0.3381
   89SAPS  H13R 8607   4.998   0.717   9.235  0.5883 -0.4057  0.6119
   89SAPS  H13S 8608   4.900   0.622   9.119 -1.8183  1.2396  1.3708
   89SAPS  C214 8609   5.112   0.562   9.139 -0.6156  0.1935  0.3891
   89SAPS  H14R 8610   5.163   0.488   9.202  0.9891 -0.0577 -1.1133
   89SAPS  C215 8611   5.165   0.583   9.012 -0.0485 -0.0804 -0.2492
   89SAPS  H15R 8612   5.263   0.537   8.989  0.1539 -0.5945  1.4685
   89SAPS  C216 8613   5.111   0.663   8.900  0.4747 -0.3456 -0.2945
   89SAPS  H16R 8614   5.032   0.732   8.937  0.4609 -0.8007  0.5626
   89SAPS  H16S 8615   5.058   0.607   8.820  0.9052 -1.1405 -0.0355
   89SAPS  C217 8616   5.206   0.762   8.832  0.0286 -0.2688  0.3538
   89SAPS  H17R 8617   5.245   0.833   8.908  2.5031 -0.9329 -0.2018
   89SAPS  H17S 8618   5.157   0.814   8.747 -1.7134 -1.2375  0.7147
   89SAPS  C218 8619   5.323   0.694   8.753  0.2496 -0.6098 -0.3171
   89SAPS  H18R 8620   5.274   0.616   8.691 -0.7088  0.6902 -1.2574
   89SAPS  H18S 8621   5.396   0.664   8.831  3.5653  1.8662 -2.2482
   89SAPS  C219 8622   5.390   0.791   8.654  0.0432  0.7270 -0.2963
   89SAPS  H19R 8623   5.422   0.877   8.716  3.7798 -1.4083  1.0669
   89SAPS  H19S 8624   5.313   0.820   8.579  0.3370 -2.0947 -1.8290
   89SAPS  C220 8625   5.507   0.728   8.577 -0.1882 -0.4787  0.3364
   89SAPS  H20R 8626   5.553   0.807   8.514 -1.1001  0.4956  0.8706
   89SAPS  H20S 8627   5.476   0.636   8.522  0.7226 -0.7356  0.2261
   89SAPS  H20T 8628   5.586   0.695   8.647 -1.4279  1.8244  2.9785
   89SAPS   C33 8629   4.855   0.124   9.937  0.7644 -0.4572  0.2610
   89SAPS   H3X 8630   4.874   0.020   9.971  1.7696 -0.4429 -0.2278
   89SAPS   H3Y 8631   4.942   0.191   9.953 -0.0679  1.0850 -1.2803
   89SAPS   C34 8632   4.823   0.117   9.784  0.3793  0.4578  0.3764
   89SAPS   H4X 8633   4.777   0.215   9.761  2.0023  0.8044 -1.6541
   89SAPS   H4Y 8634   4.759   0.029   9.760 -0.1332  0.8955  0.1345
   89SAPS   C35 8635   4.933   0.100   9.679  0.7338 -0.1887  0.0307
   89SAPS   H5X 8636   4.990   0.005   9.684  0.7306 -0.1535  0.7899
   89SAPS   H5Y 8637   5.000   0.188   9.684  0.0134  0.3452  0.5583
   89SAPS   C36 8638   4.867   0.102   9.536  0.5483  0.7742 -0.1335
   89SAPS   H6X 8639   4.815   0.200   9.537 -0.0550  0.4679  0.8059
   89SAPS   H6Y 8640   4.793   0.020   9.524 -1.1845  2.2616 -0.0955
   89SAPS   C37 8641   4.967   0.091   9.420 -0.8069  0.0946 -0.1854
   89SAPS   H7X 8642   5.025  -0.002   9.438 -0.0582  0.2506 -1.6674
   89SAPS   H7Y 8643   5.039   0.175   9.426 -0.3885 -0.3342  3.3343
   89SAPS   C38 8644   4.903   0.071   9.282 -0.5744 -0.2531 -0.4506
   89SAPS   H8X 8645   4.832   0.156   9.280  0.0799  0.2769 -1.6457
   89SAPS   H8Y 8646   4.851  -0.027   9.272  0.4287 -0.9121  0.4910
   89SAPS   C39 8647   4.999   0.079   9.157  0.2623 -0.0475 -0.1012
   89SAPS   H9X 8648   5.076  -0.002   9.159  1.1625  0.6660 -2.3786
   89SAPS   H9Y 8649   5.066   0.168   9.154  0.2204 -0.0186 -0.1716
   89SAPS  C310 8650   4.926   0.095   9.024 -0.5093  0.0324 -0.0904
   89SAPS  H10X 8651   4.988   0.155   8.954 -2.3784 -0.7247 -2.4846
   89SAPS  H10Y 8652   4.831   0.152   9.026  0.6380  2.0996 -0.8387
   89SAPS  C311 8653   4.894  -0.035   8.949  0.3289  0.5170  0.0910
   89SAPS  H11X 8654   4.823  -0.099   9.005  1.5412  0.4712  1.6561
   89SAPS  H11Y 8655   4.993  -0.086   8.941 -0.7371 -1.8352  1.0674
   89SAPS  C312 8656   4.844  -0.014   8.805  0.0564  0.0082  0.9165
   89SAPS  H12X 8657   4.904   0.065   8.756  0.6552 -0.8944  0.1789
   89SAPS  H12Y 8658   4.742   0.029   8.814 -0.0729 -0.1925  0.4520
   89SAPS  C313 8659   4.842  -0.142   8.720  0.0209  0.5438  0.2344
   89SAPS  H13X 8660   4.787  -0.221   8.776  0.8624  1.5020  2.4879
   89SAPS  H13Y 8661   4.942  -0.187   8.706  1.1836  3.0431  0.0155
   89SAPS  C314 8662   4.755  -0.127   8.599  0.8357  0.2400 -0.0861
   89SAPS  H14X 8663   4.778  -0.037   8.538 -0.6486  0.7867  0.1216
   89SAPS  H14Y 8664   4.651  -0.102   8.629  1.6481  3.0664  0.7858
   89SAPS  C315 8665   4.755  -0.257   8.500  0.0967  0.3597 -0.9349
   89SAPS  H15X 8666   4.728  -0.340   8.569  2.0154  0.0904 -0.4619
   89SAPS  H15Y 8667   4.856  -0.284   8.462  0.2708  2.0460 -1.7725
   89SAPS  C316 8668   4.660  -0.254   8.388 -0.0154 -0.2593 -0.4068
   89SAPS  H16X 8669   4.554  -0.269   8.417 -0.0722 -0.3141 -0.6366
   89SAPS  H16Y 8670   4.681  -0.341   8.322  0.8799  0.5944 -1.2886
   89SAPS  C317 8671   4.667  -0.123   8.303  0.0016  0.0078  0.0323
   89SAPS  H17X 8672   4.768  -0.107   8.258 -0.3456  1.8059 -0.1831
   89SAPS  H17Y 8673   4.657  -0.037   8.374  0.8464 -1.0473  1.4872
   89SAPS  C318 8674   4.576  -0.105   8.185 -0.0474  0.3676  0.2834
   89SAPS  H18X 8675   4.578  -0.004   8.140 -0.2791  0.4330  0.4161
   89SAPS  H18Y 8676   4.471  -0.126   8.215 -0.5769  0.2675 -1.5694
   89SAPS  H18Z 8677   4.603  -0.180   8.108  1.5990 -0.7880  1.8698
   90SAPS     N 8678   6.140   6.192  10.970  0.3090  0.3174 -0.6908
   90SAPS   HN1 8679   6.206   6.183  11.049 -0.2161 -1.3353 -0.4040
   90SAPS   HN2 8680   6.189   6.161  10.884  0.2054 -0.9837 -0.3126
   90SAPS   HN3 8681   6.110   6.290  10.954  0.3916  0.3292 -0.7692
   90SAPS   C12 8682   6.023   6.106  11.008  0.0067 -0.0914  0.9400
   90SAPS  H12A 8683   6.050   6.002  11.011 -1.1747 -0.3977  2.6411
   90SAPS   C13 8684   5.965   6.153  11.150  0.4000 -0.2253  0.5980
   90SAPS  O13A 8685   6.025   6.239  11.217 -0.0652 -0.5857  0.5151
   90SAPS  O13B 8686   5.859   6.098  11.191 -0.5531  0.2637  0.2018
   90SAPS   C11 8687   5.902   6.126  10.907  0.2703 -0.0797 -0.7271
   90SAPS  H11A 8688   5.866   6.231  10.911 -1.5872 -0.7217  1.8805
   90SAPS  H11B 8689   5.819   6.066  10.951 -0.0377 -0.0774 -1.2962
   90SAPS     P 8690   5.885   6.168  10.650  0.1834 -0.2896 -0.0302
   90SAPS   O13 8691   5.909   6.094  10.526  0.4371  0.7109 -0.7668
   90SAPS   O14 8692   5.747   6.196  10.676 -0.2484  0.1945 -0.2395
   90SAPS   O12 8693   5.934   6.082  10.772 -0.5263 -0.4629 -0.4035
   90SAPS   O11 8694   5.969   6.309  10.662 -0.6832 -0.1584  0.1591
   90SAPS    C1 8695   5.913   6.438  10.644 -0.2483 -0.5652 -0.3734
   90SAPS    HA 8696   5.832   6.457  10.718  0.9838  0.2452  0.8405
   90SAPS    HB 8697   5.990   6.516  10.667 -0.1919 -0.9523  0.8400
   90SAPS    C2 8698   5.861   6.458  10.497  0.0960 -0.3720 -0.2901
   90SAPS    HS 8699   5.769   6.396  10.488 -0.2627  0.0987  0.0437
   90SAPS   O21 8700   5.959   6.413  10.400 -0.4100  0.2309 -0.5172
   90SAPS   C21 8701   5.920   6.352  10.298  0.1733  0.3641  1.1006
   90SAPS   O22 8702   5.806   6.322  10.263 -0.0037 -0.2929  0.0243
   90SAPS   C22 8703   6.040   6.313  10.227 -0.3103 -0.3894  0.3208
   90SAPS   H2R 8704   6.116   6.391  10.205  0.2911 -1.2851 -0.9171
   90SAPS   H2S 8705   6.094   6.241  10.292 -0.5740 -1.0009 -0.1318
   90SAPS    C3 8706   5.833   6.608  10.484  0.8831  0.4398 -0.1919
   90SAPS    HX 8707   5.928   6.664  10.497  2.1616 -1.2852 -1.6094
   90SAPS    HY 8708   5.763   6.632  10.567  0.0220 -1.0206 -0.4530
   90SAPS   O31 8709   5.778   6.651  10.358  0.2962 -0.0178  0.1241
   90SAPS   C31 8710   5.649   6.630  10.331 -0.1113 -0.5454  0.3078
   90SAPS   O32 8711   5.564   6.600  10.410 -0.2943  0.1926 -0.1213
   90SAPS   C32 8712   5.623   6.695  10.194  0.5146  0.4445 -0.1142
   90SAPS   H2X 8713   5.705   6.702  10.119 -0.0231  2.8734 -0.5711
   90SAPS   H2Y 8714   5.579   6.793  10.222 -1.4842 -0.4355 -0.0686
   90SAPS   C23 8715   6.009   6.242  10.091 -0.2348 -0.7829  0.7282
   90SAPS   H3R 8716   5.966   6.321  10.026 -1.2548  0.3918  2.7127
   90SAPS   H3S 8717   5.928   6.167  10.091 -1.8653  0.8323 -2.1210
   90SAPS   C24 8718   6.135   6.184  10.022 -0.0514  0.2162  0.0886
   90SAPS   H4R 8719   6.217   6.258  10.025  0.8919 -0.6399 -2.0633
   90SAPS   H4S 8720   6.115   6.183   9.912 -0.6266  0.0253  0.1881
   90SAPS   C25 8721   6.180   6.049  10.071 -0.2359 -0.7137 -0.2266
   90SAPS   H5R 8722   6.200   6.050  10.179 -0.8600 -0.5931 -0.1102
   90SAPS   C26 8723   6.173   5.934  10.002  0.5837 -0.0236  0.3068
   90SAPS   H6R 8724   6.195   5.838  10.051 -1.5827 -0.0582  1.3150
   90SAPS   C27 8725   6.123   5.927   9.860  0.0008 -0.0947  0.0787
   90SAPS   H7R 8726   6.158   5.829   9.821  0.4804  0.3911 -0.7413
   90SAPS   H7S 8727   6.185   5.997   9.801  1.7895 -1.3597  0.3802
   90SAPS   C28 8728   5.976   5.944   9.838  0.5960  0.4598 -0.8924
   90SAPS   H8R 8729   5.926   5.983   9.928  0.1230  0.8226 -1.3041
   90SAPS   C29 8730   5.905   5.904   9.733  0.0809 -1.1776 -0.7734
   90SAPS   H9R 8731   5.798   5.928   9.732  0.6451  2.3332  2.1652
   90SAPS  C210 8732   5.967   5.844   9.610 -0.0797  0.5571 -0.4401
   90SAPS  H10R 8733   6.021   5.752   9.639  0.7903  0.7054 -1.5166
   90SAPS  H10S 8734   6.053   5.904   9.572  1.6295 -1.5738 -0.1366
   90SAPS  C211 8735   5.875   5.828   9.497  0.0162 -0.0531  1.1560
   90SAPS  H11R 8736   5.846   5.725   9.474  0.5580 -0.5596  2.5854
   90SAPS  C212 8737   5.848   5.932   9.407  0.1864  0.3170 -0.1103
   90SAPS  H12R 8738   5.769   5.920   9.332 -1.2122  0.1133  1.3270
   90SAPS  C213 8739   5.899   6.073   9.434 -0.2212  0.2093  0.7048
   90SAPS  H13R 8740   6.002   6.065   9.395 -0.2122 -0.9584  0.9423
   90SAPS  H13S 8741   5.901   6.091   9.543  0.0054 -2.4102  1.1963
   90SAPS  C214 8742   5.844   6.191   9.361 -0.7197  0.0995 -0.8590
   90SAPS  H14R 8743   5.920   6.248   9.304  0.0467  2.3597  2.1398
   90SAPS  C215 8744   5.719   6.244   9.373 -0.3845  0.3993  0.0567
   90SAPS  H15R 8745   5.688   6.331   9.314 -1.3194 -1.0306 -1.6811
   90SAPS  C216 8746   5.602   6.187   9.444 -0.4006  0.0147  0.1451
   90SAPS  H16R 8747   5.625   6.084   9.479  0.2508 -0.2147 -0.9384
   90SAPS  H16S 8748   5.521   6.177   9.369  0.9232 -0.7363 -1.2220
   90SAPS  C217 8749   5.560   6.283   9.554 -0.1100 -0.0722  0.5540
   90SAPS  H17R 8750   5.456   6.273   9.593 -0.0970  0.7610  0.8320
   90SAPS  H17S 8751   5.553   6.384   9.508 -0.9440 -0.3827 -0.0324
   90SAPS  C218 8752   5.667   6.277   9.660  0.1433 -0.1812 -0.0351
   90SAPS  H18R 8753   5.766   6.300   9.617  0.8845 -1.0909  1.1154
   90SAPS  H18S 8754   5.669   6.176   9.707  0.0464 -1.6660 -3.0125
   90SAPS  C219 8755   5.652   6.380   9.770 -0.0740 -0.5256 -0.3746
   90SAPS  H19R 8756   5.556   6.378   9.825  0.4413  0.8596  0.6647
   90SAPS  H19S 8757   5.667   6.477   9.718 -0.6665 -1.1962 -1.8439
   90SAPS  C220 8758   5.760   6.368   9.877 -0.7912  0.0805 -0.1698
   90SAPS  H20R 8759   5.750   6.270   9.928  2.8674 -0.7699 -0.8442
   90SAPS  H20S 8760   5.739   6.455   9.943 -1.6737 -1.2242  1.3396
   90SAPS  H20T 8761   5.858   6.383   9.828  0.5200 -0.1386  2.2601
   90SAPS   C33 8762   5.505   6.616  10.133  0.0397 -0.5744  0.0308
   90SAPS   H3X 8763   5.416   6.629  10.197 -0.2869 -0.2770 -0.4804
   90SAPS   H3Y 8764   5.525   6.507  10.143  1.3944 -0.3546 -0.0173
   90SAPS   C34 8765   5.490   6.659   9.985 -0.2276  0.5536 -0.3644
   90SAPS   H4X 8766   5.579   6.611   9.939 -0.0558  0.8957 -0.3897
   90SAPS   H4Y 8767   5.486   6.769   9.974 -0.2394  0.5572 -0.3221
   90SAPS   C35 8768   5.352   6.614   9.928  0.0216 -0.4417  0.0132
   90SAPS   H5X 8769   5.285   6.685   9.981  1.0207  0.1993  0.4529
   90SAPS   H5Y 8770   5.334   6.508   9.957 -0.6826 -0.3334 -0.0191
   90SAPS   C36 8771   5.343   6.620   9.773  0.1433  0.5980 -0.6064
   90SAPS   H6X 8772   5.443   6.599   9.731  0.0215 -1.4548  0.0633
   90SAPS   H6Y 8773   5.317   6.725   9.744  2.0969  0.6439 -2.3912
   90SAPS   C37 8774   5.246   6.524   9.710 -0.5135  0.3802  0.6036
   90SAPS   H7X 8775   5.145   6.539   9.755  0.4552  1.9536  2.4139
   90SAPS   H7Y 8776   5.269   6.417   9.732  0.3957 -0.0052 -1.9228
   90SAPS   C38 8777   5.246   6.531   9.558  0.4680  0.2823 -1.1031
   90SAPS   H8X 8778   5.348   6.505   9.520  0.2260 -1.2389 -0.7553
   90SAPS   H8Y 8779   5.214   6.632   9.523  1.8651  0.4143 -2.0702
   90SAPS   C39 8780   5.153   6.431   9.487  0.3581 -0.0350 -0.4122
   90SAPS   H9X 8781   5.056   6.435   9.540  0.0019 -1.0251 -0.9631
   90SAPS   H9Y 8782   5.184   6.325   9.502 -1.8115 -0.8630 -1.4816
   90SAPS  C310 8783   5.114   6.459   9.342 -0.4414  0.7038  0.5294
   90SAPS  H10X 8784   5.204   6.475   9.279 -0.2016 -0.6085  0.5039
   90SAPS  H10Y 8785   5.043   6.544   9.339  0.1559  1.2594  1.4132
   90SAPS  C311 8786   5.036   6.339   9.279  0.5308  0.5032 -0.6070
   90SAPS  H11X 8787   4.941   6.331   9.334  0.4526 -0.0223 -0.8086
   90SAPS  H11Y 8788   5.100   6.250   9.298  1.3127  0.9902 -0.8875
   90SAPS  C312 8789   5.016   6.351   9.129  1.1307  0.2148  0.4113
   90SAPS  H12X 8790   5.114   6.358   9.077  0.9610 -1.7015 -0.2432
   90SAPS  H12Y 8791   4.962   6.446   9.109 -2.4980 -1.2559  2.2744
   90SAPS  C313 8792   4.941   6.232   9.063  0.0674  0.9045  0.3463
   90SAPS  H13X 8793   4.832   6.227   9.086 -1.3107 -0.3037 -4.9384
   90SAPS  H13Y 8794   4.982   6.132   9.088 -1.6406 -0.5493 -2.2413
   90SAPS  C314 8795   4.930   6.246   8.905 -0.5940 -0.4287 -0.1264
   90SAPS  H14X 8796   5.031   6.273   8.866 -0.2311  0.4564  1.3400
   90SAPS  H14Y 8797   4.870   6.338   8.888  1.5340  1.2793  1.0688
   90SAPS  C315 8798   4.871   6.130   8.824 -0.2017 -0.5052  0.2972
   90SAPS  H15X 8799   4.765   6.120   8.856 -0.2675  1.8654  0.9905
   90SAPS  H15Y 8800   4.923   6.034   8.843  1.9767  0.6247  0.3882
   90SAPS  C316 8801   4.871   6.175   8.678 -0.8393 -0.5908  0.2280
   90SAPS  H16X 8802   4.973   6.215   8.657 -1.5175  1.4893  0.6099
   90SAPS  H16Y 8803   4.796   6.255   8.660  0.4609  0.5381 -0.4044
   90SAPS  C317 8804   4.857   6.055   8.581 -0.3357 -0.3749  0.0752
   90SAPS  H17X 8805   4.770   5.991   8.604  0.1886 -0.8229  0.8432
   90SAPS  H17Y 8806   4.935   5.976   8.585 -0.4477 -0.4588  0.6179
   90SAPS  C318 8807   4.839   6.107   8.434 -0.7516  0.1874  1.0014
   90SAPS  H18X 8808   4.774   6.197   8.437 -0.8986  0.0688  1.5072
   90SAPS  H18Y 8809   4.807   6.029   8.362  2.7967 -1.0040  0.5111
   90SAPS  H18Z 8810   4.940   6.141   8.402 -0.8461 -0.8938 -0.5468
   91SAPS     N 8811   5.370   2.955   5.981 -0.0153 -0.2475 -0.1772
   91SAPS   HN1 8812   5.434   3.035   6.004  0.1519 -0.8707  1.6836
   91SAPS   HN2 8813   5.432   2.874   5.962  0.2963 -0.0704  0.0641
   91SAPS   HN3 8814   5.311   2.971   5.896  0.5397 -3.0685 -1.1812
   91SAPS   C12 8815   5.292   2.917   6.099  0.5781  0.4116  0.1560
   91SAPS  H12A 8816   5.237   2.829   6.069 -2.1137  2.2948 -0.8000
   91SAPS   C13 8817   5.372   2.854   6.222  0.0956  0.0380  1.0242
   91SAPS  O13A 8818   5.491   2.820   6.196  0.5511  0.7851 -0.0859
   91SAPS  O13B 8819   5.304   2.795   6.307  0.2975  1.0502  0.5175
   91SAPS   C11 8820   5.195   3.031   6.145  0.5100 -0.4448 -0.3336
   91SAPS  H11A 8821   5.251   3.117   6.188  0.6470  0.0441 -1.4465
   91SAPS  H11B 8822   5.135   2.991   6.229 -0.7288  0.2529 -0.8693
   91SAPS     P 8823   5.101   3.198   5.966 -0.4283  0.4463  0.3412
   91SAPS   O13 8824   5.225   3.188   5.886  0.0651 -0.6327 -0.2817
   91SAPS   O14 8825   4.979   3.215   5.882 -0.3455  0.3460  0.5576
   91SAPS   O12 8826   5.091   3.065   6.046 -0.5041  0.1269  0.1266
   91SAPS   O11 8827   5.105   3.306   6.071 -0.0926 -0.0989 -0.0456
   91SAPS    C1 8828   4.977   3.352   6.134  0.2355  0.3651 -0.9264
   91SAPS    HA 8829   4.883   3.308   6.095  0.1402 -1.2369  0.9433
   91SAPS    HB 8830   4.979   3.327   6.242  1.1628 -0.8046 -1.1959
   91SAPS    C2 8831   4.968   3.505   6.145  0.0869  0.2759  0.4399
   91SAPS    HS 8832   4.992   3.549   6.046  0.0909  0.8137  0.6732
   91SAPS   O21 8833   5.063   3.545   6.248  0.1897  0.3587 -0.0729
   91SAPS   C21 8834   5.102   3.672   6.234  0.0278  0.3017 -0.6509
   91SAPS   O22 8835   5.070   3.739   6.137  0.3764  0.6010  0.3541
   91SAPS   C22 8836   5.180   3.727   6.354  0.5118 -0.3996  0.7240
   91SAPS   H2R 8837   5.241   3.643   6.394 -0.7334 -1.5879  0.1863
   91SAPS   H2S 8838   5.241   3.814   6.319 -0.5402 -0.1678 -0.5991
   91SAPS    C3 8839   4.825   3.556   6.177 -0.0625  0.2566 -0.1944
   91SAPS    HX 8840   4.785   3.481   6.248 -2.3421  1.1208 -0.4794
   91SAPS    HY 8841   4.750   3.544   6.095 -0.6921 -3.4387  0.7480
   91SAPS   O31 8842   4.822   3.691   6.236  0.0893  0.5088  0.2663
   91SAPS   C31 8843   4.704   3.733   6.277  0.3738 -0.0112  0.1686
   91SAPS   O32 8844   4.593   3.685   6.257  0.5050  0.2254 -0.3724
   91SAPS   C32 8845   4.737   3.848   6.367  0.7385 -0.5565  0.2097
   91SAPS   H2X 8846   4.762   3.934   6.301  1.2290  0.2505  1.4025
   91SAPS   H2Y 8847   4.827   3.838   6.431  0.9141  1.6582  0.3751
   91SAPS   C23 8848   5.091   3.785   6.464  0.8216 -0.7705 -0.3043
   91SAPS   H3R 8849   5.028   3.860   6.412  0.7438 -2.2316 -2.4402
   91SAPS   H3S 8850   5.149   3.840   6.542  0.1209 -1.5416  0.7803
   91SAPS   C24 8851   5.009   3.682   6.552 -0.7838 -0.3732  0.2286
   91SAPS   H4R 8852   4.957   3.622   6.474 -0.4307  2.5206 -2.4745
   91SAPS   H4S 8853   4.931   3.731   6.613 -0.9603  0.0967 -0.3647
   91SAPS   C25 8854   5.097   3.593   6.627  0.2978  0.5082 -0.9598
   91SAPS   H5R 8855   5.179   3.544   6.572  1.3828  1.7209 -0.4727
   91SAPS   C26 8856   5.103   3.575   6.764 -0.0539  0.4964 -0.6113
   91SAPS   H6R 8857   5.173   3.512   6.821 -1.8030 -0.0097  1.0835
   91SAPS   C27 8858   5.017   3.648   6.864 -0.0209  0.3363  0.4462
   91SAPS   H7R 8859   4.978   3.746   6.830 -0.8072  1.1900  3.5401
   91SAPS   H7S 8860   5.084   3.674   6.949  0.5488  2.2164 -0.5219
   91SAPS   C28 8861   4.901   3.565   6.915  0.7403  0.0493 -0.4613
   91SAPS   H8R 8862   4.841   3.521   6.835  0.8962 -2.1605  0.5594
   91SAPS   C29 8863   4.863   3.543   7.040 -0.1360  0.3140  0.4251
   91SAPS   H9R 8864   4.773   3.481   7.055 -1.5400  2.4437  1.2123
   91SAPS  C210 8865   4.936   3.588   7.164 -0.1678 -0.2623  0.5280
   91SAPS  H10R 8866   4.993   3.681   7.142  2.6425 -2.3536 -1.6770
   91SAPS  H10S 8867   5.023   3.520   7.171 -0.3338 -0.3998  1.3821
   91SAPS  C211 8868   4.859   3.632   7.291 -0.7750 -0.0242 -0.2706
   91SAPS  H11R 8869   4.782   3.709   7.279 -1.2090 -0.5263 -0.7359
   91SAPS  C212 8870   4.866   3.565   7.407 -0.1553 -0.2384  0.3254
   91SAPS  H12R 8871   4.816   3.602   7.497 -1.2946 -2.5766  0.7442
   91SAPS  C213 8872   4.948   3.436   7.436 -0.0407 -0.1832  0.7682
   91SAPS  H13R 8873   5.032   3.468   7.501  0.4837 -1.1136  0.5714
   91SAPS  H13S 8874   4.989   3.388   7.344 -0.3183 -2.1802  1.6344
   91SAPS  C214 8875   4.870   3.320   7.500  0.3376 -0.4390  0.7796
   91SAPS  H14R 8876   4.876   3.229   7.439 -0.9841  0.9680 -1.6062
   91SAPS  C215 8877   4.784   3.322   7.604 -0.1070 -0.3077  0.6926
   91SAPS  H15R 8878   4.729   3.231   7.631 -1.6262 -0.0609 -1.3109
   91SAPS  C216 8879   4.756   3.438   7.695 -0.1034 -0.5557  0.3111
   91SAPS  H16R 8880   4.650   3.460   7.670 -0.1763 -0.4872  0.6767
   91SAPS  H16S 8881   4.815   3.531   7.683  0.3820 -0.8873  0.0853
   91SAPS  C217 8882   4.764   3.390   7.839 -0.0139 -0.5756  0.8099
   91SAPS  H17R 8883   4.693   3.308   7.867  0.0984 -0.7353  0.6269
   91SAPS  H17S 8884   4.737   3.481   7.897 -0.4852  0.8838 -1.6098
   91SAPS  C218 8885   4.910   3.363   7.869 -0.0148  0.8000  0.3313
   91SAPS  H18R 8886   4.977   3.448   7.843 -0.1273  0.5013 -0.9877
   91SAPS  H18S 8887   4.941   3.268   7.821 -0.3743  1.3509 -1.0472
   91SAPS  C219 8888   4.929   3.339   8.023 -0.3974  0.4142 -0.4835
   91SAPS  H19R 8889   4.905   3.433   8.078  0.4389 -0.9093  2.3118
   91SAPS  H19S 8890   5.034   3.330   8.055  0.4469  2.5965 -2.2893
   91SAPS  C220 8891   4.848   3.222   8.072 -0.7742  0.2621 -0.0146
   91SAPS  H20R 8892   4.742   3.253   8.060 -0.7335  0.5912  0.4703
   91SAPS  H20S 8893   4.870   3.207   8.180 -2.1285  1.3891  0.4497
   91SAPS  H20T 8894   4.869   3.126   8.020 -0.7426  0.0653  0.3581
   91SAPS   C33 8895   4.619   3.880   6.463 -0.7959 -0.1203  0.5946
   91SAPS   H3X 8896   4.520   3.867   6.415 -0.4244  1.2310 -0.6047
   91SAPS   H3Y 8897   4.622   3.986   6.495  0.5545  0.2068 -0.5350
   91SAPS   C34 8898   4.634   3.808   6.596 -0.3053 -0.5053 -0.3321
   91SAPS   H4X 8899   4.741   3.797   6.623 -0.5402 -0.3334  0.7253
   91SAPS   H4Y 8900   4.580   3.711   6.599 -1.0678 -0.0681  1.2268
   91SAPS   C35 8901   4.578   3.874   6.717 -0.5063 -0.4604  0.0441
   91SAPS   H5X 8902   4.469   3.869   6.693 -0.4368  1.6610 -1.0330
   91SAPS   H5Y 8903   4.610   3.981   6.725  3.4684 -1.3933 -1.1407
   91SAPS   C36 8904   4.602   3.795   6.841  0.1105  0.1950  0.5074
   91SAPS   H6X 8905   4.702   3.822   6.880  0.4804  0.5964 -0.7009
   91SAPS   H6Y 8906   4.599   3.685   6.825 -0.1522  0.7341 -4.9943
   91SAPS   C37 8907   4.502   3.824   6.963  0.1772 -0.4497 -0.1271
   91SAPS   H7X 8908   4.405   3.776   6.938 -0.6703  1.0049  0.2536
   91SAPS   H7Y 8909   4.492   3.934   6.972 -0.3394 -0.4323 -0.8590
   91SAPS   C38 8910   4.551   3.759   7.096  0.0511 -0.6829  1.0445
   91SAPS   H8X 8911   4.654   3.801   7.107 -0.3530  0.7701 -0.2743
   91SAPS   H8Y 8912   4.548   3.648   7.097 -0.2318 -0.6802  2.5265
   91SAPS   C39 8913   4.464   3.812   7.208 -0.1052 -0.6460 -0.4889
   91SAPS   H9X 8914   4.357   3.794   7.180 -0.7947  3.3519 -0.9812
   91SAPS   H9Y 8915   4.482   3.920   7.223 -0.0575 -0.7392  0.1324
   91SAPS  C310 8916   4.493   3.738   7.337 -1.1680 -0.0386  0.0869
   91SAPS  H10X 8917   4.603   3.734   7.353 -1.1217  0.1444 -0.1838
   91SAPS  H10Y 8918   4.473   3.632   7.308 -0.9053 -0.6587  2.0265
   91SAPS  C311 8919   4.422   3.783   7.461 -0.8706  0.2598  0.9026
   91SAPS  H11X 8920   4.320   3.797   7.417  0.2717 -0.5793 -2.3007
   91SAPS  H11Y 8921   4.452   3.884   7.495 -0.2095 -0.6777  3.3118
   91SAPS  C312 8922   4.451   3.681   7.576  0.4115 -0.0832  1.1490
   91SAPS  H12X 8923   4.550   3.717   7.610  1.3269 -1.9186  0.4983
   91SAPS  H12Y 8924   4.443   3.580   7.531 -0.1882  1.1650 -1.7710
   91SAPS  C313 8925   4.349   3.696   7.687  0.4597 -0.0303  0.1479
   91SAPS  H13X 8926   4.277   3.613   7.671  2.1437 -1.0684 -2.9305
   91SAPS  H13Y 8927   4.292   3.791   7.684  2.2396  1.0665 -0.7624
   91SAPS  C314 8928   4.423   3.689   7.822  0.6874 -0.1769  0.7236
   91SAPS  H14X 8929   4.472   3.787   7.841  2.3651 -0.7828 -0.2370
   91SAPS  H14Y 8930   4.492   3.602   7.829 -0.0174 -0.6731  1.8001
   91SAPS  C315 8931   4.322   3.654   7.934 -0.7950 -0.0303  1.0107
   91SAPS  H15X 8932   4.286   3.550   7.918 -0.0645 -0.2570  0.7894
   91SAPS  H15Y 8933   4.235   3.722   7.917 -0.9083 -0.8909 -2.6555
   91SAPS  C316 8934   4.372   3.666   8.074 -0.4049  0.8151  0.3249
   91SAPS  H16X 8935   4.294   3.632   8.145 -0.2037 -0.2095  0.0721
   91SAPS  H16Y 8936   4.396   3.770   8.107  1.3988  1.8786 -3.6267
   91SAPS  C317 8937   4.497   3.576   8.092 -0.1648  0.0689 -0.2415
   91SAPS  H17X 8938   4.585   3.610   8.033  1.4636 -2.3890  0.6368
   91SAPS  H17Y 8939   4.479   3.468   8.075  2.2058 -0.2436 -1.2062
   91SAPS  C318 8940   4.550   3.596   8.238 -0.1721 -0.6138  0.4560
   91SAPS  H18X 8941   4.558   3.705   8.255 -1.3873 -0.1023 -1.8472
   91SAPS  H18Y 8942   4.637   3.533   8.268 -1.5614 -1.7681  2.3519
   91SAPS  H18Z 8943   4.476   3.560   8.313 -0.4925 -1.8158 -0.4095
   92SAPS     N 8944   2.672   6.736   6.372  0.5605  0.6113  0.2342
   92SAPS   HN1 8945   2.612   6.822   6.371  0.4430  0.5329  0.4719
   92SAPS   HN2 8946   2.717   6.716   6.464  1.0601 -0.1231 -0.1675
   92SAPS   HN3 8947   2.752   6.764   6.312  0.0662  3.0724  0.6021
   92SAPS   C12 8948   2.615   6.608   6.322  0.1272  0.0166 -0.7498
   92SAPS  H12A 8949   2.526   6.584   6.378  0.9748 -0.9427  0.2113
   92SAPS   C13 8950   2.573   6.612   6.169 -0.3805  0.2883 -0.1673
   92SAPS  O13A 8951   2.573   6.716   6.104  0.1894 -0.4924 -0.6678
   92SAPS  O13B 8952   2.537   6.506   6.116 -0.3351  0.4834  0.3974
   92SAPS   C11 8953   2.724   6.503   6.343 -0.3179 -0.3200 -0.1563
   92SAPS  H11A 8954   2.800   6.529   6.267 -1.0243  1.6540 -0.2459
   92SAPS  H11B 8955   2.688   6.400   6.321  1.6639 -0.7937 -1.3807
   92SAPS     P 8956   2.926   6.428   6.486  0.2073  0.0887 -0.4267
   92SAPS   O13 8957   2.908   6.286   6.518 -0.0841 -0.0854 -0.4915
   92SAPS   O14 8958   3.010   6.454   6.370  0.4570 -0.3839 -0.3577
   92SAPS   O12 8959   2.785   6.507   6.474 -0.2762  0.5865 -0.1892
   92SAPS   O11 8960   2.989   6.501   6.612  0.4394  0.0131 -0.0211
   92SAPS    C1 8961   2.951   6.484   6.745 -0.1175 -0.0072 -0.0272
   92SAPS    HA 8962   2.924   6.378   6.766 -0.2630 -0.5629 -2.6703
   92SAPS    HB 8963   3.044   6.502   6.802 -0.5967  1.3249  0.3597
   92SAPS    C2 8964   2.832   6.584   6.781  0.0802  0.4443 -0.1006
   92SAPS    HS 8965   2.774   6.607   6.689 -0.9293  2.3690  0.9481
   92SAPS   O21 8966   2.892   6.705   6.843 -0.1070  0.2134  0.2370
   92SAPS   C21 8967   2.826   6.810   6.809  0.4910 -0.4272  0.1921
   92SAPS   O22 8968   2.745   6.821   6.716  0.3505 -0.7935 -0.1443
   92SAPS   C22 8969   2.866   6.923   6.907 -0.1117  0.2644  0.0747
   92SAPS   H2R 8970   2.928   6.880   6.989 -0.8162 -0.4622  0.2324
   92SAPS   H2S 8971   2.922   6.996   6.844  1.7023 -0.1045  1.1679
   92SAPS    C3 8972   2.724   6.515   6.877 -0.3981  0.4862  0.2776
   92SAPS    HX 8973   2.700   6.418   6.829  0.1841  1.1248 -1.4120
   92SAPS    HY 8974   2.634   6.581   6.880 -1.2642 -0.4394 -2.2906
   92SAPS   O31 8975   2.784   6.502   7.006  0.1518 -0.1009  0.1627
   92SAPS   C31 8976   2.752   6.593   7.097 -0.3433 -0.0996  0.6635
   92SAPS   O32 8977   2.659   6.667   7.085  0.7116 -0.4374 -0.4823
   92SAPS   C32 8978   2.860   6.591   7.204  0.1160  0.2481 -0.2920
   92SAPS   H2X 8979   2.948   6.547   7.153  0.9870  0.5192  0.9515
   92SAPS   H2Y 8980   2.828   6.522   7.284  0.1643  0.4599 -0.0879
   92SAPS   C23 8981   2.738   6.992   6.955 -0.6993  0.4944  0.1862
   92SAPS   H3R 8982   2.669   6.918   7.003  0.4561 -0.7126  0.0412
   92SAPS   H3S 8983   2.679   7.030   6.869 -2.0419  0.4767  1.0662
   92SAPS   C24 8984   2.760   7.110   7.052 -0.0707 -0.1777  0.3562
   92SAPS   H4R 8985   2.841   7.172   7.007 -0.2927  1.3203  1.9321
   92SAPS   H4S 8986   2.803   7.076   7.148 -0.5310  1.7428  1.3015
   92SAPS   C25 8987   2.637   7.186   7.082  0.4594  0.0913  0.0039
   92SAPS   H5R 8988   2.554   7.134   7.132  0.7406  0.3362  0.7277
   92SAPS   C26 8989   2.622   7.317   7.062  0.2428  0.0423  0.2313
   92SAPS   H6R 8990   2.520   7.358   7.063  0.3755  0.6658 -2.7122
   92SAPS   C27 8991   2.727   7.417   7.015  0.1587  0.2876  0.6783
   92SAPS   H7R 8992   2.800   7.372   6.945 -0.7431 -2.1790  1.2313
   92SAPS   H7S 8993   2.794   7.450   7.098 -1.3509 -0.1937  2.1447
   92SAPS   C28 8994   2.678   7.551   6.957 -0.1012  0.6243  0.0563
   92SAPS   H8R 8995   2.688   7.563   6.848 -1.9431  0.4701 -0.1628
   92SAPS   C29 8996   2.611   7.649   7.030  0.1204 -0.7553  0.0635
   92SAPS   H9R 8997   2.575   7.743   6.987 -1.6445 -1.1927  0.4932
   92SAPS  C210 8998   2.582   7.645   7.182  0.7442 -0.2162  0.3567
   92SAPS  H10R 8999   2.677   7.624   7.237  1.6251  0.7889 -0.7195
   92SAPS  H10S 9000   2.520   7.558   7.214 -0.1701 -0.0826 -0.9847
   92SAPS  C211 9001   2.518   7.774   7.228 -0.6757 -0.0273  0.6806
   92SAPS  H11R 9002   2.426   7.805   7.178 -0.3927 -0.1422  0.0767
   92SAPS  C212 9003   2.560   7.839   7.339  0.4071 -0.2565 -0.4024
   92SAPS  H12R 9004   2.514   7.935   7.366 -0.4913 -0.5533 -0.8716
   92SAPS  C213 9005   2.674   7.801   7.429  0.0804 -0.6655 -0.1284
   92SAPS  H13R 9006   2.735   7.892   7.445  0.5656 -0.5037 -2.4697
   92SAPS  H13S 9007   2.747   7.731   7.381  1.9315  0.5944  0.7258
   92SAPS  C214 9008   2.626   7.745   7.562 -0.0319 -0.3900 -0.2140
   92SAPS  H14R 9009   2.521   7.712   7.569 -0.3450  0.8658  1.6711
   92SAPS  C215 9010   2.704   7.744   7.675  0.0448  0.5908 -0.4692
   92SAPS  H15R 9011   2.669   7.691   7.764  0.3236  2.0902  0.5785
   92SAPS  C216 9012   2.847   7.789   7.669 -0.2582 -1.3119  0.2904
   92SAPS  H16R 9013   2.864   7.884   7.614  0.5620 -1.4486  0.2991
   92SAPS  H16S 9014   2.903   7.710   7.616 -0.2138 -1.6651  0.8552
   92SAPS  C217 9015   2.911   7.809   7.804 -0.1631 -0.1835 -0.5965
   92SAPS  H17R 9016   2.935   7.703   7.826 -0.1624 -0.1018 -0.1940
   92SAPS  H17S 9017   2.845   7.853   7.881 -0.9211 -1.6002 -0.4031
   92SAPS  C218 9018   3.046   7.875   7.796  0.0734  0.8620  0.3239
   92SAPS  H18R 9019   3.043   7.981   7.762 -2.6282  0.2417 -1.6825
   92SAPS  H18S 9020   3.113   7.830   7.720  1.4212  2.3910  0.5446
   92SAPS  C219 9021   3.126   7.877   7.926  0.6094  0.8092 -0.1779
   92SAPS  H19R 9022   3.089   7.793   7.988  0.2134 -0.6443 -2.2828
   92SAPS  H19S 9023   3.119   7.979   7.970 -0.8436  1.2101 -1.2723
   92SAPS  C220 9024   3.274   7.837   7.901  1.0371  0.1879 -0.2685
   92SAPS  H20R 9025   3.325   7.849   7.999 -0.7932  2.2082  0.5059
   92SAPS  H20S 9026   3.323   7.898   7.823  2.5971  0.3418  0.7952
   92SAPS  H20T 9027   3.285   7.729   7.874  2.8310 -0.2864  2.0619
   92SAPS   C33 9028   2.889   6.732   7.264 -0.2889  0.6253 -0.3331
   92SAPS   H3X 9029   2.887   6.821   7.197 -1.3266  0.2689 -0.7837
   92SAPS   H3Y 9030   2.997   6.724   7.291 -0.5390  0.0092  0.5184
   92SAPS   C34 9031   2.793   6.752   7.379 -0.4176 -0.2024 -0.0540
   92SAPS   H4X 9032   2.813   6.670   7.451 -3.4934 -0.9169  0.1288
   92SAPS   H4Y 9033   2.689   6.734   7.343 -0.2283 -0.0990 -0.6749
   92SAPS   C35 9034   2.793   6.895   7.431  0.6901 -0.1716  0.1413
   92SAPS   H5X 9035   2.803   6.961   7.342 -1.4292  0.1001  0.0427
   92SAPS   H5Y 9036   2.887   6.906   7.489  2.0195  3.4028 -2.3638
   92SAPS   C36 9037   2.676   6.941   7.517 -0.1361  0.2761 -0.2401
   92SAPS   H6X 9038   2.579   6.898   7.483 -2.0079  1.3198  3.2431
   92SAPS   H6Y 9039   2.658   7.049   7.498 -0.1175 -0.1193 -2.9468
   92SAPS   C37 9040   2.700   6.917   7.669 -0.8492 -0.0580  0.5652
   92SAPS   H7X 9041   2.787   6.981   7.696  0.5389 -1.7078  0.1585
   92SAPS   H7Y 9042   2.739   6.817   7.694 -2.2911 -0.5962  0.7597
   92SAPS   C38 9043   2.592   6.948   7.772  0.1415  0.9328  0.4172
   92SAPS   H8X 9044   2.504   6.882   7.759  2.4069 -1.7168 -3.5617
   92SAPS   H8Y 9045   2.554   7.052   7.764 -0.6201  0.5909 -0.6330
   92SAPS   C39 9046   2.638   6.928   7.915 -0.4315 -0.0085 -0.7080
   92SAPS   H9X 9047   2.732   6.985   7.924 -1.0794  0.8813  0.7814
   92SAPS   H9Y 9048   2.664   6.821   7.932 -0.2672  0.3497  1.5752
   92SAPS  C310 9049   2.539   6.979   8.022 -0.0795 -0.5489  0.0977
   92SAPS  H10X 9050   2.443   6.923   8.022 -0.7005  0.5086  0.1746
   92SAPS  H10Y 9051   2.524   7.088   8.007  2.1231 -0.3070 -0.7623
   92SAPS  C311 9052   2.597   6.970   8.160 -0.0294  0.2862 -0.3751
   92SAPS  H11X 9053   2.632   6.866   8.181 -2.8781 -0.4773  1.0125
   92SAPS  H11Y 9054   2.523   6.991   8.240  0.8301 -0.6121  0.6939
   92SAPS  C312 9055   2.724   7.048   8.195 -0.1428  0.1640  0.3497
   92SAPS  H12X 9056   2.803   7.028   8.119  0.9023  2.8709  0.5827
   92SAPS  H12Y 9057   2.764   7.003   8.287  1.8326  1.1968  0.0575
   92SAPS  C313 9058   2.707   7.198   8.233 -0.2327  0.9799  0.5842
   92SAPS  H13X 9059   2.641   7.203   8.322 -1.7482  0.0388 -0.4340
   92SAPS  H13Y 9060   2.659   7.249   8.147  1.7740 -0.2831 -1.3966
   92SAPS  C314 9061   2.846   7.262   8.271 -0.1179 -0.4711 -0.5721
   92SAPS  H14X 9062   2.900   7.215   8.356  0.5436 -1.4322 -1.5070
   92SAPS  H14Y 9063   2.813   7.360   8.313 -2.4816 -0.6269 -1.8388
   92SAPS  C315 9064   2.937   7.283   8.146  0.0342 -0.2711 -0.9001
   92SAPS  H15X 9065   2.968   7.181   8.115  0.5605 -0.5922  0.5763
   92SAPS  H15Y 9066   3.028   7.338   8.179 -0.8554  1.8455 -1.7934
   92SAPS  C316 9067   2.876   7.373   8.041  0.4243 -0.3796  0.5572
   92SAPS  H16X 9068   2.835   7.464   8.090 -0.2860 -0.2906 -0.1822
   92SAPS  H16Y 9069   2.792   7.329   7.985  0.6131 -0.5506  0.4056
   92SAPS  C317 9070   2.963   7.430   7.921 -0.6697 -0.6546 -0.1471
   92SAPS  H17X 9071   2.898   7.495   7.859 -0.7389  1.1499  1.7172
   92SAPS  H17Y 9072   3.013   7.353   7.859 -1.7251 -0.4270 -1.3174
   92SAPS  C318 9073   3.067   7.522   7.979  0.1687 -0.4484 -0.0698
   92SAPS  H18X 9074   3.027   7.612   8.030  0.7904  0.0646 -0.4663
   92SAPS  H18Y 9075   3.144   7.547   7.903  1.1640 -0.1351  1.0150
   92SAPS  H18Z 9076   3.133   7.462   8.045 -1.4253  0.5752  2.5982
   93SAPS     N 9077   3.929   0.676   6.255 -0.0671 -0.9696 -0.3138
   93SAPS   HN1 9078   3.828   0.691   6.279 -0.2366 -0.5029 -1.2821
   93SAPS   HN2 9079   3.931   0.611   6.174 -1.2504 -1.8262  0.3057
   93SAPS   HN3 9080   3.993   0.643   6.330  0.0086  0.9096  0.5280
   93SAPS   C12 9081   3.962   0.820   6.221 -0.2097  0.2189 -0.0819
   93SAPS  H12A 9082   4.038   0.824   6.145 -0.7721 -0.9990 -0.7392
   93SAPS   C13 9083   3.843   0.891   6.152  0.0167 -0.2073  0.9380
   93SAPS  O13A 9084   3.738   0.827   6.143 -0.3997 -0.3932 -0.1463
   93SAPS  O13B 9085   3.855   1.010   6.116 -0.4640 -0.1551  0.1767
   93SAPS   C11 9086   3.994   0.899   6.351 -0.3227 -0.5325  0.5239
   93SAPS  H11A 9087   3.905   0.893   6.416  0.0681 -0.3485  1.0814
   93SAPS  H11B 9088   4.023   1.001   6.319 -0.9254 -0.1373  1.2176
   93SAPS     P 9089   4.167   0.928   6.549  0.3026  0.0194 -0.0579
   93SAPS   O13 9090   4.271   0.836   6.608  0.3430 -0.0825  0.1142
   93SAPS   O14 9091   4.212   1.059   6.493  0.3662 -0.0672 -0.2426
   93SAPS   O12 9092   4.092   0.841   6.428  0.3261  0.0437 -0.3999
   93SAPS   O11 9093   4.035   0.947   6.637  0.1700 -0.0475 -0.1881
   93SAPS    C1 9094   3.969   1.069   6.670  0.2167  0.0226 -0.3618
   93SAPS    HA 9095   3.983   1.134   6.581  0.2575  0.7226  0.1509
   93SAPS    HB 9096   3.862   1.043   6.684  0.2523  1.3523  3.4428
   93SAPS    C2 9097   4.027   1.123   6.808 -0.5044  0.3506  0.1935
   93SAPS    HS 9098   3.964   1.211   6.831  0.0810  1.7110 -2.9306
   93SAPS   O21 9099   4.163   1.174   6.787 -0.3059 -0.0132 -0.1391
   93SAPS   C21 9100   4.178   1.284   6.723  0.5151 -0.3056  0.6231
   93SAPS   O22 9101   4.086   1.360   6.683 -0.1095  0.0455 -0.4474
   93SAPS   C22 9102   4.319   1.327   6.687  0.4637 -0.3909  0.4455
   93SAPS   H2R 9103   4.360   1.241   6.629  1.8338  0.8057 -0.4448
   93SAPS   H2S 9104   4.305   1.401   6.605 -2.8377 -1.1699  0.1685
   93SAPS    C3 9105   4.024   1.019   6.924  0.3168  0.3447  0.2304
   93SAPS    HX 9106   4.109   0.953   6.896 -0.5595 -0.4897 -0.5483
   93SAPS    HY 9107   3.930   0.961   6.929  0.6049  0.0096  3.6027
   93SAPS   O31 9108   4.052   1.076   7.054  0.1849 -0.4522 -0.1880
   93SAPS   C31 9109   3.946   1.140   7.112 -0.3943 -0.1325 -0.1089
   93SAPS   O32 9110   3.828   1.132   7.084  0.2107  0.1711  0.6620
   93SAPS   C32 9111   3.992   1.220   7.238  1.0312  0.8406  0.3792
   93SAPS   H2X 9112   3.938   1.162   7.315  0.7463 -1.4851 -1.4865
   93SAPS   H2Y 9113   3.953   1.323   7.223  0.6594  0.5641 -0.6268
   93SAPS   C23 9114   4.413   1.358   6.807 -0.1140 -0.3459 -0.0532
   93SAPS   H3R 9115   4.515   1.359   6.763 -0.4941  3.2107 -1.1939
   93SAPS   H3S 9116   4.410   1.282   6.888  2.1087 -2.0319 -1.4418
   93SAPS   C24 9117   4.390   1.500   6.864  0.0138 -1.3724  0.4021
   93SAPS   H4R 9118   4.422   1.508   6.970 -0.7039  0.7828  0.5250
   93SAPS   H4S 9119   4.281   1.521   6.874  0.1483  0.0874 -0.7078
   93SAPS   C25 9120   4.453   1.617   6.785  0.2232 -0.0327 -1.1103
   93SAPS   H5R 9121   4.428   1.606   6.678  2.8734 -3.2448 -1.5815
   93SAPS   C26 9122   4.539   1.720   6.822  0.4435  0.3473 -0.3722
   93SAPS   H6R 9123   4.567   1.789   6.740  2.7644  1.0939  0.9628
   93SAPS   C27 9124   4.594   1.746   6.963 -0.2968  0.8394 -0.2693
   93SAPS   H7R 9125   4.631   1.647   6.997  0.2093  0.0604 -2.8894
   93SAPS   H7S 9126   4.516   1.787   7.031 -0.7241 -0.3219 -0.0399
   93SAPS   C28 9127   4.706   1.840   6.954 -1.0875 -0.4204  0.7070
   93SAPS   H8R 9128   4.714   1.893   6.858 -0.9302  2.1462  2.0571
   93SAPS   C29 9129   4.780   1.879   7.065 -0.2483  0.0694  0.0302
   93SAPS   H9R 9130   4.860   1.954   7.057  0.0709  0.1841  3.1711
   93SAPS  C210 9131   4.759   1.826   7.202 -0.1637 -0.3323  0.7208
   93SAPS  H10R 9132   4.650   1.804   7.209 -0.1350 -0.3489  1.1837
   93SAPS  H10S 9133   4.777   1.909   7.274  2.9729 -0.9714  0.7959
   93SAPS  C211 9134   4.831   1.703   7.241 -0.6080 -0.5805  0.5044
   93SAPS  H11R 9135   4.854   1.638   7.155  0.3895  2.3479 -1.6022
   93SAPS  C212 9136   4.854   1.664   7.365 -0.1860 -0.1071 -0.5049
   93SAPS  H12R 9137   4.900   1.566   7.383  1.7616  1.1538  1.9960
   93SAPS  C213 9138   4.815   1.725   7.496 -0.0532 -0.6788 -0.6097
   93SAPS  H13R 9139   4.751   1.655   7.554  0.1327 -0.3579 -0.0177
   93SAPS  H13S 9140   4.760   1.820   7.479  3.0393  1.2753 -0.5402
   93SAPS  C214 9141   4.944   1.773   7.559 -0.4087  0.3719 -0.2585
   93SAPS  H14R 9142   5.026   1.822   7.503  0.2875 -0.4816 -0.0112
   93SAPS  C215 9143   4.973   1.747   7.686 -0.3182 -0.0155  0.1195
   93SAPS  H15R 9144   5.074   1.766   7.724 -0.0057  1.4171 -1.3126
   93SAPS  C216 9145   4.883   1.693   7.800 -0.3433 -0.4248 -0.5685
   93SAPS  H16R 9146   4.904   1.584   7.810 -0.1890 -0.3595 -0.1629
   93SAPS  H16S 9147   4.774   1.711   7.792 -0.4185 -0.4232  0.3984
   93SAPS  C217 9148   4.934   1.766   7.934 -0.3224  0.5901  0.2029
   93SAPS  H17R 9149   4.944   1.876   7.919 -0.2740  0.5463 -0.1077
   93SAPS  H17S 9150   5.040   1.734   7.948  0.6931  2.7630 -1.7937
   93SAPS  C218 9151   4.870   1.717   8.060 -0.1990  0.3470 -0.3240
   93SAPS  H18R 9152   4.866   1.606   8.064  2.5746  0.2057  0.0972
   93SAPS  H18S 9153   4.764   1.748   8.047 -0.1970  0.7458  0.5024
   93SAPS  C219 9154   4.923   1.778   8.195  0.0295 -0.0805 -0.3113
   93SAPS  H19R 9155   4.956   1.878   8.160  1.2113 -0.1895  0.4112
   93SAPS  H19S 9156   5.022   1.736   8.224  1.4862  1.1301 -3.1421
   93SAPS  C220 9157   4.835   1.773   8.314 -0.0887  0.4897  0.7087
   93SAPS  H20R 9158   4.749   1.839   8.291  1.9870  2.5944 -1.6185
   93SAPS  H20S 9159   4.878   1.808   8.411  0.8181 -0.3131  0.6203
   93SAPS  H20T 9160   4.798   1.671   8.336 -0.5265  0.2055 -1.1584
   93SAPS   C33 9161   4.149   1.209   7.264 -0.4410 -0.7230  0.0728
   93SAPS   H3X 9162   4.210   1.272   7.195 -1.3302  0.7887  0.6311
   93SAPS   H3Y 9163   4.173   1.101   7.255 -2.2812 -1.1875  0.3814
   93SAPS   C34 9164   4.174   1.251   7.409 -0.2281  0.3358  0.3403
   93SAPS   H4X 9165   4.284   1.248   7.423 -0.4768  0.3865  2.7921
   93SAPS   H4Y 9166   4.132   1.170   7.473 -0.1327 -0.2915 -0.3729
   93SAPS   C35 9167   4.128   1.389   7.442  0.4039  0.3399  0.5436
   93SAPS   H5X 9168   4.019   1.373   7.460  0.6357 -3.6565 -0.6265
   93SAPS   H5Y 9169   4.150   1.467   7.366  1.1361 -0.3401  0.0476
   93SAPS   C36 9170   4.181   1.432   7.580  0.1635 -0.1327  0.5943
   93SAPS   H6X 9171   4.135   1.527   7.617  0.4205  0.0833  0.3631
   93SAPS   H6Y 9172   4.289   1.451   7.566  0.5138 -1.7985  0.9095
   93SAPS   C37 9173   4.172   1.324   7.689  0.4251  0.4695  0.1431
   93SAPS   H7X 9174   4.249   1.248   7.665  1.6888  0.4406  3.7720
   93SAPS   H7Y 9175   4.070   1.280   7.680 -0.2546  1.4447  2.3916
   93SAPS   C38 9176   4.194   1.379   7.827 -0.9847 -0.0048 -0.5352
   93SAPS   H8X 9177   4.123   1.459   7.855 -2.2507 -1.4122  0.4245
   93SAPS   H8Y 9178   4.296   1.423   7.823 -0.4968 -1.1633 -2.7166
   93SAPS   C39 9179   4.173   1.282   7.947  0.2893 -0.4761  0.2311
   93SAPS   H9X 9180   4.246   1.199   7.949  0.6115 -0.1997  2.4718
   93SAPS   H9Y 9181   4.072   1.237   7.937 -0.0273  0.0761  0.8390
   93SAPS  C310 9182   4.181   1.358   8.084 -0.1285  0.2024 -0.3759
   93SAPS  H10X 9183   4.114   1.446   8.093  1.9250  1.6491  2.2402
   93SAPS  H10Y 9184   4.277   1.412   8.095 -0.8338  1.3286  0.5186
   93SAPS  C311 9185   4.180   1.264   8.203  0.0590  0.3980 -0.5214
   93SAPS  H11X 9186   4.216   1.308   8.298 -1.6538  0.6308  0.0651
   93SAPS  H11Y 9187   4.242   1.175   8.179  1.7850  1.1542  0.9744
   93SAPS  C312 9188   4.044   1.217   8.241  0.5443  0.2968  0.0146
   93SAPS  H12X 9189   4.003   1.151   8.162  2.3465 -0.7383 -0.1174
   93SAPS  H12Y 9190   3.979   1.306   8.256 -0.0883 -0.4309  1.9786
   93SAPS  C313 9191   4.043   1.132   8.369  0.2933  0.0454 -0.1742
   93SAPS  H13X 9192   4.092   1.199   8.443 -0.4218  1.0120 -0.5547
   93SAPS  H13Y 9193   4.097   1.035   8.356  1.2832  0.4956  0.4147
   93SAPS  C314 9194   3.899   1.110   8.411  1.3339 -0.2159 -0.5941
   93SAPS  H14X 9195   3.852   1.062   8.322 -0.9519  0.8102 -0.0320
   93SAPS  H14Y 9196   3.859   1.212   8.430 -2.1134 -1.2213 -1.6664
   93SAPS  C315 9197   3.867   1.023   8.534  0.0882  0.4423 -0.5723
   93SAPS  H15X 9198   3.757   1.005   8.533  0.1393 -0.0658 -2.6493
   93SAPS  H15Y 9199   3.888   1.085   8.624 -0.5066 -0.8033  0.4450
   93SAPS  C316 9200   3.961   0.909   8.565  0.8842  0.4935 -0.3325
   93SAPS  H16X 9201   4.064   0.948   8.572  0.8824  1.0883 -2.6452
   93SAPS  H16Y 9202   3.961   0.838   8.479  1.6270 -0.5492  0.5107
   93SAPS  C317 9203   3.908   0.833   8.690 -0.0182 -1.3513  0.0508
   93SAPS  H17X 9204   3.805   0.804   8.661 -0.7661 -1.0490  2.2462
   93SAPS  H17Y 9205   3.898   0.906   8.773 -0.2376 -1.0068 -0.2714
   93SAPS  C318 9206   3.992   0.706   8.720  1.0995  0.1746 -0.3145
   93SAPS  H18X 9207   4.099   0.734   8.721  0.9537  0.7339  1.0163
   93SAPS  H18Y 9208   3.961   0.634   8.641  2.0120 -1.6537  0.9142
   93SAPS  H18Z 9209   3.948   0.665   8.813  0.3822 -0.2954 -0.8500
   94SAPS     N 9210   4.034   3.431   5.900  0.8516  0.1299  0.3557
   94SAPS   HN1 9211   3.950   3.490   5.882  1.0619  0.3086 -0.0833
   94SAPS   HN2 9212   3.996   3.336   5.911 -1.3821  0.9327  0.0437
   94SAPS   HN3 9213   4.070   3.461   5.993 -3.7062  1.4333  1.9441
   94SAPS   C12 9214   4.138   3.454   5.797  0.0957  1.2964  0.3110
   94SAPS  H12A 9215   4.226   3.407   5.840 -0.1862  0.6708  0.2067
   94SAPS   C13 9216   4.111   3.378   5.667  0.4452  0.0981  0.5486
   94SAPS  O13A 9217   3.994   3.340   5.648  0.1975  0.0991 -0.5716
   94SAPS  O13B 9218   4.198   3.365   5.578  0.8191  0.3795  0.3184
   94SAPS   C11 9219   4.167   3.603   5.771 -0.2842 -0.9568 -1.0871
   94SAPS  H11A 9220   4.084   3.648   5.713  1.4283 -0.1033 -3.0058
   94SAPS  H11B 9221   4.252   3.616   5.700  0.7122  2.9579  0.5299
   94SAPS     P 9222   4.259   3.812   5.902 -0.2204 -0.6692  0.3898
   94SAPS   O13 9223   4.400   3.777   5.928  0.4199  0.3942 -0.2271
   94SAPS   O14 9224   4.231   3.897   5.779 -0.2659 -0.0289  0.1270
   94SAPS   O12 9225   4.193   3.673   5.893 -0.6025  0.4505  0.7400
   94SAPS   O11 9226   4.203   3.867   6.035  0.1770  0.0257  0.9227
   94SAPS    C1 9227   4.202   3.776   6.140 -0.1275  0.1184  0.2916
   94SAPS    HA 9228   4.093   3.768   6.164 -1.0948  0.9163 -3.2449
   94SAPS    HB 9229   4.240   3.672   6.130  0.2547  0.1890  0.9518
   94SAPS    C2 9230   4.269   3.831   6.273 -0.1852  0.0948  0.4107
   94SAPS    HS 9231   4.374   3.795   6.273  0.1644  1.1025  0.6886
   94SAPS   O21 9232   4.199   3.800   6.392 -0.6934  0.5443 -0.8801
   94SAPS   C21 9233   4.155   3.678   6.406 -0.6327 -0.0261 -0.4001
   94SAPS   O22 9234   4.198   3.572   6.358 -0.7957 -0.3340  0.5959
   94SAPS   C22 9235   4.047   3.673   6.509 -0.1357 -0.2930 -0.2770
   94SAPS   H2R 9236   4.017   3.776   6.538  0.9580 -0.3520  1.1636
   94SAPS   H2S 9237   3.962   3.617   6.463  0.7639 -1.0758 -1.0457
   94SAPS    C3 9238   4.282   3.988   6.266 -0.1732 -0.0147 -0.0936
   94SAPS    HX 9239   4.182   4.033   6.245 -0.1265  0.3796  0.4960
   94SAPS    HY 9240   4.343   4.006   6.175 -1.0822 -0.5272 -0.8254
   94SAPS   O31 9241   4.338   4.041   6.391  0.3166  0.3599 -0.1562
   94SAPS   C31 9242   4.257   4.097   6.484 -0.4950  0.6212 -0.3396
   94SAPS   O32 9243   4.135   4.108   6.471  0.3269  0.1079  0.4980
   94SAPS   C32 9244   4.344   4.159   6.599  0.1757  0.5930  0.1341
   94SAPS   H2X 9245   4.396   4.243   6.548 -1.2496  1.3583 -0.1138
   94SAPS   H2Y 9246   4.430   4.095   6.628  0.6174  1.5680  1.0467
   94SAPS   C23 9247   4.102   3.599   6.637  0.4918  0.0893  1.1539
   94SAPS   H3R 9248   4.151   3.504   6.605  1.8218  0.5132  1.8574
   94SAPS   H3S 9249   4.014   3.557   6.690 -1.0321 -1.5486 -2.3113
   94SAPS   C24 9250   4.205   3.675   6.720 -0.0347 -0.1787 -0.0768
   94SAPS   H4R 9251   4.158   3.769   6.756 -0.8636  0.0717 -1.7128
   94SAPS   H4S 9252   4.292   3.686   6.651  1.6272 -2.6657  1.4568
   94SAPS   C25 9253   4.263   3.586   6.833  0.3339  0.3055  0.0578
   94SAPS   H5R 9254   4.370   3.572   6.815  0.1527  1.1014 -1.7742
   94SAPS   C26 9255   4.201   3.545   6.948  0.0444  0.5608 -0.0763
   94SAPS   H6R 9256   4.272   3.494   7.015  0.3965  0.1122 -0.7805
   94SAPS   C27 9257   4.059   3.573   6.992  0.2459  0.0099 -0.2796
   94SAPS   H7R 9258   4.010   3.474   7.007  0.0603  0.4027  2.0316
   94SAPS   H7S 9259   4.003   3.615   6.905 -0.8575  4.8239  2.4115
   94SAPS   C28 9260   4.064   3.654   7.116 -0.2160  0.6301 -0.5304
   94SAPS   H8R 9261   4.114   3.752   7.110  0.9335  0.1746  0.8633
   94SAPS   C29 9262   4.019   3.612   7.239  0.3879 -0.0811  0.1025
   94SAPS   H9R 9263   4.019   3.688   7.318 -0.9783  0.9977 -0.8805
   94SAPS  C210 9264   3.953   3.482   7.274  0.3808  0.5977 -0.2905
   94SAPS  H10R 9265   3.924   3.424   7.183  0.5394  1.0165 -0.6121
   94SAPS  H10S 9266   3.850   3.498   7.313  0.3568 -1.9816  0.8813
   94SAPS  C211 9267   4.037   3.401   7.369  0.1023 -0.8007  0.2561
   94SAPS  H11R 9268   4.099   3.327   7.317  1.7305 -0.8213  2.0824
   94SAPS  C212 9269   4.036   3.409   7.505  1.2416 -0.4939  0.2700
   94SAPS  H12R 9270   4.102   3.349   7.569  1.4506 -0.2140  0.3184
   94SAPS  C213 9271   3.957   3.506   7.585 -0.7697 -0.3396 -0.2756
   94SAPS  H13R 9272   3.937   3.599   7.528 -0.0990 -0.1883 -0.2693
   94SAPS  H13S 9273   4.029   3.524   7.667 -0.1729  0.5747 -0.9755
   94SAPS  C214 9274   3.840   3.428   7.629 -0.3419 -0.1020 -0.5176
   94SAPS  H14R 9275   3.785   3.376   7.549 -0.6223  0.1564 -0.4935
   94SAPS  C215 9276   3.791   3.432   7.759 -1.0391 -0.5892  0.0670
   94SAPS  H15R 9277   3.692   3.388   7.778 -1.5293  0.2662 -0.3979
   94SAPS  C216 9278   3.855   3.496   7.877  0.2966  0.3623  0.1136
   94SAPS  H16R 9279   3.784   3.559   7.936 -0.8345 -1.3018  0.5814
   94SAPS  H16S 9280   3.932   3.576   7.860 -0.2014  1.5647  2.9470
   94SAPS  C217 9281   3.924   3.393   7.975 -0.2063 -0.1034  0.5514
   94SAPS  H17R 9282   3.979   3.325   7.906  0.3617  0.8511  0.0285
   94SAPS  H17S 9283   3.851   3.339   8.038 -0.2059  0.1527  0.7733
   94SAPS  C218 9284   4.010   3.467   8.076  0.7688  0.1945  0.2831
   94SAPS  H18R 9285   3.942   3.540   8.125 -1.3992 -0.0538 -2.1680
   94SAPS  H18S 9286   4.089   3.523   8.023 -1.1005  3.8195  0.9776
   94SAPS  C219 9287   4.064   3.368   8.182 -0.7640  0.2080  0.1148
   94SAPS  H19R 9288   4.168   3.349   8.148 -1.3638 -0.2448 -1.5724
   94SAPS  H19S 9289   3.995   3.281   8.180 -1.7487  0.9913 -0.6432
   94SAPS  C220 9290   4.055   3.428   8.318 -0.3675  0.2800 -0.0008
   94SAPS  H20R 9291   4.097   3.358   8.394 -1.1216 -1.4797 -1.1523
   94SAPS  H20S 9292   3.956   3.473   8.341 -0.6642 -0.2239 -0.2953
   94SAPS  H20T 9293   4.130   3.510   8.316 -1.4099  1.2446 -1.0807
   94SAPS   C33 9294   4.265   4.215   6.719  0.4153 -0.5677 -0.1460
   94SAPS   H3X 9295   4.165   4.251   6.688  1.3536  0.3805 -2.2631
   94SAPS   H3Y 9296   4.325   4.300   6.756 -1.0646  0.3488  0.1991
   94SAPS   C34 9297   4.253   4.097   6.825 -0.1029  0.0003 -0.1443
   94SAPS   H4X 9298   4.360   4.069   6.837  0.3005  1.1188 -1.0386
   94SAPS   H4Y 9299   4.188   4.016   6.784  0.4023  0.5962 -2.2351
   94SAPS   C35 9300   4.190   4.150   6.945 -0.3371  0.3060  0.0695
   94SAPS   H5X 9301   4.093   4.195   6.918 -0.2874  1.6499  1.9371
   94SAPS   H5Y 9302   4.246   4.239   6.983 -0.7414  0.9607 -0.8465
   94SAPS   C36 9303   4.167   4.046   7.055 -0.4251  0.4508  0.1448
   94SAPS   H6X 9304   4.270   4.005   7.065 -0.1465  0.4014 -2.1855
   94SAPS   H6Y 9305   4.101   3.970   7.008  1.2290 -1.4854  0.8025
   94SAPS   C37 9306   4.114   4.109   7.180 -0.0911  0.0009 -0.2597
   94SAPS   H7X 9307   4.009   4.138   7.160  0.5179  1.2779 -1.8735
   94SAPS   H7Y 9308   4.172   4.200   7.209 -2.2242  1.9294 -1.6924
   94SAPS   C38 9309   4.111   4.008   7.299 -0.4788 -0.1350 -0.1260
   94SAPS   H8X 9310   4.217   3.977   7.314 -0.4177  0.2808  0.3441
   94SAPS   H8Y 9311   4.055   3.914   7.280  1.0185 -1.4360  1.4591
   94SAPS   C39 9312   4.061   4.062   7.434  0.6155 -0.0824 -0.2640
   94SAPS   H9X 9313   3.961   4.107   7.415  0.4790  0.0465  0.7526
   94SAPS   H9Y 9314   4.125   4.150   7.457  2.5337 -1.1650 -1.1530
   94SAPS  C310 9315   4.062   3.959   7.547 -0.3257 -0.3895 -0.6237
   94SAPS  H10X 9316   4.169   3.942   7.573 -0.6877 -1.0685  0.4912
   94SAPS  H10Y 9317   4.025   3.862   7.508 -0.5750 -0.2793 -0.6649
   94SAPS  C311 9318   3.981   3.989   7.677 -0.0697 -0.0422  0.4100
   94SAPS  H11X 9319   3.876   3.975   7.643 -0.0130  0.4790  0.0192
   94SAPS  H11Y 9320   3.999   4.094   7.708  0.5425  0.1908 -0.6914
   94SAPS  C312 9321   3.999   3.893   7.802  0.3482 -0.3543 -0.1584
   94SAPS  H12X 9322   4.106   3.895   7.834  0.9951  1.6436 -2.1002
   94SAPS  H12Y 9323   3.973   3.793   7.762 -0.0060  0.4055 -1.9246
   94SAPS  C313 9324   3.913   3.927   7.920  0.6409  0.3948  0.1009
   94SAPS  H13X 9325   3.814   3.932   7.871  0.3096 -0.8028  0.6386
   94SAPS  H13Y 9326   3.948   4.025   7.960 -1.4922  1.2401  0.0408
   94SAPS  C314 9327   3.916   3.823   8.035  0.4012  0.2638  0.5187
   94SAPS  H14X 9328   4.021   3.804   8.068  0.1705  1.6645  2.1509
   94SAPS  H14Y 9329   3.880   3.725   7.996 -0.6918  1.5962 -2.0223
   94SAPS  C315 9330   3.821   3.862   8.152 -0.0039 -0.0746  0.1857
   94SAPS  H15X 9331   3.716   3.887   8.126 -0.1346 -1.2451 -0.4839
   94SAPS  H15Y 9332   3.852   3.957   8.202 -0.1183 -0.3809  0.8421
   94SAPS  C316 9333   3.821   3.754   8.265 -0.2206 -0.7445 -0.3585
   94SAPS  H16X 9334   3.925   3.729   8.296 -0.2161  1.0813  1.3226
   94SAPS  H16Y 9335   3.781   3.655   8.234  0.0133 -1.7542  2.2608
   94SAPS  C317 9336   3.733   3.795   8.394  0.0073 -0.0474  1.0076
   94SAPS  H17X 9337   3.693   3.717   8.462 -0.3247 -1.1695 -0.4215
   94SAPS  H17Y 9338   3.643   3.852   8.360 -0.9017 -1.4022  1.0363
   94SAPS  C318 9339   3.807   3.879   8.495 -0.0351  0.1239 -0.0378
   94SAPS  H18X 9340   3.849   3.972   8.451  2.5258 -0.8836  0.0736
   94SAPS  H18Y 9341   3.882   3.811   8.542  0.2305  0.0385 -0.5756
   94SAPS  H18Z 9342   3.742   3.918   8.576  0.3162 -0.9228  0.7788
   95SAPS     N 9343   0.763   1.288   6.347  0.5351 -0.8716 -0.0204
   95SAPS   HN1 9344   0.808   1.346   6.420 -2.3795  0.0481  1.2197
   95SAPS   HN2 9345   0.672   1.333   6.324 -0.2036 -1.9935  0.5697
   95SAPS   HN3 9346   0.751   1.194   6.391  1.0199 -0.4972  0.9426
   95SAPS   C12 9347   0.844   1.278   6.221  0.3973 -0.1503 -0.4462
   95SAPS  H12A 9348   0.909   1.195   6.243  0.4739 -0.0859 -0.4315
   95SAPS   C13 9349   0.759   1.235   6.092  0.7407  0.0823 -0.4717
   95SAPS  O13A 9350   0.636   1.212   6.104 -0.4582 -0.1940  0.1213
   95SAPS  O13B 9351   0.824   1.218   5.990 -0.6041 -0.1949 -0.8383
   95SAPS   C11 9352   0.932   1.405   6.205  0.3652  0.0022  0.0734
   95SAPS  H11A 9353   0.858   1.489   6.210  0.3812  0.0387 -0.2757
   95SAPS  H11B 9354   0.963   1.402   6.098 -1.6908 -0.3370 -0.5727
   95SAPS     P 9355   1.161   1.483   6.292  0.0528  0.3496  0.5232
   95SAPS   O13 9356   1.271   1.394   6.247 -0.2062  0.1124 -0.0545
   95SAPS   O14 9357   1.142   1.594   6.200  0.5297 -0.6977 -0.0206
   95SAPS   O12 9358   1.032   1.403   6.307 -1.0513 -0.4657  0.6487
   95SAPS   O11 9359   1.196   1.533   6.434 -0.1631 -0.3776 -0.4211
   95SAPS    C1 9360   1.088   1.581   6.511 -0.0412  0.4865 -0.5870
   95SAPS    HA 9361   1.103   1.690   6.529 -1.6237  0.4769  1.0960
   95SAPS    HB 9362   0.990   1.574   6.460  0.0622  1.0296 -0.8718
   95SAPS    C2 9363   1.085   1.499   6.652 -0.4908 -0.2797  0.0699
   95SAPS    HS 9364   1.074   1.392   6.624 -1.3889 -0.1408 -0.1438
   95SAPS   O21 9365   0.967   1.544   6.727 -0.1470 -1.3896  0.6490
   95SAPS   C21 9366   0.852   1.517   6.673  1.0259 -0.1597  0.1878
   95SAPS   O22 9367   0.829   1.432   6.585  0.3321 -0.9910 -0.6230
   95SAPS   C22 9368   0.748   1.599   6.744  0.6908 -0.5345 -0.8132
   95SAPS   H2R 9369   0.680   1.535   6.803  1.4704 -0.0994  0.6040
   95SAPS   H2S 9370   0.797   1.665   6.818 -0.4080 -1.6671  0.9841
   95SAPS    C3 9371   1.214   1.508   6.734 -0.1264 -0.0836  0.3419
   95SAPS    HX 9372   1.225   1.619   6.741 -0.2866 -0.0180 -0.3846
   95SAPS    HY 9373   1.306   1.479   6.679 -0.7802  2.4548 -2.2996
   95SAPS   O31 9374   1.204   1.431   6.857  0.1038 -0.4986 -1.4441
   95SAPS   C31 9375   1.272   1.483   6.955  0.3002 -0.0058 -0.0115
   95SAPS   O32 9376   1.335   1.588   6.947  0.5900  0.2187 -0.2531
   95SAPS   C32 9377   1.242   1.404   7.072 -0.4634 -0.3935  0.1669
   95SAPS   H2X 9378   1.276   1.300   7.053  0.9243 -0.0569  0.7114
   95SAPS   H2Y 9379   1.131   1.402   7.080 -0.6942  2.2614 -1.1236
   95SAPS   C23 9380   0.657   1.674   6.647  0.1597  0.4989 -0.4033
   95SAPS   H3R 9381   0.617   1.593   6.583  0.4142 -1.2089  1.4961
   95SAPS   H3S 9382   0.725   1.737   6.586  0.2501  0.5863 -0.2134
   95SAPS   C24 9383   0.543   1.756   6.712  0.4709  0.0669  0.4100
   95SAPS   H4R 9384   0.486   1.819   6.640 -0.4914 -0.5564  0.6090
   95SAPS   H4S 9385   0.584   1.824   6.790 -2.1095 -0.6733  2.5561
   95SAPS   C25 9386   0.452   1.662   6.783  0.0697 -0.5140 -0.1692
   95SAPS   H5R 9387   0.377   1.603   6.729 -0.9229  1.1769 -0.7143
   95SAPS   C26 9388   0.446   1.644   6.919  0.0939 -0.2585  0.4467
   95SAPS   H6R 9389   0.371   1.574   6.960 -2.4594 -0.2638 -3.6431
   95SAPS   C27 9390   0.531   1.702   7.021 -0.0670  0.0985 -0.2177
   95SAPS   H7R 9391   0.470   1.785   7.062 -0.9801  0.1816 -1.6626
   95SAPS   H7S 9392   0.617   1.744   6.964  0.5704  2.0114  2.0154
   95SAPS   C28 9393   0.585   1.616   7.129 -0.7486  0.2375  0.1682
   95SAPS   H8R 9394   0.656   1.543   7.089 -1.6485 -1.2893  1.2118
   95SAPS   C29 9395   0.547   1.607   7.256  0.2064  0.1014 -0.2139
   95SAPS   H9R 9396   0.579   1.517   7.311  0.3793  0.2613 -0.0514
   95SAPS  C210 9397   0.441   1.688   7.324  0.8046 -0.1166 -0.0801
   95SAPS  H10R 9398   0.365   1.614   7.357 -2.1852  2.1388 -1.3936
   95SAPS  H10S 9399   0.382   1.751   7.254 -2.3624 -1.8954  0.7629
   95SAPS  C211 9400   0.471   1.773   7.445 -0.6430 -0.0011 -0.3675
   95SAPS  H11R 9401   0.492   1.877   7.418  2.9120 -0.1570  1.2871
   95SAPS  C212 9402   0.485   1.727   7.575  0.0653  0.7579  0.9175
   95SAPS  H12R 9403   0.517   1.794   7.656  2.5077 -0.0299  0.6966
   95SAPS  C213 9404   0.474   1.580   7.618 -0.3442 -0.2874  0.4453
   95SAPS  H13R 9405   0.392   1.526   7.568 -2.0119  1.6399  0.9449
   95SAPS  H13S 9406   0.448   1.585   7.726 -0.0294 -2.1472  0.6311
   95SAPS  C214 9407   0.606   1.514   7.609  0.5635  0.1893  0.2338
   95SAPS  H14R 9408   0.657   1.527   7.512 -0.0197 -4.0444 -0.8747
   95SAPS  C215 9409   0.668   1.435   7.704 -0.8007  0.1199 -0.3262
   95SAPS  H15R 9410   0.756   1.380   7.667 -2.4228 -2.4105 -0.6686
   95SAPS  C216 9411   0.619   1.399   7.839  0.4148 -0.0609 -0.3602
   95SAPS  H16R 9412   0.615   1.289   7.847 -3.8260 -0.0157  0.4706
   95SAPS  H16S 9413   0.518   1.438   7.862  1.0462  0.7474  1.2507
   95SAPS  C217 9414   0.712   1.443   7.956 -0.5542  0.1739  0.2563
   95SAPS  H17R 9415   0.732   1.553   7.950 -1.7195  0.4189  0.5939
   95SAPS  H17S 9416   0.807   1.385   7.946  0.8617  2.6377 -2.2609
   95SAPS  C218 9417   0.644   1.418   8.088 -0.7381  0.1407  0.0247
   95SAPS  H18R 9418   0.624   1.310   8.105 -0.7531  0.4186  1.9697
   95SAPS  H18S 9419   0.545   1.468   8.091 -1.5553 -1.4487  2.6420
   95SAPS  C219 9420   0.718   1.456   8.216 -0.0736 -0.3794 -0.3388
   95SAPS  H19R 9421   0.651   1.452   8.305  0.0723  0.6640 -0.1611
   95SAPS  H19S 9422   0.745   1.563   8.205 -1.3902  0.1202  0.9406
   95SAPS  C220 9423   0.843   1.377   8.240  0.3876 -0.6445  0.0845
   95SAPS  H20R 9424   0.825   1.270   8.216  0.1511 -0.4579 -0.5990
   95SAPS  H20S 9425   0.891   1.378   8.340 -0.0468 -0.4315  0.2901
   95SAPS  H20T 9426   0.916   1.410   8.163  0.1799 -2.5486 -1.0132
   95SAPS   C33 9427   1.308   1.449   7.200  0.0403  0.2464 -0.2711
   95SAPS   H3X 9428   1.265   1.550   7.213 -0.4527 -0.0986  0.8643
   95SAPS   H3Y 9429   1.419   1.459   7.203 -0.0425  1.0535  1.4980
   95SAPS   C34 9430   1.267   1.367   7.313  0.1681  0.4809 -0.5169
   95SAPS   H4X 9431   1.303   1.264   7.291  0.0794  0.7280 -1.9187
   95SAPS   H4Y 9432   1.157   1.380   7.317  0.3792  2.6823 -0.7586
   95SAPS   C35 9433   1.324   1.399   7.444 -0.6499 -0.4751  0.1018
   95SAPS   H5X 9434   1.317   1.510   7.453 -1.5381 -0.5560  0.4870
   95SAPS   H5Y 9435   1.435   1.390   7.447 -0.4508  1.6297  1.1990
   95SAPS   C36 9436   1.277   1.331   7.574  0.3282  0.0200  0.0219
   95SAPS   H6X 9437   1.308   1.224   7.573 -1.2049 -0.4437 -0.8273
   95SAPS   H6Y 9438   1.166   1.322   7.576  0.3044 -0.0040 -0.9120
   95SAPS   C37 9439   1.332   1.396   7.703 -0.0381  0.9239  0.5126
   95SAPS   H7X 9440   1.316   1.506   7.697 -0.2776  0.8248 -0.7848
   95SAPS   H7Y 9441   1.439   1.371   7.721  0.5491  1.5754 -1.8419
   95SAPS   C38 9442   1.256   1.351   7.826  0.4737  0.1591  0.1183
   95SAPS   H8X 9443   1.224   1.246   7.812 -0.0767  0.4870 -1.1895
   95SAPS   H8Y 9444   1.160   1.407   7.834  0.3917  0.0880 -0.3763
   95SAPS   C39 9445   1.328   1.350   7.967  0.2981 -0.1972  0.2692
   95SAPS   H9X 9446   1.354   1.453   7.999  0.7237 -0.6651  1.4925
   95SAPS   H9Y 9447   1.425   1.295   7.962  1.4807  1.4774  2.8241
   95SAPS  C310 9448   1.249   1.292   8.077 -0.3880 -0.4996 -0.5592
   95SAPS  H10X 9449   1.230   1.188   8.042 -0.5572 -0.6360 -0.0828
   95SAPS  H10Y 9450   1.147   1.334   8.069  0.2387  1.2216 -0.0139
   95SAPS  C311 9451   1.318   1.291   8.214  0.7462  0.0768 -0.3002
   95SAPS  H11X 9452   1.329   1.396   8.252 -0.3413 -0.1810  0.8068
   95SAPS  H11Y 9453   1.412   1.243   8.181 -1.8559 -3.8300 -2.7649
   95SAPS  C312 9454   1.232   1.202   8.306  0.6757  0.0748 -0.0604
   95SAPS  H12X 9455   1.215   1.104   8.255 -1.4042 -0.3238  1.2809
   95SAPS  H12Y 9456   1.134   1.254   8.310  2.6121  4.2082 -0.8746
   95SAPS  C313 9457   1.289   1.177   8.449  0.2198  0.0578 -0.0206
   95SAPS  H13X 9458   1.291   1.271   8.508  3.2746 -0.5921  1.0893
   95SAPS  H13Y 9459   1.394   1.144   8.433  0.3800 -0.7670  2.3912
   95SAPS  C314 9460   1.203   1.074   8.519  0.4085 -0.6338 -0.3503
   95SAPS  H14X 9461   1.227   0.972   8.483 -0.2370 -0.2578 -1.9630
   95SAPS  H14Y 9462   1.101   1.082   8.476  0.6121  0.0082 -0.7383
   95SAPS  C315 9463   1.214   1.080   8.667  0.4533  0.1928 -0.2869
   95SAPS  H15X 9464   1.198   1.184   8.703 -0.1371  1.4007 -3.7142
   95SAPS  H15Y 9465   1.313   1.058   8.712 -0.2154 -0.2594  1.0446
   95SAPS  C316 9466   1.118   0.990   8.741  0.3857  0.3027  0.1155
   95SAPS  H16X 9467   1.145   0.883   8.739 -1.2194 -0.1246 -0.3378
   95SAPS  H16Y 9468   1.025   0.984   8.680  1.5718 -1.0808 -1.6575
   95SAPS  C317 9469   1.079   1.037   8.880  0.1804  0.1751  0.8821
   95SAPS  H17X 9470   0.981   0.993   8.908  0.1138 -0.9991 -0.9530
   95SAPS  H17Y 9471   1.057   1.145   8.867 -1.9818 -0.4915 -2.0255
   95SAPS  C318 9472   1.176   1.015   8.992 -0.0953  0.1462  0.2987
   95SAPS  H18X 9473   1.273   1.052   8.952  0.0636  1.8099  2.0819
   95SAPS  H18Y 9474   1.183   0.909   9.023 -2.3542 -1.0741 -2.8893
   95SAPS  H18Z 9475   1.158   1.065   9.089  0.9213 -1.5427  1.4192
   96SAPS     N 9476   1.227   3.069   6.133  0.4844 -0.3810 -0.0352
   96SAPS   HN1 9477   1.210   2.983   6.190  0.9026 -1.1342 -1.0049
   96SAPS   HN2 9478   1.205   3.158   6.181 -1.1144 -0.8507  0.1699
   96SAPS   HN3 9479   1.166   3.066   6.049  3.2021  2.3574 -2.3348
   96SAPS   C12 9480   1.363   3.072   6.077  0.5466  0.6173 -0.1586
   96SAPS  H12A 9481   1.390   2.988   6.014  4.4441  0.8089  0.9519
   96SAPS   C13 9482   1.389   3.190   5.983 -0.0413 -0.6973 -0.3148
   96SAPS  O13A 9483   1.321   3.290   6.004  0.2316 -0.5526  0.4165
   96SAPS  O13B 9484   1.498   3.201   5.919  0.5143  0.2339  0.0617
   96SAPS   C11 9485   1.465   3.081   6.198 -0.7066 -0.5306 -0.7312
   96SAPS  H11A 9486   1.440   3.176   6.250 -1.8485 -0.8788 -0.6068
   96SAPS  H11B 9487   1.565   3.091   6.151 -0.8765  0.3199 -0.9287
   96SAPS     P 9488   1.551   2.933   6.396 -0.5355  0.2702 -0.3087
   96SAPS   O13 9489   1.480   2.845   6.492 -0.2575  0.1235  0.0486
   96SAPS   O14 9490   1.677   2.875   6.343  0.6647  0.1639 -0.6542
   96SAPS   O12 9491   1.448   2.962   6.279  0.0009  0.4159 -0.2484
   96SAPS   O11 9492   1.582   3.071   6.464 -0.0505  0.4579 -0.4600
   96SAPS    C1 9493   1.516   3.103   6.590  0.8146  0.0008 -0.7230
   96SAPS    HA 9494   1.413   3.142   6.579  0.1354 -1.3974  0.3745
   96SAPS    HB 9495   1.497   3.018   6.658  2.6651  0.0624 -0.0744
   96SAPS    C2 9496   1.603   3.194   6.682  0.2095  1.1042 -0.2729
   96SAPS    HS 9497   1.645   3.279   6.623 -0.0468  0.1840 -1.8244
   96SAPS   O21 9498   1.703   3.122   6.759 -0.8670  0.2200  0.4323
   96SAPS   C21 9499   1.802   3.075   6.683 -0.2509  0.8868 -0.3698
   96SAPS   O22 9500   1.838   3.130   6.580 -0.2470  0.4979  0.9662
   96SAPS   C22 9501   1.867   2.942   6.743 -0.4051 -0.7262  0.3996
   96SAPS   H2R 9502   1.885   2.870   6.661 -0.4555 -0.5173  0.2053
   96SAPS   H2S 9503   1.966   2.961   6.790  0.9938 -0.7576 -2.3648
   96SAPS    C3 9504   1.508   3.265   6.781  0.3089 -0.1413  0.2778
   96SAPS    HX 9505   1.454   3.186   6.838 -0.4089  2.4122  3.4008
   96SAPS    HY 9506   1.438   3.328   6.722  2.1833  0.8685 -0.9930
   96SAPS   O31 9507   1.574   3.350   6.875 -0.7424 -0.0265 -0.0584
   96SAPS   C31 9508   1.501   3.391   6.975 -0.1435  0.2080 -0.4560
   96SAPS   O32 9509   1.392   3.344   7.005  0.5935  0.0611  0.2432
   96SAPS   C32 9510   1.567   3.502   7.055  0.4387 -0.4969 -0.1580
   96SAPS   H2X 9511   1.501   3.590   7.043  0.6709 -0.1636  0.9126
   96SAPS   H2Y 9512   1.667   3.518   7.011  0.2549  0.1197 -0.3587
   96SAPS   C23 9513   1.781   2.868   6.852  0.5399  0.6145 -0.0672
   96SAPS   H3R 9514   1.680   2.841   6.816 -0.8517  3.2842  1.5517
   96SAPS   H3S 9515   1.751   2.939   6.932 -3.5102 -0.0657 -0.7480
   96SAPS   C24 9516   1.852   2.753   6.917  0.2110  0.0309 -0.1973
   96SAPS   H4R 9517   1.947   2.774   6.971  0.1258 -0.0187 -0.0252
   96SAPS   H4S 9518   1.884   2.675   6.845 -0.7640 -1.6892  1.1429
   96SAPS   C25 9519   1.767   2.693   7.029  0.5628 -0.5795 -0.1866
   96SAPS   H5R 9520   1.703   2.613   6.991  2.4313 -2.0463 -0.3830
   96SAPS   C26 9521   1.783   2.715   7.167  0.2015 -0.0325  0.1101
   96SAPS   H6R 9522   1.713   2.658   7.230  1.8830 -0.1452  1.9775
   96SAPS   C27 9523   1.891   2.807   7.234  0.2719  0.4074 -0.0098
   96SAPS   H7R 9524   1.839   2.877   7.303 -0.8158  0.4623 -0.8722
   96SAPS   H7S 9525   1.933   2.873   7.156 -0.9807  2.0907  0.6781
   96SAPS   C28 9526   1.999   2.729   7.313  0.1737  0.9960  0.0191
   96SAPS   H8R 9527   2.052   2.660   7.245 -1.9852  0.2606 -0.9994
   96SAPS   C29 9528   2.044   2.740   7.444 -0.0409  0.5795  0.5296
   96SAPS   H9R 9529   2.124   2.665   7.458 -3.3656 -4.5501 -3.7201
   96SAPS  C210 9530   1.985   2.830   7.553 -0.4681 -0.4053  0.4738
   96SAPS  H10R 9531   1.916   2.904   7.507 -0.8362 -0.7633  0.4485
   96SAPS  H10S 9532   2.074   2.876   7.602  0.3001  0.1407 -1.3360
   96SAPS  C211 9533   1.924   2.743   7.653  0.1929 -0.3362 -0.8461
   96SAPS  H11R 9534   1.994   2.699   7.725  0.1302  1.4855  0.4079
   96SAPS  C212 9535   1.795   2.721   7.668 -0.2188  0.0089 -0.0710
   96SAPS  H12R 9536   1.768   2.656   7.753  1.3991 -0.6043  0.0186
   96SAPS  C213 9537   1.692   2.779   7.575 -0.2542 -0.6851 -0.0255
   96SAPS  H13R 9538   1.666   2.696   7.505  2.1061 -0.6129 -1.0819
   96SAPS  H13S 9539   1.732   2.856   7.506 -0.3407  0.3959  1.1064
   96SAPS  C214 9540   1.565   2.836   7.638 -0.2702 -0.4184  0.1543
   96SAPS  H14R 9541   1.562   2.946   7.646 -2.8054 -0.2422 -1.9197
   96SAPS  C215 9542   1.459   2.767   7.683 -0.5327 -0.1263  0.1362
   96SAPS  H15R 9543   1.377   2.824   7.730 -0.7404  0.6384 -1.1006
   96SAPS  C216 9544   1.441   2.619   7.686 -0.1392  0.2370  0.1136
   96SAPS  H16R 9545   1.527   2.559   7.650 -0.1007  0.7269 -0.6246
   96SAPS  H16S 9546   1.361   2.606   7.611  1.7984  0.1401 -2.0349
   96SAPS  C217 9547   1.405   2.564   7.828 -0.6275 -0.5735  0.0499
   96SAPS  H17R 9548   1.369   2.459   7.823  0.6725 -1.1152  1.4512
   96SAPS  H17S 9549   1.315   2.616   7.867 -0.6874 -0.0010 -0.8285
   96SAPS  C218 9550   1.534   2.574   7.908 -0.1200 -0.5208 -0.0965
   96SAPS  H18R 9551   1.574   2.675   7.884 -0.5089 -0.9620 -3.0154
   96SAPS  H18S 9552   1.595   2.489   7.872  0.0429  0.1523 -1.5059
   96SAPS  C219 9553   1.528   2.553   8.056 -0.3714 -0.6132 -0.6504
   96SAPS  H19R 9554   1.463   2.466   8.079 -0.9325 -0.5483 -1.9102
   96SAPS  H19S 9555   1.468   2.637   8.099 -1.1122 -1.1189 -0.6798
   96SAPS  C220 9556   1.671   2.542   8.128  0.2930 -0.2511 -0.0824
   96SAPS  H20R 9557   1.732   2.633   8.109  0.0148 -0.0748 -0.1255
   96SAPS  H20S 9558   1.730   2.454   8.095  0.7159  0.4958 -1.3778
   96SAPS  H20T 9559   1.653   2.546   8.238  1.7541 -1.0786  0.2181
   96SAPS   C33 9560   1.568   3.480   7.201 -0.2625  0.1049 -0.1079
   96SAPS   H3X 9561   1.603   3.382   7.242 -0.0657  0.8209  1.5131
   96SAPS   H3Y 9562   1.465   3.485   7.242  0.1443  3.8344  0.7617
   96SAPS   C34 9563   1.657   3.588   7.261  0.9721 -0.2448  0.1653
   96SAPS   H4X 9564   1.600   3.683   7.252 -0.6095 -0.9958  1.6830
   96SAPS   H4Y 9565   1.755   3.584   7.210  0.8072  0.4235 -0.2119
   96SAPS   C35 9566   1.674   3.570   7.408  0.9936 -0.3767  0.3031
   96SAPS   H5X 9567   1.741   3.485   7.435 -0.3503 -1.5112  0.2064
   96SAPS   H5Y 9568   1.578   3.546   7.459 -0.2375  0.8022 -1.3363
   96SAPS   C36 9569   1.726   3.696   7.476  0.3330 -0.4343 -0.6103
   96SAPS   H6X 9570   1.661   3.784   7.457 -0.3299 -0.5882  0.8490
   96SAPS   H6Y 9571   1.826   3.717   7.432  1.4286 -4.5169 -0.4711
   96SAPS   C37 9572   1.716   3.683   7.631 -0.7517 -0.2041  0.0754
   96SAPS   H7X 9573   1.764   3.586   7.659  1.0001  0.7075  0.3949
   96SAPS   H7Y 9574   1.610   3.675   7.661 -0.1162 -0.2356  2.5817
   96SAPS   C38 9575   1.799   3.785   7.700 -0.5378 -0.7099 -0.4962
   96SAPS   H8X 9576   1.774   3.889   7.671  1.4959 -0.0576 -0.0995
   96SAPS   H8Y 9577   1.901   3.792   7.657 -1.5364  2.8469 -2.7728
   96SAPS   C39 9578   1.795   3.791   7.850 -0.6119  0.3770  0.9487
   96SAPS   H9X 9579   1.839   3.692   7.879 -1.6158 -0.6874 -0.9725
   96SAPS   H9Y 9580   1.687   3.788   7.877 -0.6000  1.4697  1.1586
   96SAPS  C310 9581   1.878   3.900   7.913  0.0593  0.3989  0.1570
   96SAPS  H10X 9582   1.822   3.994   7.891  0.9614  0.8828 -0.1209
   96SAPS  H10Y 9583   1.975   3.915   7.861 -0.0225 -2.5127 -0.9977
   96SAPS  C311 9584   1.916   3.882   8.060 -0.2296 -0.3585  0.2773
   96SAPS  H11X 9585   1.989   3.964   8.078 -0.2151 -0.3793  0.3132
   96SAPS  H11Y 9586   1.964   3.783   8.071 -0.3066 -0.1965  2.7175
   96SAPS  C312 9587   1.801   3.883   8.163 -0.4188 -0.0842  0.9804
   96SAPS  H12X 9588   1.728   3.810   8.121  1.9439 -1.2415 -1.4653
   96SAPS  H12Y 9589   1.759   3.986   8.163  2.0976  1.0456  0.1365
   96SAPS  C313 9590   1.846   3.833   8.299  0.4479  0.2514 -0.3204
   96SAPS  H13X 9591   1.899   3.920   8.342  2.0817 -1.9356  2.4073
   96SAPS  H13Y 9592   1.918   3.751   8.280  0.3028 -0.1322  0.7233
   96SAPS  C314 9593   1.725   3.799   8.388  0.2277 -0.6703  0.0496
   96SAPS  H14X 9594   1.773   3.765   8.483  1.1687 -3.0666 -1.1959
   96SAPS  H14Y 9595   1.667   3.713   8.350 -0.1166  0.3970 -1.9599
   96SAPS  C315 9596   1.643   3.923   8.420  0.4724  0.2615  0.3965
   96SAPS  H15X 9597   1.591   3.966   8.332 -0.9738 -0.8044  0.7038
   96SAPS  H15Y 9598   1.699   4.015   8.449 -2.6254  2.4331 -0.0487
   96SAPS  C316 9599   1.534   3.899   8.530 -0.2306 -0.7718 -0.3477
   96SAPS  H16X 9600   1.570   3.886   8.635 -2.1862 -0.4723  0.3894
   96SAPS  H16Y 9601   1.477   3.809   8.500 -2.1928  0.5609 -0.8004
   96SAPS  C317 9602   1.432   4.019   8.534  0.6773 -0.0577  0.2548
   96SAPS  H17X 9603   1.394   4.042   8.432  0.0656 -0.4151  0.3928
   96SAPS  H17Y 9604   1.488   4.106   8.574 -2.5779  0.7042  3.7526
   96SAPS  C318 9605   1.309   4.004   8.624 -1.0677 -0.2230  0.4231
   96SAPS  H18X 9606   1.262   4.103   8.644 -0.3939  0.5049 -1.3980
   96SAPS  H18Y 9607   1.328   3.955   8.722 -0.3047  1.1691  0.9997
   96SAPS  H18Z 9608   1.234   3.936   8.577 -0.0251 -0.5815 -0.7580
   97SAPS     N 9609   2.910   1.449   6.322  0.9587  0.8227  0.3289
   97SAPS   HN1 9610   2.851   1.509   6.383 -0.3631 -0.3301  0.2215
   97SAPS   HN2 9611   2.850   1.414   6.245  0.8143  0.8134  0.4459
   97SAPS   HN3 9612   2.945   1.369   6.378  0.3204  0.0695 -0.3315
   97SAPS   C12 9613   3.034   1.521   6.263  0.0229  1.1473  0.0940
   97SAPS  H12A 9614   3.072   1.450   6.192 -2.1208 -1.8024  1.6547
   97SAPS   C13 9615   3.004   1.646   6.179 -0.7732 -0.5425  0.1499
   97SAPS  O13A 9616   2.885   1.691   6.182 -0.2120  0.7293  0.1087
   97SAPS  O13B 9617   3.100   1.724   6.147  0.4676  0.0389  0.3096
   97SAPS   C11 9618   3.138   1.548   6.378  0.3528 -0.3658  0.1943
   97SAPS  H11A 9619   3.110   1.638   6.436  1.3593  0.4096 -0.5069
   97SAPS  H11B 9620   3.231   1.585   6.331 -0.3196  0.9302 -0.1537
   97SAPS     P 9621   3.282   1.325   6.426  0.0638  0.1062  0.3107
   97SAPS   O13 9622   3.234   1.186   6.442 -0.1125 -0.0555 -0.5826
   97SAPS   O14 9623   3.340   1.351   6.288  0.2590 -0.3159 -0.7084
   97SAPS   O12 9624   3.159   1.426   6.456 -0.1965  0.2793  0.0967
   97SAPS   O11 9625   3.388   1.347   6.536 -1.3088  0.0639  0.3154
   97SAPS    C1 9626   3.344   1.360   6.679 -0.1839 -0.0192 -0.0807
   97SAPS    HA 9627   3.414   1.413   6.748 -0.2234  0.1008 -0.1312
   97SAPS    HB 9628   3.258   1.430   6.687 -0.7134 -0.6380 -0.3790
   97SAPS    C2 9629   3.309   1.232   6.749 -0.2442  0.2889  0.5173
   97SAPS    HS 9630   3.220   1.181   6.706 -0.8626  2.1731 -0.5554
   97SAPS   O21 9631   3.294   1.256   6.893  0.0895 -0.5878 -0.3230
   97SAPS   C21 9632   3.190   1.325   6.922  0.8599 -0.1824  0.1203
   97SAPS   O22 9633   3.096   1.350   6.844  0.7713 -0.4000 -0.4037
   97SAPS   C22 9634   3.202   1.367   7.071 -0.4036 -0.4499 -0.2474
   97SAPS   H2R 9635   3.178   1.276   7.131  0.8783 -0.8752 -0.3478
   97SAPS   H2S 9636   3.308   1.398   7.074 -0.5381  0.1775 -1.4648
   97SAPS    C3 9637   3.409   1.113   6.737  0.3052  0.0336 -0.3357
   97SAPS    HX 9638   3.509   1.132   6.782  1.2372 -3.3606 -0.6891
   97SAPS    HY 9639   3.438   1.108   6.630 -1.1969  2.9723 -0.9743
   97SAPS   O31 9640   3.352   0.988   6.779  0.4512  0.2320 -0.7954
   97SAPS   C31 9641   3.433   0.888   6.810 -0.1973 -0.3853  0.5006
   97SAPS   O32 9642   3.553   0.893   6.818 -0.5641  0.2376 -0.3415
   97SAPS   C32 9643   3.354   0.757   6.797 -0.1324 -0.1194  0.6244
   97SAPS   H2X 9644   3.396   0.704   6.709  0.6189  1.4969 -0.0158
   97SAPS   H2Y 9645   3.247   0.781   6.777  0.2774  1.6218  0.3659
   97SAPS   C23 9646   3.091   1.474   7.107 -0.0717  0.1772  0.0393
   97SAPS   H3R 9647   2.995   1.445   7.059 -0.8550  0.2048  1.5505
   97SAPS   H3S 9648   3.124   1.571   7.064  1.0797 -0.1145  0.2461
   97SAPS   C24 9649   3.091   1.499   7.259 -0.4791 -0.4999 -0.6401
   97SAPS   H4R 9650   3.033   1.590   7.286 -0.8157 -1.0593  0.6172
   97SAPS   H4S 9651   3.195   1.520   7.289 -0.1485 -1.6198 -0.9653
   97SAPS   C25 9652   3.033   1.374   7.328  0.0206 -0.2246 -0.0634
   97SAPS   H5R 9653   2.933   1.340   7.297 -0.0054 -0.4418  0.2559
   97SAPS   C26 9654   3.103   1.295   7.418 -0.2088 -0.2442 -0.3344
   97SAPS   H6R 9655   3.050   1.203   7.447  0.0603  0.2413  1.8559
   97SAPS   C27 9656   3.245   1.309   7.472 -0.9382  0.0335 -0.1372
   97SAPS   H7R 9657   3.247   1.293   7.582 -2.2033 -0.6070 -0.1814
   97SAPS   H7S 9658   3.272   1.416   7.461 -0.1641 -0.1461 -0.0509
   97SAPS   C28 9659   3.346   1.232   7.395 -0.1917  0.1436 -0.0690
   97SAPS   H8R 9660   3.323   1.220   7.288 -2.2733 -2.4558  0.5503
   97SAPS   C29 9661   3.452   1.164   7.441 -0.1761  0.4897 -0.4496
   97SAPS   H9R 9662   3.515   1.119   7.363  0.6287 -0.4757  0.7239
   97SAPS  C210 9663   3.497   1.141   7.586 -0.5004 -0.0592 -0.0745
   97SAPS  H10R 9664   3.473   1.039   7.620 -0.9259  0.5188  1.4278
   97SAPS  H10S 9665   3.433   1.199   7.656 -1.6563 -2.6158  1.1007
   97SAPS  C211 9666   3.643   1.169   7.599 -0.4002  0.2842 -0.1945
   97SAPS  H11R 9667   3.706   1.175   7.509 -1.7803 -0.3510 -1.2342
   97SAPS  C212 9668   3.704   1.195   7.720 -0.5526 -0.0143 -0.4281
   97SAPS  H12R 9669   3.807   1.232   7.713 -0.2913 -0.5796  0.2570
   97SAPS  C213 9670   3.634   1.203   7.858  0.0863  0.3067 -0.4668
   97SAPS  H13R 9671   3.558   1.123   7.870 -1.5369  1.2752 -3.3207
   97SAPS  H13S 9672   3.572   1.295   7.866 -0.5860 -0.1970  0.3468
   97SAPS  C214 9673   3.722   1.220   7.976 -0.1406 -0.2102  0.1150
   97SAPS  H14R 9674   3.828   1.238   7.952 -1.0465  4.0050 -1.6159
   97SAPS  C215 9675   3.670   1.225   8.104 -0.0422 -0.3656  0.5513
   97SAPS  H15R 9676   3.749   1.214   8.179  0.9921  0.3110 -0.3933
   97SAPS  C216 9677   3.533   1.226   8.148  0.5973  0.0744  0.2353
   97SAPS  H16R 9678   3.488   1.129   8.177 -1.6544  0.6094 -1.1319
   97SAPS  H16S 9679   3.468   1.256   8.062  2.4637  0.5189 -1.0749
   97SAPS  C217 9680   3.514   1.326   8.267  0.0842  0.4651  0.2820
   97SAPS  H17R 9681   3.518   1.427   8.222 -1.9719  0.2304 -0.5281
   97SAPS  H17S 9682   3.592   1.310   8.345 -0.1246  1.7911  0.7790
   97SAPS  C218 9683   3.383   1.312   8.344  0.5399 -0.2925 -0.1037
   97SAPS  H18R 9684   3.391   1.231   8.420  0.7181  0.4437  0.6695
   97SAPS  H18S 9685   3.293   1.300   8.279 -0.0475  0.1785  0.5993
   97SAPS  C219 9686   3.361   1.439   8.429  0.0709  0.0112  0.4841
   97SAPS  H19R 9687   3.361   1.535   8.373 -1.2928  0.8198  1.8002
   97SAPS  H19S 9688   3.448   1.437   8.498  1.1747  0.4289 -0.8590
   97SAPS  C220 9689   3.227   1.434   8.501  0.1095 -0.4018 -0.5711
   97SAPS  H20R 9690   3.213   1.347   8.569  0.8157 -0.1640 -0.1057
   97SAPS  H20S 9691   3.137   1.449   8.438 -0.2006  0.6494  0.1197
   97SAPS  H20T 9692   3.234   1.511   8.580  1.1883 -1.6499  0.5928
   97SAPS   C33 9693   3.352   0.666   6.927 -0.0549 -0.4097  0.3563
   97SAPS   H3X 9694   3.314   0.722   7.016 -1.3397 -1.4002  0.4593
   97SAPS   H3Y 9695   3.456   0.631   6.945  0.4949 -0.4730 -2.4965
   97SAPS   C34 9696   3.263   0.547   6.904 -0.1719  0.0179 -0.0834
   97SAPS   H4X 9697   3.301   0.502   6.810 -0.7762 -0.4263 -0.1190
   97SAPS   H4Y 9698   3.167   0.596   6.877  1.5036  3.0010 -1.1117
   97SAPS   C35 9699   3.266   0.439   7.016 -0.3584 -0.2438 -0.1405
   97SAPS   H5X 9700   3.366   0.404   7.050 -0.5132 -0.9113 -0.3596
   97SAPS   H5Y 9701   3.213   0.353   6.969 -1.9469  1.3331 -1.3418
   97SAPS   C36 9702   3.188   0.482   7.145 -0.1838 -0.1037  0.2934
   97SAPS   H6X 9703   3.082   0.494   7.116 -0.4746 -2.2604  0.2383
   97SAPS   H6Y 9704   3.227   0.577   7.186 -1.9510 -0.8668  4.1623
   97SAPS   C37 9705   3.206   0.378   7.253 -0.6011 -0.3856 -0.7050
   97SAPS   H7X 9706   3.304   0.387   7.304 -1.5598  2.6266  0.8522
   97SAPS   H7Y 9707   3.191   0.274   7.217 -1.6413 -1.0537  1.4895
   97SAPS   C38 9708   3.090   0.374   7.359 -0.2091  0.2456  0.0463
   97SAPS   H8X 9709   2.993   0.338   7.318  0.1614 -0.1770 -0.4622
   97SAPS   H8Y 9710   3.069   0.476   7.397 -0.0923  0.0473  0.6480
   97SAPS   C39 9711   3.127   0.282   7.477 -0.7364 -0.2976 -0.7058
   97SAPS   H9X 9712   3.228   0.240   7.458 -0.4245  0.6493 -1.2013
   97SAPS   H9Y 9713   3.049   0.204   7.489 -1.7671  0.9740  1.8414
   97SAPS  C310 9714   3.127   0.357   7.612 -0.2837  0.3928  0.1984
   97SAPS  H10X 9715   3.027   0.398   7.639  0.3611  1.1138  1.6193
   97SAPS  H10Y 9716   3.195   0.446   7.613 -0.5142  0.6101 -1.3924
   97SAPS  C311 9717   3.172   0.259   7.721  0.1768 -0.3898 -0.0795
   97SAPS  H11X 9718   3.262   0.203   7.688 -0.3241 -1.6005  0.5495
   97SAPS  H11Y 9719   3.099   0.175   7.728 -2.6693  1.7455 -1.7437
   97SAPS  C312 9720   3.198   0.333   7.852 -0.0617 -0.0481 -0.2621
   97SAPS  H12X 9721   3.119   0.307   7.926 -1.8062 -1.5432 -2.5035
   97SAPS  H12Y 9722   3.188   0.443   7.838  0.9285  0.2672  1.2055
   97SAPS  C313 9723   3.332   0.293   7.915  0.1362  0.3087 -0.1786
   97SAPS  H13X 9724   3.420   0.322   7.854  1.2309 -0.6751  0.8729
   97SAPS  H13Y 9725   3.346   0.184   7.924 -1.2399  0.2165  1.6107
   97SAPS  C314 9726   3.350   0.356   8.051  0.0174 -0.3095  0.2575
   97SAPS  H14X 9727   3.293   0.452   8.052  1.5644  0.6597 -0.4859
   97SAPS  H14Y 9728   3.454   0.392   8.064  0.6907 -2.5820  1.7316
   97SAPS  C315 9729   3.315   0.259   8.164 -0.5770 -0.2456 -0.3583
   97SAPS  H15X 9730   3.370   0.162   8.154 -2.1865 -1.2399  0.0138
   97SAPS  H15Y 9731   3.206   0.241   8.148 -1.0349  1.0059  1.1361
   97SAPS  C316 9732   3.332   0.321   8.299 -0.3721  0.8282  0.5873
   97SAPS  H16X 9733   3.438   0.349   8.314 -0.2798  0.6001  0.3666
   97SAPS  H16Y 9734   3.329   0.237   8.372 -1.4924 -0.1983 -0.5872
   97SAPS  C317 9735   3.253   0.443   8.330  0.2273  0.2501 -1.2380
   97SAPS  H17X 9736   3.143   0.430   8.319  0.0307 -0.0937  0.6693
   97SAPS  H17Y 9737   3.288   0.528   8.268  0.0762  0.5551 -0.9082
   97SAPS  C318 9738   3.269   0.491   8.481 -0.3840 -0.2763 -0.4557
   97SAPS  H18X 9739   3.377   0.500   8.503 -1.2743  2.2904  3.9691
   97SAPS  H18Y 9740   3.233   0.413   8.551 -2.4062  1.2600  0.3102
   97SAPS  H18Z 9741   3.208   0.583   8.491  0.7310  0.4899 -0.5356
   98SAPS     N 9742   0.981   0.986   5.933  0.0168 -0.4465  0.6913
   98SAPS   HN1 9743   0.961   0.929   5.849 -0.0926 -0.4978  0.7523
   98SAPS   HN2 9744   0.973   0.920   6.013 -0.6044  0.3796  1.3336
   98SAPS   HN3 9745   0.917   1.067   5.949 -0.4723 -0.8541  0.8189
   98SAPS   C12 9746   1.120   1.025   5.939  0.0247 -0.1587  1.2537
   98SAPS  H12A 9747   1.181   0.936   5.941  1.7782  0.9352 -0.2397
   98SAPS   C13 9748   1.161   1.119   5.820  0.5921 -0.5120  0.1351
   98SAPS  O13A 9749   1.088   1.118   5.717  0.3226  1.0081  0.4193
   98SAPS  O13B 9750   1.277   1.164   5.813 -0.3152  0.6210 -0.0289
   98SAPS   C11 9751   1.148   1.085   6.081  0.3762  0.3874  0.3864
   98SAPS  H11A 9752   1.103   1.186   6.072 -1.9238 -0.7072 -1.5867
   98SAPS  H11B 9753   1.253   1.112   6.103  0.5246 -0.1959  0.4008
   98SAPS     P 9754   1.142   0.907   6.273 -0.4688  0.1851  0.0808
   98SAPS   O13 9755   1.027   0.831   6.325  0.0160 -0.1333  0.0593
   98SAPS   O14 9756   1.249   0.820   6.213  0.2964 -0.4770  0.1396
   98SAPS   O12 9757   1.090   1.021   6.190  0.4709 -0.0104  0.1059
   98SAPS   O11 9758   1.206   0.989   6.393  0.3638 -0.2326 -0.1090
   98SAPS    C1 9759   1.113   1.062   6.480 -0.6329  0.2394  0.1490
   98SAPS    HA 9760   1.115   1.168   6.444 -0.7203  0.0164 -0.5419
   98SAPS    HB 9761   1.013   1.014   6.486 -0.7305  0.5921  1.5115
   98SAPS    C2 9762   1.161   1.062   6.626  0.1542  0.3788 -0.2855
   98SAPS    HS 9763   1.187   0.961   6.664 -1.2201 -0.4236 -1.3739
   98SAPS   O21 9764   1.067   1.127   6.718 -0.6606 -0.5031 -0.0737
   98SAPS   C21 9765   0.967   1.045   6.759  0.1399 -0.5153  0.3956
   98SAPS   O22 9766   0.971   0.923   6.731  0.0580  0.0803 -0.1462
   98SAPS   C22 9767   0.863   1.118   6.834  0.4043  0.4357  0.1693
   98SAPS   H2R 9768   0.797   1.173   6.763  0.0523  0.3010  0.3860
   98SAPS   H2S 9769   0.794   1.047   6.884  1.7479 -1.4303 -0.4868
   98SAPS    C3 9770   1.294   1.139   6.616  0.7163  0.4354  0.1781
   98SAPS    HX 9771   1.267   1.238   6.572 -1.4518  0.5875  1.6593
   98SAPS    HY 9772   1.362   1.087   6.545  1.3973  0.1418  1.0326
   98SAPS   O31 9773   1.357   1.160   6.746  0.3763  0.3276 -0.1809
   98SAPS   C31 9774   1.448   1.073   6.781 -0.1219  0.1270 -0.6187
   98SAPS   O32 9775   1.475   0.966   6.728  0.1133  0.3842  0.3881
   98SAPS   C32 9776   1.529   1.126   6.900 -0.6506  0.3364 -0.8273
   98SAPS   H2X 9777   1.492   1.222   6.941  0.3720  0.2735  0.3206
   98SAPS   H2Y 9778   1.634   1.125   6.863 -1.2247 -0.5589 -2.5399
   98SAPS   C23 9779   0.923   1.211   6.934 -0.2561  0.4376  0.4485
   98SAPS   H3R 9780   0.991   1.279   6.878 -0.6578  0.5154  0.0483
   98SAPS   H3S 9781   0.983   1.156   7.010  0.8716  0.2100 -0.5708
   98SAPS   C24 9782   0.813   1.281   7.010 -0.0377  0.1590  0.0933
   98SAPS   H4R 9783   0.743   1.214   7.064  0.3409 -0.3143  0.0042
   98SAPS   H4S 9784   0.748   1.331   6.935 -0.2037  0.4919  0.4549
   98SAPS   C25 9785   0.873   1.382   7.107  0.2551 -0.0167  0.4328
   98SAPS   H5R 9786   0.911   1.473   7.059 -1.1097 -0.0646 -0.8208
   98SAPS   C26 9787   0.862   1.376   7.243  0.3738  0.6894  0.4955
   98SAPS   H6R 9788   0.902   1.462   7.299 -1.2775 -0.1690  3.1784
   98SAPS   C27 9789   0.801   1.257   7.311  0.3950  0.1930  0.1871
   98SAPS   H7R 9790   0.710   1.223   7.256 -0.0089  0.4371  0.6892
   98SAPS   H7S 9791   0.759   1.303   7.404 -2.8701  0.6920 -1.3696
   98SAPS   C28 9792   0.881   1.131   7.336 -0.1032 -0.5429  0.3123
   98SAPS   H8R 9793   0.927   1.086   7.246 -0.0510 -1.3226  0.7207
   98SAPS   C29 9794   0.891   1.061   7.451  0.4576  0.2184  1.3935
   98SAPS   H9R 9795   0.946   0.968   7.430  2.4131  2.0129 -2.5770
   98SAPS  C210 9796   0.823   1.083   7.579 -0.6566 -0.7306 -0.2954
   98SAPS  H10R 9797   0.799   0.984   7.623  0.5527 -0.7810  0.2889
   98SAPS  H10S 9798   0.730   1.142   7.569  0.8564  2.0732  0.9247
   98SAPS  C211 9799   0.920   1.164   7.661 -0.0001 -0.7116 -0.1288
   98SAPS  H11R 9800   0.976   1.244   7.611  0.6486 -0.9786  0.1464
   98SAPS  C212 9801   0.928   1.146   7.794  0.1578  0.3823 -0.0279
   98SAPS  H12R 9802   1.002   1.197   7.859 -2.4286  3.3462  0.8611
   98SAPS  C213 9803   0.856   1.042   7.878 -0.3545  0.0553  0.5635
   98SAPS  H13R 9804   0.761   1.003   7.835  1.1865 -0.2880 -2.8034
   98SAPS  H13S 9805   0.831   1.094   7.973 -1.4980  1.3107 -0.3712
   98SAPS  C214 9806   0.946   0.936   7.917 -0.1045 -0.8897  0.5968
   98SAPS  H14R 9807   1.014   0.897   7.839 -1.9627 -1.2712 -0.8919
   98SAPS  C215 9808   0.935   0.865   8.030 -0.8093  0.4097 -0.6116
   98SAPS  H15R 9809   1.012   0.795   8.065 -2.7238 -0.1818  2.9188
   98SAPS  C216 9810   0.833   0.891   8.140  0.1656  0.7437 -0.0434
   98SAPS  H16R 9811   0.734   0.841   8.126  1.5233 -1.6600 -1.8853
   98SAPS  H16S 9812   0.817   1.001   8.144 -3.2682  0.3089  2.0216
   98SAPS  C217 9813   0.892   0.847   8.274 -0.2388 -0.2115 -0.5283
   98SAPS  H17R 9814   0.825   0.893   8.351  0.8262  0.5221 -0.0140
   98SAPS  H17S 9815   0.993   0.892   8.284  0.4673 -1.8368 -0.1452
   98SAPS  C218 9816   0.892   0.699   8.301 -0.0835  0.1997  0.2307
   98SAPS  H18R 9817   0.964   0.643   8.237 -0.5332  0.5140 -0.5534
   98SAPS  H18S 9818   0.794   0.654   8.276  0.1672 -0.2871  0.1041
   98SAPS  C219 9819   0.928   0.677   8.450 -0.3712  0.0470  0.2687
   98SAPS  H19R 9820   0.842   0.696   8.517 -0.8535 -1.8794  0.2685
   98SAPS  H19S 9821   1.011   0.746   8.475  0.5270 -0.4790 -1.0999
   98SAPS  C220 9822   0.987   0.539   8.485  0.8029 -0.0033 -0.1190
   98SAPS  H20R 9823   1.092   0.535   8.448  0.2754  2.8701 -2.2950
   98SAPS  H20S 9824   0.936   0.455   8.433  1.8364 -0.2570 -0.7552
   98SAPS  H20T 9825   0.987   0.538   8.596 -0.1982 -1.2204 -0.1080
   98SAPS   C33 9826   1.530   1.017   7.021 -0.1748 -0.0458  0.2488
   98SAPS   H3X 9827   1.622   0.955   7.028  0.5315  1.0420  0.8363
   98SAPS   H3Y 9828   1.441   0.950   7.015  1.1403 -1.7349 -1.8435
   98SAPS   C34 9829   1.529   1.088   7.161  0.0566 -0.0882 -0.6792
   98SAPS   H4X 9830   1.426   1.122   7.185  0.0903 -1.7974  2.2841
   98SAPS   H4Y 9831   1.586   1.184   7.157 -0.4684  0.3499  1.4623
   98SAPS   C35 9832   1.602   1.016   7.274  0.5603  0.7345  0.0514
   98SAPS   H5X 9833   1.709   1.023   7.248  0.9988  1.6237  1.8867
   98SAPS   H5Y 9834   1.575   0.908   7.271  2.2731  0.2509  0.8193
   98SAPS   C36 9835   1.580   1.070   7.419 -0.4918 -0.4326 -0.5443
   98SAPS   H6X 9836   1.472   1.080   7.442 -0.2290  0.0098  0.5945
   98SAPS   H6Y 9837   1.622   1.173   7.430 -0.4051 -0.6833  2.5715
   98SAPS   C37 9838   1.647   0.984   7.528 -0.0649  0.3796 -0.3056
   98SAPS   H7X 9839   1.757   0.999   7.517 -0.2801  3.0942  0.4322
   98SAPS   H7Y 9840   1.618   0.878   7.518  0.1378  0.3049 -0.1048
   98SAPS   C38 9841   1.624   1.024   7.673 -0.1016  0.0959 -0.1901
   98SAPS   H8X 9842   1.622   1.134   7.683 -1.3897  0.4029 -2.8057
   98SAPS   H8Y 9843   1.714   0.983   7.724 -0.5537 -2.0564 -0.9704
   98SAPS   C39 9844   1.504   0.962   7.746  0.5196  0.1298 -0.7064
   98SAPS   H9X 9845   1.508   0.854   7.720 -0.5508  0.5246 -2.6723
   98SAPS   H9Y 9846   1.421   1.018   7.699  0.7102  0.1729 -0.9874
   98SAPS  C310 9847   1.508   0.979   7.893 -0.3250  0.3518 -0.1605
   98SAPS  H10X 9848   1.506   1.089   7.912  0.7904  0.0160  2.1435
   98SAPS  H10Y 9849   1.597   0.921   7.925 -1.0553  0.2356  1.8140
   98SAPS  C311 9850   1.386   0.907   7.948 -0.5570  0.2149  0.0748
   98SAPS  H11X 9851   1.355   0.834   7.870  2.3601  1.2479 -2.2608
   98SAPS  H11Y 9852   1.288   0.957   7.964 -0.2684  0.2122  2.1101
   98SAPS  C312 9853   1.418   0.838   8.079  0.7189  1.0511  0.5605
   98SAPS  H12X 9854   1.472   0.908   8.147  1.5890 -0.3684  1.3843
   98SAPS  H12Y 9855   1.487   0.757   8.048 -1.2277 -1.4206  2.2385
   98SAPS  C313 9856   1.304   0.763   8.141 -0.3177  0.1753 -0.2190
   98SAPS  H13X 9857   1.280   0.672   8.082  0.1000  0.8170 -1.4081
   98SAPS  H13Y 9858   1.218   0.832   8.133 -0.2410  0.2359 -0.5401
   98SAPS  C314 9859   1.341   0.711   8.283  0.3536 -0.1535 -0.3358
   98SAPS  H14X 9860   1.256   0.657   8.330  1.1874 -0.2240  1.1652
   98SAPS  H14Y 9861   1.353   0.792   8.359 -1.0760 -1.2990  1.1917
   98SAPS  C315 9862   1.465   0.627   8.301  0.3385 -0.1516 -0.3314
   98SAPS  H15X 9863   1.494   0.608   8.406  0.5205 -2.5014 -0.7629
   98SAPS  H15Y 9864   1.551   0.693   8.275  0.7329 -0.4298  0.2454
   98SAPS  C316 9865   1.470   0.492   8.221  0.0213 -0.3093 -0.3098
   98SAPS  H16X 9866   1.565   0.446   8.257  1.2813  2.9092  0.8656
   98SAPS  H16Y 9867   1.480   0.519   8.113 -1.8886  0.5294 -0.3147
   98SAPS  C317 9868   1.344   0.404   8.238 -0.3346 -0.1921 -0.1534
   98SAPS  H17X 9869   1.258   0.470   8.214  0.0109  0.4824  0.4278
   98SAPS  H17Y 9870   1.329   0.384   8.347  0.2457  0.4929  0.0613
   98SAPS  C318 9871   1.345   0.275   8.163 -0.9731  0.2825  0.2395
   98SAPS  H18X 9872   1.430   0.210   8.191  0.1829 -0.0403 -3.4719
   98SAPS  H18Y 9873   1.373   0.303   8.059  0.7336 -0.4555  0.4757
   98SAPS  H18Z 9874   1.245   0.225   8.165 -0.5249 -0.9275 -2.7281
   99SAPS     N 9875   0.570   6.073   6.185  0.1299 -0.3128  0.0506
   99SAPS   HN1 9876   0.592   6.155   6.245 -1.4071 -0.6360  1.1057
   99SAPS   HN2 9877   0.542   6.114   6.094 -1.5921  0.0968  0.7211
   99SAPS   HN3 9878   0.485   6.025   6.222 -1.6824  0.4739 -2.7491
   99SAPS   C12 9879   0.684   5.981   6.189 -0.9176  0.5548  0.5486
   99SAPS  H12A 9880   0.655   5.893   6.134 -0.7005  0.0231  1.2691
   99SAPS   C13 9881   0.809   6.046   6.123 -0.2477 -0.6239 -0.4056
   99SAPS  O13A 9882   0.812   6.169   6.095 -0.6101  0.4654 -0.3818
   99SAPS  O13B 9883   0.898   5.966   6.087 -0.3464  0.4257 -0.1640
   99SAPS   C11 9884   0.711   5.955   6.340 -0.6099  0.0913  0.3068
   99SAPS  H11A 9885   0.746   6.046   6.392 -0.2591  0.3202 -0.3222
   99SAPS  H11B 9886   0.803   5.899   6.367 -0.0228 -0.1691 -1.9937
   99SAPS     P 9887   0.596   5.729   6.404 -0.1273 -0.0775  0.0820
   99SAPS   O13 9888   0.455   5.693   6.442  0.3805 -0.5236 -0.2783
   99SAPS   O14 9889   0.648   5.671   6.278  0.1368 -0.1291 -0.3368
   99SAPS   O12 9890   0.602   5.890   6.404  0.3125  0.2998 -0.1791
   99SAPS   O11 9891   0.706   5.700   6.514  0.2541  0.2403 -0.2043
   99SAPS    C1 9892   0.719   5.589   6.600 -0.2482 -0.1139  0.2619
   99SAPS    HA 9893   0.656   5.505   6.563 -2.6015  1.5188  0.3438
   99SAPS    HB 9894   0.821   5.547   6.585  0.2242  1.1178 -0.1269
   99SAPS    C2 9895   0.682   5.628   6.743 -0.9827 -0.4385  0.5053
   99SAPS    HS 9896   0.753   5.709   6.771 -0.2240 -0.7919 -0.3220
   99SAPS   O21 9897   0.704   5.508   6.821 -0.5320 -0.1878  0.2660
   99SAPS   C21 9898   0.800   5.532   6.915 -0.7322 -0.1133  0.7543
   99SAPS   O22 9899   0.883   5.623   6.908  0.3464 -0.4826 -0.1877
   99SAPS   C22 9900   0.800   5.427   7.024 -0.1478  0.1479 -0.4465
   99SAPS   H2R 9901   0.782   5.333   6.968 -1.9622 -1.4034  2.4948
   99SAPS   H2S 9902   0.902   5.420   7.068 -1.5728  0.9278  3.3901
   99SAPS    C3 9903   0.530   5.675   6.752 -0.4437  0.1968  0.5733
   99SAPS    HX 9904   0.480   5.586   6.710 -3.9025  2.2251 -0.0012
   99SAPS    HY 9905   0.520   5.764   6.686 -1.3698  0.2460  0.7743
   99SAPS   O31 9906   0.493   5.700   6.884  0.0349 -0.1145  0.1898
   99SAPS   C31 9907   0.353   5.705   6.893 -0.5050  0.1538 -0.8500
   99SAPS   O32 9908   0.283   5.706   6.795 -0.9348  0.5596 -0.1316
   99SAPS   C32 9909   0.297   5.713   7.041 -0.6859 -0.5299 -0.2097
   99SAPS   H2X 9910   0.288   5.820   7.071  0.7127 -0.5645  0.3801
   99SAPS   H2Y 9911   0.374   5.682   7.114 -0.7701  0.5156  0.3426
   99SAPS   C23 9912   0.696   5.437   7.138 -0.1693 -0.4672 -0.0901
   99SAPS   H3R 9913   0.699   5.338   7.188 -1.1939 -1.3919 -1.7758
   99SAPS   H3S 9914   0.595   5.444   7.092 -1.2505  0.7727  2.3209
   99SAPS   C24 9915   0.726   5.552   7.236  0.2184 -0.4338  0.0723
   99SAPS   H4R 9916   0.708   5.642   7.173 -0.9772 -0.4623  0.3410
   99SAPS   H4S 9917   0.831   5.555   7.270  0.6841  3.4691 -1.1626
   99SAPS   C25 9918   0.622   5.536   7.348 -0.6868  0.5955 -0.3856
   99SAPS   H5R 9919   0.591   5.436   7.381  2.3181 -0.1520  0.4452
   99SAPS   C26 9920   0.575   5.637   7.423  0.4409 -0.5628  0.2903
   99SAPS   H6R 9921   0.488   5.616   7.487  0.8446  1.2073  1.4867
   99SAPS   C27 9922   0.591   5.790   7.412 -0.1549 -0.9686  0.2990
   99SAPS   H7R 9923   0.678   5.808   7.345 -0.7125 -0.4814 -0.3090
   99SAPS   H7S 9924   0.601   5.845   7.508 -0.7890  2.1888 -1.3144
   99SAPS   C28 9925   0.467   5.858   7.348  0.2642 -0.0182 -0.2968
   99SAPS   H8R 9926   0.468   5.849   7.238  1.4734  3.0638 -0.6556
   99SAPS   C29 9927   0.359   5.909   7.411  0.7623 -0.4558  0.6448
   99SAPS   H9R 9928   0.280   5.952   7.347  0.8961  1.6737  1.8336
   99SAPS  C210 9929   0.324   5.919   7.561 -0.5511 -0.4782 -0.0471
   99SAPS  H10R 9930   0.323   5.817   7.605  0.6269 -0.6555 -0.3999
   99SAPS  H10S 9931   0.223   5.964   7.569 -1.4128 -1.9022 -2.0786
   99SAPS  C211 9932   0.413   6.011   7.648  0.1104 -0.1165 -0.0366
   99SAPS  H11R 9933   0.517   5.975   7.654  0.5591  1.1190 -0.0921
   99SAPS  C212 9934   0.371   6.117   7.724  0.2774 -0.1515 -0.2151
   99SAPS  H12R 9935   0.444   6.150   7.799 -0.9347  2.6568 -0.1237
   99SAPS  C213 9936   0.232   6.185   7.736  0.5945  0.1877 -0.2306
   99SAPS  H13R 9937   0.155   6.113   7.770  1.0599 -0.6381 -0.8910
   99SAPS  H13S 9938   0.191   6.206   7.635  0.6804  1.1407 -0.0736
   99SAPS  C214 9939   0.220   6.308   7.818 -0.4638  0.4666  0.5618
   99SAPS  H14R 9940   0.230   6.405   7.766 -0.8986  0.7549  0.9971
   99SAPS  C215 9941   0.193   6.311   7.949  0.3326 -0.1380  0.1229
   99SAPS  H15R 9942   0.198   6.410   7.997  2.2494  0.1907 -0.6719
   99SAPS  C216 9943   0.174   6.189   8.046  0.6324 -0.4903 -0.2153
   99SAPS  H16R 9944   0.180   6.085   8.008 -0.7568  0.3564 -3.0960
   99SAPS  H16S 9945   0.064   6.196   8.065  0.4179  0.8654 -1.6785
   99SAPS  C217 9946   0.245   6.209   8.180  0.6620 -0.1139 -0.0127
   99SAPS  H17R 9947   0.350   6.241   8.165  0.5360 -0.3146 -1.4502
   99SAPS  H17S 9948   0.252   6.107   8.224  0.8248 -0.7900 -1.5366
   99SAPS  C218 9949   0.180   6.309   8.275 -0.5289 -0.0639 -0.1640
   99SAPS  H18R 9950   0.093   6.259   8.324  0.0387 -0.1094  0.8332
   99SAPS  H18S 9951   0.135   6.404   8.238 -0.7315  0.6720  1.8445
   99SAPS  C219 9952   0.279   6.369   8.384 -0.8644 -0.2402  0.1304
   99SAPS  H19R 9953   0.217   6.440   8.444  1.2481  0.2181  1.8837
   99SAPS  H19S 9954   0.357   6.427   8.331 -0.3756 -1.0669 -0.0746
   99SAPS  C220 9955   0.349   6.274   8.480 -0.1448  0.4791  0.3581
   99SAPS  H20R 9956   0.286   6.187   8.506  1.3396 -0.6042  0.5096
   99SAPS  H20S 9957   0.378   6.331   8.570  0.0352  2.5995 -0.9789
   99SAPS  H20T 9958   0.438   6.228   8.432 -0.5676 -1.3705  1.2561
   99SAPS   C33 9959   0.170   5.633   7.070  0.2522  0.0094  0.0096
   99SAPS   H3X 9960   0.182   5.528   7.036 -0.3235 -0.5148  1.3240
   99SAPS   H3Y 9961   0.085   5.679   7.016 -0.3753 -2.4077 -1.1889
   99SAPS   C34 9962   0.141   5.640   7.225 -0.0113 -0.1968  0.3467
   99SAPS   H4X 9963   0.141   5.745   7.259 -0.2131 -0.0230 -0.1740
   99SAPS   H4Y 9964   0.225   5.597   7.284  0.0714 -0.1599  0.2570
   99SAPS   C35 9965   0.012   5.560   7.271 -0.4509 -0.2639 -0.1764
   99SAPS   H5X 9966   0.025   5.460   7.223  0.0177  0.0859 -0.7932
   99SAPS   H5Y 9967  -0.084   5.603   7.237 -0.4048 -0.5910 -0.7220
   99SAPS   C36 9968   0.021   5.547   7.419 -0.8224  0.6244 -0.5674
   99SAPS   H6X 9969   0.126   5.515   7.433 -0.7799  0.6783 -0.7570
   99SAPS   H6Y 9970  -0.043   5.463   7.454 -0.2099  0.6982  0.7608
   99SAPS   C37 9971  -0.004   5.667   7.515  0.1190 -0.1695  0.4345
   99SAPS   H7X 9972  -0.114   5.685   7.521  0.4200  2.5338 -0.8440
   99SAPS   H7Y 9973   0.044   5.752   7.463  1.7399  0.0735  2.2122
   99SAPS   C38 9974   0.054   5.634   7.650  0.2870  0.0665  0.2485
   99SAPS   H8X 9975   0.164   5.643   7.651  0.3170  0.0760 -0.9698
   99SAPS   H8Y 9976   0.025   5.534   7.690 -0.2178  0.4099  0.7560
   99SAPS   C39 9977  -0.001   5.736   7.750  0.5185 -0.0926 -0.0960
   99SAPS   H9X 9978  -0.104   5.710   7.780  0.9716 -0.9958  0.7017
   99SAPS   H9Y 9979   0.001   5.836   7.701  0.5202 -0.5647 -1.0798
   99SAPS  C310 9980   0.085   5.731   7.877  0.1182 -0.8597 -0.1880
   99SAPS  H10X 9981   0.185   5.768   7.844  0.7446  0.3552  2.6834
   99SAPS  H10Y 9982   0.096   5.633   7.928 -0.0197 -0.1091  1.3738
   99SAPS  C311 9983   0.030   5.821   7.985  0.1857 -0.2795  0.2263
   99SAPS  H11X 9984  -0.009   5.908   7.928 -0.0947 -1.3902 -1.3419
   99SAPS  H11Y 9985   0.115   5.870   8.037  0.1715  1.8878 -1.6634
   99SAPS  C312 9986  -0.064   5.753   8.077 -0.2314  0.2442  0.1351
   99SAPS  H12X 9987  -0.020   5.666   8.130  1.5550  1.1832  0.2841
   99SAPS  H12Y 9988  -0.142   5.712   8.009  0.0259 -0.3158  0.1747
   99SAPS  C313 9989  -0.136   5.848   8.178  0.1207 -1.0461  0.2157
   99SAPS  H13X 9990  -0.228   5.791   8.204 -1.5692  0.5622 -1.9173
   99SAPS  H13Y 9991  -0.169   5.934   8.117 -0.4472 -1.4279 -0.0298
   99SAPS  C314 9992  -0.048   5.867   8.300 -0.5481 -0.6931 -0.5156
   99SAPS  H14X 9993  -0.089   5.954   8.356  1.6662  0.9422 -1.2600
   99SAPS  H14Y 9994   0.058   5.894   8.283 -0.6961  0.6224  0.4906
   99SAPS  C315 9995  -0.059   5.744   8.395 -0.0903  0.3608  0.3756
   99SAPS  H15X 9996  -0.015   5.658   8.340  0.5824  0.5132  0.6632
   99SAPS  H15Y 9997  -0.165   5.715   8.411 -0.7421  0.5729 -2.8262
   99SAPS  C316 9998   0.004   5.769   8.528  0.0562 -0.9586 -0.2619
   99SAPS  H16X 9999  -0.049   5.852   8.580 -0.1631 -1.6295  0.6259
   99SAPS  H16Y10000   0.099   5.824   8.514 -1.1582  1.5758  0.9091
   99SAPS  C31710001   0.017   5.648   8.623 -0.0388 -0.1583  0.2072
   99SAPS  H17X10002  -0.081   5.595   8.625 -0.3590  0.3352 -1.5530
   99SAPS  H17Y10003   0.030   5.698   8.722  0.6597  0.6099 -0.2567
   99SAPS  C31810004   0.141   5.556   8.595 -0.2926  0.1516 -0.1673
   99SAPS  H18X10005   0.142   5.457   8.647  0.8797 -0.6972 -1.7295
   99SAPS  H18Y10006   0.228   5.608   8.641  0.4432 -0.9559 -0.2747
   99SAPS  H18Z10007   0.154   5.546   8.485  3.2772  0.2282  0.1511
  100SAPS     N10008   2.689   1.809   6.337 -0.2718  0.3904  0.0737
  100SAPS   HN110009   2.676   1.736   6.410  2.4207 -0.5028 -0.2398
  100SAPS   HN210010   2.776   1.790   6.285  0.3473 -0.3459  1.3348
  100SAPS   HN310011   2.692   1.908   6.372 -0.6639  0.1344  0.8691
  100SAPS   C1210012   2.574   1.811   6.239  1.0365  0.7489 -0.6704
  100SAPS  H12A10013   2.484   1.837   6.292  1.7645  1.4478  0.2468
  100SAPS   C1310014   2.587   1.922   6.131  0.6880  0.1182 -0.2576
  100SAPS  O13A10015   2.692   1.993   6.113 -0.6269  0.1218  0.3716
  100SAPS  O13B10016   2.494   1.929   6.051  0.1599  0.0572 -0.4685
  100SAPS   C1110017   2.550   1.668   6.199  0.9571  0.8930 -1.1552
  100SAPS  H11A10018   2.638   1.620   6.150 -0.0499 -0.2767 -1.8724
  100SAPS  H11B10019   2.477   1.671   6.116 -1.1644  1.3905  0.6312
  100SAPS     P10020   2.458   1.450   6.313  0.2015 -0.3376  0.1281
  100SAPS   O1310021   2.304   1.451   6.300  0.3968 -1.3242 -0.0689
  100SAPS   O1410022   2.523   1.364   6.215 -0.1924 -0.1690  0.2935
  100SAPS   O1210023   2.508   1.597   6.318 -0.4258 -0.0747 -0.0049
  100SAPS   O1110024   2.491   1.408   6.464  0.1163 -0.1546  0.0075
  100SAPS    C110025   2.430   1.286   6.505 -0.7696 -0.0346 -0.0342
  100SAPS    HA10026   2.327   1.304   6.543 -0.0162  0.7777  1.7415
  100SAPS    HB10027   2.426   1.215   6.420  1.5028  0.6345 -0.7526
  100SAPS    C210028   2.526   1.216   6.604 -1.1310  0.0179  0.1538
  100SAPS    HS10029   2.606   1.171   6.541 -1.4135 -1.6581  0.9427
  100SAPS   O2110030   2.466   1.112   6.682 -0.1147  0.1942  0.1923
  100SAPS   C2110031   2.473   0.989   6.630  0.5589  0.3778  0.4607
  100SAPS   O2210032   2.544   0.959   6.531 -0.0597 -0.2850  0.2015
  100SAPS   C2210033   2.390   0.896   6.712 -0.2907 -0.0826 -0.7175
  100SAPS   H2R10034   2.428   0.893   6.816  1.7914 -1.1954 -1.4509
  100SAPS   H2S10035   2.285   0.932   6.719  0.9579  3.5210  2.8679
  100SAPS    C310036   2.602   1.307   6.698  0.0220 -0.2885 -0.4484
  100SAPS    HX10037   2.532   1.336   6.779  0.1062  1.0923 -0.8507
  100SAPS    HY10038   2.627   1.404   6.651  1.2070 -0.5720 -0.4435
  100SAPS   O3110039   2.726   1.234   6.733  0.7696  0.3433 -0.2697
  100SAPS   C3110040   2.723   1.184   6.859 -0.2722 -0.3240 -0.6336
  100SAPS   O3210041   2.633   1.199   6.940 -0.4971 -0.8425 -0.0983
  100SAPS   C3210042   2.849   1.098   6.887 -0.5413 -0.2547  0.9484
  100SAPS   H2X10043   2.933   1.143   6.829 -2.2545  0.7641 -0.8618
  100SAPS   H2Y10044   2.833   0.996   6.845  1.7944 -0.7733  1.1944
  100SAPS   C2310045   2.413   0.750   6.668 -0.3308  0.0849  0.2200
  100SAPS   H3R10046   2.522   0.735   6.681 -0.3275  0.0163  0.1085
  100SAPS   H3S10047   2.364   0.730   6.571 -1.2734 -1.4262  0.9675
  100SAPS   C2410048   2.340   0.654   6.767  0.3109 -0.6573  0.2753
  100SAPS   H4R10049   2.232   0.674   6.755  0.1706 -0.4110  1.7671
  100SAPS   H4S10050   2.378   0.672   6.870  0.1394  0.1207  0.2086
  100SAPS   C2510051   2.372   0.517   6.737 -0.3203  1.1387  0.1851
  100SAPS   H5R10052   2.480   0.497   6.740 -0.0780  2.0017 -1.4386
  100SAPS   C2610053   2.280   0.414   6.715 -0.6873 -0.3775 -0.0806
  100SAPS   H6R10054   2.315   0.314   6.687 -0.7782 -0.5780  0.5053
  100SAPS   C2710055   2.129   0.420   6.706 -0.1626 -0.0136  0.4848
  100SAPS   H7R10056   2.113   0.409   6.596 -0.6555  1.2862  0.4055
  100SAPS   H7S10057   2.092   0.523   6.726 -3.9381 -0.8775 -1.1435
  100SAPS   C2810058   2.052   0.314   6.776 -0.3247  0.2872  0.0447
  100SAPS   H8R10059   2.009   0.244   6.703 -2.9337  1.2518  0.5423
  100SAPS   C2910060   2.025   0.300   6.907  0.3624 -0.1463 -0.2476
  100SAPS   H9R10061   1.977   0.207   6.938 -0.6032 -0.2960 -2.0296
  100SAPS  C21010062   2.074   0.388   7.022  0.1749  0.6647 -0.9744
  100SAPS  H10R10063   2.105   0.487   6.983  2.1071  1.7585  2.8292
  100SAPS  H10S10064   2.170   0.350   7.062  0.0078  2.6431  1.5463
  100SAPS  C21110065   1.972   0.410   7.132  0.2967  0.4729  0.2135
  100SAPS  H11R10066   1.867   0.425   7.103  0.3134 -1.8485 -1.2443
  100SAPS  C21210067   2.001   0.431   7.256  0.1792 -0.1538  0.2468
  100SAPS  H12R10068   1.918   0.450   7.325  0.1043 -0.3849  0.2209
  100SAPS  C21310069   2.140   0.427   7.307  0.3978  0.1919  0.3302
  100SAPS  H13R10070   2.195   0.340   7.265  2.4045  0.6081  1.9727
  100SAPS  H13S10071   2.141   0.400   7.415 -0.5417  1.5360  0.6971
  100SAPS  C21410072   2.210   0.562   7.273 -0.4621  0.9285 -0.0055
  100SAPS  H14R10073   2.161   0.607   7.186  2.4311  1.5095 -1.4570
  100SAPS  C21510074   2.315   0.613   7.345  0.2210  0.2373  0.0491
  100SAPS  H15R10075   2.361   0.709   7.316 -0.3184  0.1274 -1.2414
  100SAPS  C21610076   2.386   0.556   7.465 -0.1489  0.4003 -0.9491
  100SAPS  H16R10077   2.351   0.451   7.472 -0.9289  0.7804  2.5812
  100SAPS  H16S10078   2.359   0.604   7.561  0.2617 -0.6172 -0.3088
  100SAPS  C21710079   2.537   0.565   7.435  0.4342  0.4309 -0.0903
  100SAPS  H17R10080   2.549   0.672   7.407 -1.7171  0.7474  0.0685
  100SAPS  H17S10081   2.558   0.500   7.348 -0.1453 -0.5821  0.5191
  100SAPS  C21810082   2.637   0.553   7.555 -0.3010 -0.7840 -0.1896
  100SAPS  H18R10083   2.612   0.456   7.603  0.2659 -1.0098 -0.3318
  100SAPS  H18S10084   2.634   0.645   7.617  2.4716 -0.2518 -0.6953
  100SAPS  C21910085   2.784   0.551   7.498  0.8537 -0.0487 -0.4446
  100SAPS  H19R10086   2.803   0.460   7.438 -1.2075 -2.2173  1.9246
  100SAPS  H19S10087   2.852   0.537   7.585 -0.3430 -2.2492  0.2381
  100SAPS  C22010088   2.840   0.675   7.429 -0.0741  0.1431  0.5082
  100SAPS  H20R10089   2.810   0.772   7.474  0.7295  0.1338  1.0799
  100SAPS  H20S10090   2.803   0.675   7.324  3.4648  2.7497 -0.9612
  100SAPS  H20T10091   2.945   0.660   7.395 -0.4020 -1.6880  0.2082
  100SAPS   C3310092   2.884   1.084   7.039 -0.0376  0.2602 -0.9018
  100SAPS   H3X10093   2.801   1.028   7.087 -0.5807 -0.8523 -3.0186
  100SAPS   H3Y10094   2.891   1.190   7.070  0.5380  0.5087 -1.8503
  100SAPS   C3410095   3.007   0.995   7.065  0.1691 -0.1402 -0.3679
  100SAPS   H4X10096   3.104   1.044   7.041  0.0198  0.2473 -0.1923
  100SAPS   H4Y10097   3.004   0.904   7.001  0.2934 -0.3862 -0.0241
  100SAPS   C3510098   3.018   0.952   7.213 -0.2745 -0.0993 -0.1863
  100SAPS   H5X10099   2.936   0.882   7.241  0.7191 -0.8808  0.8513
  100SAPS   H5Y10100   2.996   1.039   7.279 -0.0036  0.3457 -0.6821
  100SAPS   C3610101   3.141   0.869   7.247 -0.4605  0.8236  0.6856
  100SAPS   H6X10102   3.230   0.907   7.193 -1.2188 -0.8922 -1.9653
  100SAPS   H6Y10103   3.125   0.769   7.202  1.8899 -0.0301  1.5639
  100SAPS   C3710104   3.161   0.851   7.399  0.0106  0.1705  0.3411
  100SAPS   H7X10105   3.062   0.832   7.446 -0.3902  0.9986 -0.1481
  100SAPS   H7Y10106   3.209   0.941   7.442 -0.7001  0.1246  1.2641
  100SAPS   C3810107   3.259   0.739   7.433  0.2235 -0.0235  0.0931
  100SAPS   H8X10108   3.351   0.767   7.377  1.6555 -0.1847  2.2544
  100SAPS   H8Y10109   3.213   0.644   7.399  0.5558 -0.1077 -0.1273
  100SAPS   C3910110   3.280   0.739   7.584  0.7300 -0.6801  0.4494
  100SAPS   H9X10111   3.195   0.697   7.643 -1.8956  0.2386 -2.3806
  100SAPS   H9Y10112   3.293   0.847   7.608  0.5719 -0.3403 -0.9290
  100SAPS  C31010113   3.408   0.659   7.611 -0.2288 -0.8488 -0.4171
  100SAPS  H10X10114   3.500   0.705   7.570 -0.4773 -0.8364 -0.9771
  100SAPS  H10Y10115   3.404   0.557   7.566 -1.7171 -1.0598  0.1452
  100SAPS  C31110116   3.431   0.632   7.763  0.0008  0.5749 -0.9601
  100SAPS  H11X10117   3.479   0.533   7.777  0.8280  0.9147 -1.2790
  100SAPS  H11Y10118   3.334   0.643   7.815  0.6298  1.9290 -0.0007
  100SAPS  C31210119   3.526   0.734   7.826  0.0423  0.0819 -0.6099
  100SAPS  H12X10120   3.482   0.832   7.799 -1.3901 -0.7318 -1.3262
  100SAPS  H12Y10121   3.625   0.726   7.776 -0.3369  1.6745 -1.6759
  100SAPS  C31310122   3.524   0.731   7.983  0.9765  0.6408 -0.6052
  100SAPS  H13X10123   3.548   0.631   8.023  0.4158 -0.1080 -2.0805
  100SAPS  H13Y10124   3.418   0.749   8.011  1.3290 -1.0625  2.1057
  100SAPS  C31410125   3.614   0.837   8.045  0.4957  0.0675  0.4311
  100SAPS  H14X10126   3.582   0.935   8.005  1.2295 -0.0163 -0.3788
  100SAPS  H14Y10127   3.719   0.814   8.019  1.0979  0.1130  2.5769
  100SAPS  C31510128   3.591   0.858   8.196  0.0966 -0.3521  0.1928
  100SAPS  H15X10129   3.482   0.861   8.214  0.1099 -0.9767  0.4095
  100SAPS  H15Y10130   3.625   0.961   8.219 -0.9312  0.6982 -2.5688
  100SAPS  C31610131   3.674   0.770   8.284 -0.2694  0.9760 -0.0078
  100SAPS  H16X10132   3.690   0.811   8.386  0.1546  0.4133  0.1561
  100SAPS  H16Y10133   3.782   0.762   8.257 -0.1025 -1.5698  1.1904
  100SAPS  C31710134   3.622   0.623   8.302  0.2803  0.8001 -0.0637
  100SAPS  H17X10135   3.616   0.560   8.211 -0.8309  1.2219 -0.3016
  100SAPS  H17Y10136   3.519   0.641   8.340  0.6023 -1.2192  2.0138
  100SAPS  C31810137   3.701   0.554   8.414 -0.0009  0.0415  0.4165
  100SAPS  H18X10138   3.671   0.448   8.410  1.1198 -0.2990  0.8334
  100SAPS  H18Y10139   3.686   0.607   8.510 -1.8922 -0.5139  0.4813
  100SAPS  H18Z10140   3.806   0.564   8.382  0.3057 -2.1003  0.6182
  101OSM      N10141   1.418   1.973  10.929  0.2974  0.3336 -0.0102
  101OSM    C1510142   1.353   2.108  10.914  0.0613  0.1295 -0.1870
  101OSM   H15A10143   1.415   2.184  10.869 -0.6026  1.9951  1.8320
  101OSM   H15B10144   1.329   2.145  11.013  0.0759 -1.4455  0.4222
  101OSM   H15C10145   1.269   2.119  10.847 -0.4008  0.5340  0.4396
  101OSM    C1410146   1.544   1.995  11.013 -0.2449 -0.4550  0.2289
  101OSM   H14A10147   1.625   1.928  10.988 -0.0665 -0.6425  1.2486
  101OSM   H14B10148   1.515   1.985  11.117  0.6202  1.3303  0.6720
  101OSM   H14C10149   1.573   2.098  11.004 -2.2249  0.1070 -0.2398
  101OSM    C1310150   1.323   1.880  10.990 -0.4067  0.3299 -0.8104
  101OSM   H13A10151   1.379   1.791  11.013 -0.4372  0.9005  1.6807
  101OSM   H13B10152   1.236   1.863  10.929 -0.8776  0.3863 -0.1566
  101OSM   H13C10153   1.272   1.916  11.078 -3.5355  0.4969 -2.5418
  101OSM    C1210154   1.456   1.913  10.787 -0.3178  0.1503  0.1463
  101OSM   H12A10155   1.505   1.818  10.802 -0.9558  0.0926  2.2316
  101OSM   H12B10156   1.538   1.975  10.756  1.2064 -0.6703  2.3046
  101OSM    C1110157   1.354   1.906  10.676  0.3454  0.2038  0.0445
  101OSM   H11A10158   1.404   1.872  10.584  1.0934  1.7996 -0.1613
  101OSM   H11B10159   1.321   2.010  10.658  1.3801  0.8282  1.6071
  101OSM      P10160   1.263   1.659  10.712 -0.1537  0.0942  0.2570
  101OSM    O1310161   1.404   1.618  10.697 -0.2235  0.3989 -0.1488
  101OSM    O1410162   1.190   1.596  10.822 -0.1399 -0.4351  0.0585
  101OSM    O1110163   1.180   1.625  10.576 -0.0032 -0.1893  0.7115
  101OSM    O1210164   1.254   1.813  10.719  0.0368  0.0935  0.2114
  101OSM    C1S10165   1.056   1.683  10.542  0.4367 -0.0449 -0.1924
  101OSM    H1S10166   1.013   1.722  10.636  1.2730  0.0800  0.1447
  101OSM    H1T10167   0.987   1.607  10.501  0.5061 -1.0926  1.5309
  101OSM     NF10168   0.943   1.828  10.388  0.1175  0.2855  0.0996
  101OSM    HNF10169   0.917   1.762  10.317  0.8433  0.2940 -0.1780
  101OSM    C2S10170   1.071   1.793  10.443  0.2591  0.1188  0.4032
  101OSM    H2S10171   1.114   1.882  10.494  1.9902  0.1970 -1.0846
  101OSM    C3S10172   1.173   1.747  10.329  0.4168 -0.1985 -0.5133
  101OSM    H3S10173   1.129   1.653  10.290 -0.2227 -0.6907  1.2721
  101OSM     O310174   1.308   1.726  10.375 -0.3342  0.2450 -0.1075
  101OSM    HO310175   1.305   1.695  10.466  0.2692  1.1408  0.2272
  101OSM    C4S10176   1.174   1.853  10.223  0.0234 -0.0274 -0.3489
  101OSM    H4S10177   1.208   1.953  10.256  2.4980 -0.1328 -2.2659
  101OSM    C5S10178   1.133   1.824  10.095 -1.0101  0.0335  0.7665
  101OSM    H5S10179   1.109   1.721  10.063  0.2551  0.3677 -1.5047
  101OSM    C6S10180   1.130   1.928   9.988 -0.1751  0.3682  0.0834
  101OSM    H6S10181   1.040   1.994   9.985 -2.5447 -2.6173 -2.1608
  101OSM    H6T10182   1.124   1.887   9.884 -0.0302  1.5308 -0.3918
  101OSM    C7S10183   1.256   2.009   9.964  0.0353 -0.0593 -0.0992
  101OSM    H7S10184   1.343   1.940   9.962 -0.4848 -0.7935  1.1044
  101OSM    H7T10185   1.274   2.071  10.055 -0.9891  0.3099 -0.1320
  101OSM    C8S10186   1.248   2.105   9.832 -0.4080 -0.1904 -0.0231
  101OSM    H8S10187   1.327   2.182   9.844  0.2313 -0.6877 -0.9561
  101OSM    H8T10188   1.150   2.156   9.813 -0.8427 -1.3041 -0.9223
  101OSM    C9S10189   1.272   2.030   9.701 -0.2871  0.1945  0.0769
  101OSM    H9S10190   1.200   1.947   9.686 -0.4261  0.1148  1.1525
  101OSM    H9T10191   1.373   1.985   9.717 -1.3541 -2.5139 -0.2006
  101OSM   C10S10192   1.276   2.126   9.583  0.1833  0.2789  0.3227
  101OSM   H10S10193   1.352   2.206   9.599 -0.4828  1.2611 -1.2374
  101OSM   H10T10194   1.177   2.174   9.570 -1.0164 -2.2833 -0.5716
  101OSM   C11S10195   1.322   2.053   9.450  0.6356  0.0774  0.0301
  101OSM   H11S10196   1.259   1.962   9.444  0.7511 -0.0536  0.7517
  101OSM   H11T10197   1.424   2.013   9.471 -0.9622 -2.9485  2.8914
  101OSM   C12S10198   1.331   2.149   9.327 -0.3532  0.2170 -0.4579
  101OSM   H12S10199   1.385   2.239   9.363  2.3548 -1.5957  0.3193
  101OSM   H12T10200   1.232   2.190   9.296 -0.6618  0.6257  0.9678
  101OSM   C13S10201   1.393   2.079   9.204  0.6843 -0.4863  0.0174
  101OSM   H13S10202   1.315   2.037   9.137  0.2356  0.2257  0.0877
  101OSM   H13T10203   1.454   1.991   9.234  1.0566 -0.2150  0.0699
  101OSM   C14S10204   1.479   2.167   9.115 -0.9202 -0.2191  0.2185
  101OSM   H14S10205   1.583   2.165   9.154  0.6228  3.0135 -3.0641
  101OSM   H14T10206   1.432   2.267   9.118  1.5994  1.0504  0.5127
  101OSM   C15S10207   1.507   2.111   8.972  0.9061  0.2120  0.1222
  101OSM   H15S10208   1.414   2.093   8.914  1.7756 -1.2871 -0.8832
  101OSM   H15T10209   1.565   2.016   8.977  0.3462 -0.1749 -0.3973
  101OSM   C16S10210   1.582   2.213   8.886  0.6270  0.8529 -0.4236
  101OSM   H16S10211   1.641   2.154   8.812 -2.9452 -2.0267 -1.2808
  101OSM   H16T10212   1.662   2.267   8.941  1.4830  0.2097 -1.0162
  101OSM   C17S10213   1.504   2.309   8.796 -0.1792 -0.4893 -0.2179
  101OSM   H17S10214   1.441   2.372   8.863 -1.5217 -1.2591 -0.7407
  101OSM   H17T10215   1.439   2.249   8.730  0.9183  0.5415 -2.3494
  101OSM   C18S10216   1.597   2.392   8.708 -0.3860  0.9649 -0.0282
  101OSM   H18S10217   1.592   2.359   8.603 -1.4026  2.0285 -0.3277
  101OSM   H18T10218   1.704   2.383   8.739 -0.1708 -1.8402 -1.2902
  101OSM   H18U10219   1.566   2.498   8.698 -0.8068  0.7149 -1.5826
  101OSM    C1F10220   0.857   1.903  10.455 -0.2419  0.1874  0.1349
  101OSM     OF10221   0.898   1.969  10.550 -0.0990  0.2562  0.1054
  101OSM    C2F10222   0.718   1.896  10.420  0.1418  0.2269 -0.2337
  101OSM    H2F10223   0.654   1.883  10.511  0.0579  0.9529 -0.1875
  101OSM    H2G10224   0.711   1.806  10.354  0.3307  0.8415 -1.0987
  101OSM    C3F10225   0.681   2.023  10.339  0.4469 -0.1275 -0.2004
  101OSM    H3F10226   0.734   2.113  10.379  0.2255 -0.8063  1.7104
  101OSM    H3G10227   0.573   2.044  10.359  0.9562 -0.4405  3.6835
  101OSM    C4F10228   0.712   2.004  10.188  0.1032 -0.3076 -0.5759
  101OSM    H4F10229   0.657   1.925  10.133 -2.1095  1.2627 -0.7288
  101OSM    H4G10230   0.822   1.994  10.183  0.3764  1.7250  0.2839
  101OSM    C5F10231   0.695   2.144  10.117  0.6351 -0.7011 -0.5450
  101OSM    H5F10232   0.740   2.232  10.169 -0.6743  2.3210 -4.0308
  101OSM    H5G10233   0.588   2.156  10.091  1.2420  0.6336 -2.6726
  101OSM    C6F10234   0.772   2.143   9.985 -0.2534  0.3749 -0.5036
  101OSM    H6F10235   0.870   2.093   9.999  0.6397  1.4246 -2.5921
  101OSM    H6G10236   0.793   2.250   9.963 -1.3243  0.2433 -2.2833
  101OSM    C7F10237   0.697   2.073   9.872  0.3614  0.0937 -0.1727
  101OSM    H7F10238   0.612   2.145   9.867  0.3418  0.1608  0.8886
  101OSM    H7G10239   0.651   1.976   9.899 -0.3057  0.5642  0.4002
  101OSM    C8F10240   0.765   2.071   9.736 -0.1406  0.0757 -0.5693
  101OSM    H8F10241   0.839   1.990   9.751 -0.5401 -0.3161 -0.6996
  101OSM    H8G10242   0.812   2.170   9.713  0.5291 -0.9101 -4.0164
  101OSM    C9F10243   0.672   2.042   9.621 -0.3200  0.5562  0.2513
  101OSM    H9F10244   0.570   2.081   9.638 -0.2533  0.6195  0.5082
  101OSM   C10F10245   0.692   1.964   9.512 -0.1717 -0.0529 -0.0901
  101OSM   H10F10246   0.609   1.952   9.440 -1.2171  1.6168  0.7937
  101OSM   C11F10247   0.813   1.880   9.489  0.5156  0.1606 -0.7893
  101OSM   H11F10248   0.791   1.775   9.459 -1.3770  0.4020 -0.3839
  101OSM   H11G10249   0.875   1.877   9.581  1.0402 -1.1521 -1.1586
  101OSM   C12F10250   0.910   1.943   9.382  0.0168 -0.0805 -0.2216
  101OSM   H12F10251   1.007   1.890   9.371  0.4354  0.8659 -1.2353
  101OSM   H12G10252   0.935   2.049   9.405 -1.2467  0.3431 -0.6633
  101OSM   C13F10253   0.863   1.927   9.230  0.1870  0.2180  0.2045
  101OSM   H13F10254   0.766   1.979   9.210 -1.6532 -2.8280  0.5184
  101OSM   H13G10255   0.843   1.818   9.228  0.4808  0.1110  1.8325
  101OSM   C14F10256   0.958   1.994   9.125 -0.0792 -0.4757  0.2947
  101OSM   H14F10257   1.053   1.938   9.137 -0.9132 -1.7478  1.2645
  101OSM   H14G10258   0.969   2.103   9.141  2.1107 -0.1549 -2.6748
  101OSM   C15F10259   0.904   1.971   8.987  0.2182  0.0441  0.9558
  101OSM   H15F10260   0.795   1.993   8.990  0.2064 -0.1092  3.0618
  101OSM   H15G10261   0.917   1.866   8.955  0.1754  0.4194 -0.3382
  101OSM   C16F10262   0.967   2.065   8.892  0.0778 -0.0708 -0.3174
  101OSM   H16F10263   0.979   2.159   8.951  0.9389  0.7651 -1.7546
  101OSM   H16G10264   0.891   2.091   8.815 -2.1139  1.3959  2.1755
  101OSM   C17F10265   1.093   2.006   8.822  0.6843  0.3928  0.3442
  101OSM   H17F10266   1.049   1.922   8.764  2.8540 -1.3594  1.0763
  101OSM   H17G10267   1.168   1.966   8.894  1.7422  1.0775 -0.3427
  101OSM   C18F10268   1.152   2.096   8.708 -0.1361  0.3832 -0.8745
  101OSM   H18F10269   1.168   2.199   8.746  3.4570  0.1017 -1.3005
  101OSM   H18G10270   1.073   2.103   8.630  0.4844 -0.2153 -1.5594
  101OSM   H18H10271   1.249   2.067   8.664 -0.1355  1.8212 -1.9017
  102OSM      N10272   1.096   1.268  10.655  0.0849 -0.2355  0.7659
  102OSM    C1510273   1.127   1.334  10.530 -0.8700  0.2318  0.0916
  102OSM   H15A10274   1.098   1.437  10.545  0.9388  0.9055 -0.7338
  102OSM   H15B10275   1.073   1.285  10.451 -0.2324  1.4640 -1.1541
  102OSM   H15C10276   1.232   1.330  10.504 -0.5734  1.7910  0.8880
  102OSM    C1410277   1.078   1.125  10.631  0.3439 -0.1088 -0.8156
  102OSM   H14A10278   1.167   1.063  10.634 -0.6731 -1.5701  1.1866
  102OSM   H14B10279   1.022   1.112  10.540 -1.0779 -1.1599  0.1699
  102OSM   H14C10280   1.015   1.084  10.708  1.1008  1.3192  0.6244
  102OSM    C1310281   1.214   1.286  10.752  0.3552 -0.5330 -0.0840
  102OSM   H13A10282   1.182   1.253  10.850 -0.6457 -0.9677 -0.5596
  102OSM   H13B10283   1.244   1.390  10.753  2.5630 -1.0935 -1.3937
  102OSM   H13C10284   1.298   1.234  10.708  0.5258  2.1831 -3.4132
  102OSM    C1210285   0.974   1.337  10.716 -0.0151 -0.0325  0.0583
  102OSM   H12A10286   0.995   1.442  10.729 -3.0977  1.5662 -4.9332
  102OSM   H12B10287   0.954   1.277  10.803  1.2308 -2.7288 -1.4149
  102OSM    C1110288   0.849   1.339  10.632 -0.2507  0.6708  0.4416
  102OSM   H11A10289   0.824   1.237  10.596  1.9648 -0.4530  1.8689
  102OSM   H11B10290   0.861   1.401  10.541 -0.6290  0.9477  0.5810
  102OSM      P10291   0.643   1.310  10.795  0.0478  0.0332  0.4104
  102OSM    O1310292   0.715   1.202  10.871  0.0676  0.3657 -0.4065
  102OSM    O1410293   0.573   1.417  10.870  0.0372  0.1503  0.1518
  102OSM    O1110294   0.552   1.248  10.683  0.1610 -0.3634  0.2782
  102OSM    O1210295   0.752   1.393  10.714  0.5903  0.0358 -0.6309
  102OSM    C1S10296   0.477   1.337  10.596 -0.5453 -0.1915  0.2054
  102OSM    H1S10297   0.496   1.445  10.613 -1.7462  0.1316 -0.4306
  102OSM    H1T10298   0.368   1.341  10.619 -0.8336 -0.7285 -1.0009
  102OSM     NF10299   0.420   1.405  10.375  0.1054 -0.3675 -0.3787
  102OSM    HNF10300   0.323   1.385  10.387 -0.0485  0.7971  0.4161
  102OSM    C2S10301   0.495   1.303  10.441  0.0888 -0.8798 -0.2447
  102OSM    H2S10302   0.605   1.309  10.426  0.4393 -1.6710  1.7700
  102OSM    C3S10303   0.458   1.160  10.417  0.4287  0.2772 -0.1562
  102OSM    H3S10304   0.355   1.142  10.455  0.1019 -0.9914 -1.5216
  102OSM     O310305   0.547   1.068  10.474  0.4115  0.0145  0.4313
  102OSM    HO310306   0.599   1.122  10.534 -0.7808  0.7179  0.8623
  102OSM    C4S10307   0.455   1.144  10.265 -0.1530 -0.1518 -0.5658
  102OSM    H4S10308   0.538   1.194  10.213  0.2341 -0.7901 -0.5705
  102OSM    C5S10309   0.368   1.082  10.184 -0.4447 -0.1221  0.1275
  102OSM    H5S10310   0.289   1.021  10.231 -0.3386  1.0849  1.9783
  102OSM    C6S10311   0.369   1.078  10.034 -0.4931  0.3622 -0.4225
  102OSM    H6S10312   0.336   0.978   9.997  1.1354  0.0056 -1.0030
  102OSM    H6T10313   0.471   1.086   9.990  0.8678  0.9060  2.6209
  102OSM    C7S10314   0.273   1.182   9.977  0.3034 -0.4668  0.9382
  102OSM    H7S10315   0.306   1.285  10.003 -0.0765 -0.1312  0.1462
  102OSM    H7T10316   0.171   1.165  10.017 -1.3305  1.0252 -2.2032
  102OSM    C8S10317   0.255   1.168   9.829 -0.7837 -0.1959 -0.4931
  102OSM    H8S10318   0.253   1.058   9.814  2.4273 -0.2925 -1.0653
  102OSM    H8T10319   0.350   1.207   9.787 -0.2022 -1.4312 -0.3850
  102OSM    C9S10320   0.126   1.236   9.786 -0.2917 -0.2536 -0.2503
  102OSM    H9S10321   0.163   1.340   9.793  2.5688 -1.3110  3.2487
  102OSM    H9T10322   0.039   1.232   9.855  0.1145  1.5901  0.4302
  102OSM   C10S10323   0.080   1.204   9.634 -1.1026  0.3520  0.2386
  102OSM   H10S10324  -0.013   1.259   9.606  0.1085  1.7277 -1.2698
  102OSM   H10T10325   0.064   1.095   9.616  0.8175  0.3211 -1.6782
  102OSM   C11S10326   0.185   1.251   9.532  0.2501  0.3833 -0.2245
  102OSM   H11S10327   0.279   1.192   9.541 -0.2988 -0.7598 -1.4957
  102OSM   H11T10328   0.215   1.357   9.545  0.1530  0.3757  0.0733
  102OSM   C12S10329   0.137   1.234   9.388 -0.2573  0.4688  0.3800
  102OSM   H12S10330   0.040   1.280   9.363  0.8259  2.1169 -0.9734
  102OSM   H12T10331   0.133   1.123   9.381  1.7060  0.3942 -0.0439
  102OSM   C13S10332   0.240   1.273   9.285 -1.1375 -0.9856  0.4624
  102OSM   H13S10333   0.328   1.205   9.296 -0.0245 -0.0034 -1.7902
  102OSM   H13T10334   0.267   1.379   9.300  0.8052 -1.6327  1.9931
  102OSM   C14S10335   0.197   1.254   9.141  0.5453 -0.8741  1.0838
  102OSM   H14S10336   0.108   1.318   9.124  1.5068 -0.1753 -2.0017
  102OSM   H14T10337   0.175   1.151   9.106  0.0950 -0.3341 -0.2889
  102OSM   C15S10338   0.306   1.311   9.050 -0.2411  0.7358  0.4672
  102OSM   H15S10339   0.391   1.240   9.051 -1.4559 -0.7436  1.5777
  102OSM   H15T10340   0.346   1.404   9.096 -0.5310  0.5823  1.0394
  102OSM   C16S10341   0.254   1.337   8.902  0.1739 -0.2699 -0.1854
  102OSM   H16S10342   0.170   1.409   8.913 -0.0294 -0.5229 -0.0757
  102OSM   H16T10343   0.212   1.239   8.872 -0.1871 -0.7448  1.7244
  102OSM   C17S10344   0.359   1.370   8.803  0.3535  0.6728  0.2067
  102OSM   H17S10345   0.399   1.469   8.833  0.8807  0.4927  0.1196
  102OSM   H17T10346   0.310   1.395   8.706 -2.0837  1.4368  1.5447
  102OSM   C18S10347   0.471   1.270   8.788  0.0288 -0.2165  0.9868
  102OSM   H18S10348   0.529   1.250   8.880 -0.1061 -0.8510  0.9416
  102OSM   H18T10349   0.546   1.285   8.707 -0.4477 -0.8197  0.4231
  102OSM   H18U10350   0.416   1.175   8.769 -1.2929  0.5382  0.8940
  102OSM    C1F10351   0.469   1.523  10.347 -0.1625 -0.0832 -0.2885
  102OSM     OF10352   0.589   1.543  10.345 -0.2226 -0.5966  0.1803
  102OSM    C2F10353   0.379   1.637  10.324  0.0436  0.1013 -0.0763
  102OSM    H2F10354   0.425   1.723  10.377  0.1722  0.3174 -0.5320
  102OSM    H2G10355   0.272   1.618  10.346 -0.4302  1.1340 -1.3449
  102OSM    C3F10356   0.388   1.701  10.180  0.0446 -0.7137  0.4090
  102OSM    H3F10357   0.485   1.751  10.163  0.7138 -1.0020  2.9365
  102OSM    H3G10358   0.311   1.780  10.193 -1.4177 -2.0933  0.4681
  102OSM    C4F10359   0.325   1.611  10.064 -0.1485  0.0850 -1.3126
  102OSM    H4F10360   0.228   1.569  10.099 -1.2311  1.3017 -2.7146
  102OSM    H4G10361   0.394   1.527  10.039 -0.7725 -0.8435 -0.0477
  102OSM    C5F10362   0.289   1.685   9.941 -0.0903 -0.0108 -0.0179
  102OSM    H5F10363   0.216   1.766   9.960  0.2028  0.6372 -1.4914
  102OSM    H5G10364   0.235   1.614   9.873 -0.1464  0.5695 -0.5868
  102OSM    C6F10365   0.409   1.719   9.852 -1.1980  1.1051  0.4245
  102OSM    H6F10366   0.442   1.627   9.800  1.1239  2.2247 -0.2250
  102OSM    H6G10367   0.484   1.763   9.921  0.1829  1.2178 -1.0882
  102OSM    C7F10368   0.393   1.833   9.748 -0.5301 -0.4175 -1.2273
  102OSM    H7F10369   0.490   1.841   9.695  0.2109  0.4078  0.1819
  102OSM    H7G10370   0.377   1.935   9.790  0.1566 -0.5029 -0.7329
  102OSM    C8F10371   0.283   1.811   9.639 -0.3909 -0.2783 -0.3810
  102OSM    H8F10372   0.285   1.907   9.584  1.0021  0.5114  0.9618
  102OSM    H8G10373   0.181   1.819   9.682 -0.2936 -1.2243  0.0459
  102OSM    C9F10374   0.295   1.685   9.556  0.3136 -0.2422  0.4471
  102OSM    H9F10375   0.281   1.592   9.612  1.1887 -1.6555 -1.5556
  102OSM   C10F10376   0.338   1.679   9.429 -0.4612  0.6494  0.2117
  102OSM   H10F10377   0.341   1.581   9.380 -2.6133  1.2435 -1.2500
  102OSM   C11F10378   0.376   1.791   9.342 -0.3797 -1.3648  0.0350
  102OSM   H11F10379   0.385   1.881   9.406  0.8731  0.8067 -2.9344
  102OSM   H11G10380   0.299   1.824   9.269 -2.2041  1.9409  3.1586
  102OSM   C12F10381   0.508   1.768   9.275 -0.7425 -0.9462 -0.3144
  102OSM   H12F10382   0.586   1.747   9.351  0.4552  3.3500 -0.1066
  102OSM   H12G10383   0.541   1.862   9.225  2.4259 -1.3731  0.7779
  102OSM   C13F10384   0.511   1.668   9.163 -0.0031 -0.5700  0.1529
  102OSM   H13F10385   0.438   1.684   9.080  1.9302  1.5838 -1.2660
  102OSM   H13G10386   0.491   1.574   9.218 -0.3086 -1.3051 -1.1625
  102OSM   C14F10387   0.648   1.661   9.096  0.6321  0.0844 -1.1333
  102OSM   H14F10388   0.728   1.662   9.174 -1.3493  0.8492  0.9827
  102OSM   H14G10389   0.673   1.749   9.033 -2.0166  0.4919 -1.6981
  102OSM   C15F10390   0.659   1.544   9.002 -0.3064  0.6276  0.2259
  102OSM   H15F10391   0.628   1.555   8.896  0.7438 -0.7502 -0.2478
  102OSM   H15G10392   0.600   1.468   9.057 -0.7601  1.3677  0.7996
  102OSM   C16F10393   0.808   1.499   8.997 -0.0483 -0.0356 -0.4218
  102OSM   H16F10394   0.836   1.483   9.104 -0.5418 -2.5155 -0.5964
  102OSM   H16G10395   0.866   1.582   8.952  0.9022 -0.8399 -0.6989
  102OSM   C17F10396   0.848   1.375   8.913  1.5037  0.8499 -1.0451
  102OSM   H17F10397   0.781   1.294   8.948  0.8543  2.3831  1.5296
  102OSM   H17G10398   0.952   1.350   8.945 -0.0623 -3.0275  1.9084
  102OSM   C18F10399   0.844   1.393   8.761 -0.1479  0.0134 -0.6649
  102OSM   H18F10400   0.743   1.424   8.726  1.0031  0.2921 -4.1039
  102OSM   H18G10401   0.856   1.299   8.703  0.4537  0.9920 -2.2227
  102OSM   H18H10402   0.918   1.466   8.721  1.0990 -0.5368  0.5490
  103OSM      N10403   2.719   3.964  11.122  0.3261 -0.4085 -0.6774
  103OSM    C1510404   2.759   3.877  11.234  0.5343 -0.2366 -0.3548
  103OSM   H15A10405   2.821   3.795  11.203  1.8303  1.0713 -1.3328
  103OSM   H15B10406   2.674   3.840  11.290  1.3740  1.7466  2.4256
  103OSM   H15C10407   2.816   3.933  11.306  0.6751 -2.3946  1.3066
  103OSM    C1410408   2.632   4.074  11.191 -0.0791  0.5226  0.7237
  103OSM   H14A10409   2.613   4.146  11.113  3.3059 -0.1307 -0.8790
  103OSM   H14B10410   2.688   4.126  11.268  0.9321  0.0470  0.3350
  103OSM   H14C10411   2.533   4.040  11.217 -0.7635  0.1865 -2.0641
  103OSM    C1310412   2.836   4.034  11.063  0.0087  0.1976 -0.4404
  103OSM   H13A10413   2.895   3.964  11.005 -1.2223  0.1891 -1.7277
  103OSM   H13B10414   2.894   4.084  11.138 -0.1969  0.2308 -0.3035
  103OSM   H13C10415   2.800   4.118  11.006 -2.8095 -0.3139  0.4073
  103OSM    C1210416   2.640   3.885  11.018 -0.3007  0.7380  0.9309
  103OSM   H12A10417   2.543   3.846  11.048 -1.4295  0.1244 -2.8908
  103OSM   H12B10418   2.691   3.792  10.999  0.0960  0.9150  1.1134
  103OSM    C1110419   2.611   3.954  10.882 -1.4951  0.3365 -0.6820
  103OSM   H11A10420   2.564   3.895  10.800  0.3604  1.9567 -3.0127
  103OSM   H11B10421   2.705   3.983  10.831 -0.7525  1.9338  1.4358
  103OSM      P10422   2.392   4.092  10.868  0.1604  0.5426 -0.4690
  103OSM    O1310423   2.306   4.006  10.953  0.5276  0.1728 -0.4700
  103OSM    O1410424   2.371   4.234  10.868  0.7403  0.3834  0.2191
  103OSM    O1110425   2.395   4.024  10.725 -0.1771  0.2237  0.1969
  103OSM    O1210426   2.543   4.076  10.905  0.7838  0.1596 -0.5321
  103OSM    C1S10427   2.476   4.093  10.629 -0.5881 -0.7317 -0.1783
  103OSM    H1S10428   2.579   4.113  10.668 -0.3136  0.3101 -1.3723
  103OSM    H1T10429   2.432   4.192  10.605 -0.2305 -0.7018 -0.7307
  103OSM     NF10430   2.601   4.074  10.407 -0.4444  0.0125 -0.0747
  103OSM    HNF10431   2.592   4.118  10.318 -0.0520  0.6080  0.1742
  103OSM    C2S10432   2.484   4.028  10.490  0.2946  0.5398 -0.1426
  103OSM    H2S10433   2.501   3.919  10.502 -0.2634 -0.2723 -4.9094
  103OSM    C3S10434   2.345   4.051  10.426  0.1100  0.1264 -0.1104
  103OSM    H3S10435   2.320   4.157  10.407  0.1608  0.3563  1.0169
  103OSM     O310436   2.240   3.999  10.510  0.5804  0.6047  0.1896
  103OSM    HO310437   2.274   3.981  10.597  0.7298  0.4364  0.0967
  103OSM    C4S10438   2.340   3.979  10.300 -0.1888  0.5474 -0.6466
  103OSM    H4S10439   2.345   3.870  10.293  0.4621  0.6663 -2.5603
  103OSM    C5S10440   2.336   4.034  10.185 -0.1864 -0.7864  0.0873
  103OSM    H5S10441   2.334   4.144  10.182 -2.0398 -0.7919  0.2175
  103OSM    C6S10442   2.335   3.962  10.055 -0.0286 -0.2888 -0.2492
  103OSM    H6S10443   2.232   3.934  10.023 -0.1318 -0.0806 -0.1003
  103OSM    H6T10444   2.392   3.867  10.065 -0.9550 -0.8624 -0.2718
  103OSM    C7S10445   2.396   4.053   9.948  0.1107  0.1485 -0.2094
  103OSM    H7S10446   2.490   4.105   9.976  0.7980 -0.0466 -1.9885
  103OSM    H7T10447   2.319   4.130   9.929 -0.1905  0.6383  2.6674
  103OSM    C8S10448   2.429   3.995   9.805  0.0886 -0.1863  0.8221
  103OSM    H8S10449   2.523   3.937   9.801 -0.6563 -1.3767 -1.0680
  103OSM    H8T10450   2.436   4.086   9.742  0.0393  0.4308  1.6834
  103OSM    C9S10451   2.320   3.897   9.751 -0.1714  0.1163 -0.1961
  103OSM    H9S10452   2.220   3.936   9.779 -0.7472 -0.3657 -1.5013
  103OSM    H9T10453   2.344   3.803   9.806  1.0490  0.3289 -0.3431
  103OSM   C10S10454   2.339   3.868   9.605 -0.3444  0.0764 -0.2796
  103OSM   H10S10455   2.449   3.868   9.589 -0.1825 -0.8740  0.7006
  103OSM   H10T10456   2.292   3.951   9.547 -3.9422 -1.1524  0.6073
  103OSM   C11S10457   2.271   3.743   9.558  0.1570 -0.3097 -0.6632
  103OSM   H11S10458   2.181   3.730   9.622  0.7849  1.7538  0.7369
  103OSM   H11T10459   2.332   3.655   9.590 -0.1012  0.0739  0.9832
  103OSM   C12S10460   2.238   3.726   9.410  0.6245  0.3299 -0.5899
  103OSM   H12S10461   2.147   3.786   9.384 -0.2424 -0.0931  1.2805
  103OSM   H12T10462   2.218   3.620   9.385 -0.7576  0.9168 -2.1101
  103OSM   C13S10463   2.349   3.781   9.320 -0.6973  0.3614  0.1326
  103OSM   H13S10464   2.441   3.723   9.341 -0.1615  0.6781 -1.2056
  103OSM   H13T10465   2.376   3.887   9.336  2.1372  0.5121 -3.9970
  103OSM   C14S10466   2.326   3.771   9.165 -0.4547 -0.1973 -0.6830
  103OSM   H14S10467   2.263   3.857   9.132 -0.5955  0.8639  2.0946
  103OSM   H14T10468   2.261   3.682   9.149 -0.5936 -0.6039  1.7024
  103OSM   C15S10469   2.457   3.763   9.090  0.3203 -0.2155 -0.1271
  103OSM   H15S10470   2.515   3.669   9.106 -0.0188 -0.9211 -2.6100
  103OSM   H15T10471   2.518   3.853   9.113 -0.1053 -0.1038  0.6053
  103OSM   C16S10472   2.437   3.768   8.941 -0.3114  0.1876 -0.3822
  103OSM   H16S10473   2.378   3.857   8.914 -1.3238 -0.2931  0.1946
  103OSM   H16T10474   2.379   3.681   8.904 -1.8189  0.2979  1.5621
  103OSM   C17S10475   2.569   3.778   8.867  0.3066  0.1588  0.0684
  103OSM   H17S10476   2.621   3.680   8.859 -0.0616 -0.0249 -0.0764
  103OSM   H17T10477   2.632   3.849   8.925 -0.4313  1.5441 -0.7673
  103OSM   C18S10478   2.551   3.829   8.726  0.7413 -0.5511  0.7558
  103OSM   H18S10479   2.642   3.832   8.664  0.3202  0.2879  0.1535
  103OSM   H18T10480   2.509   3.932   8.719  2.4964  0.1911  0.8089
  103OSM   H18U10481   2.474   3.776   8.666  0.7016 -2.3402  2.3031
  103OSM    C1F10482   2.722   4.033  10.435 -0.2533  0.0748  0.3040
  103OSM     OF10483   2.753   3.965  10.533  1.0059 -0.5121 -0.0734
  103OSM    C2F10484   2.825   4.074  10.329 -0.8313 -0.3621  0.4508
  103OSM    H2F10485   2.778   4.093  10.230  1.6667  0.6327 -0.6216
  103OSM    H2G10486   2.891   3.985  10.319  0.0175  0.4311 -1.4844
  103OSM    C3F10487   2.909   4.194  10.377 -0.1862 -0.3352  0.3390
  103OSM    H3F10488   2.954   4.176  10.477  3.3856  2.4995 -0.5313
  103OSM    H3G10489   2.853   4.290  10.382  0.4725  0.0107  1.6310
  103OSM    C4F10490   3.026   4.212  10.280 -1.0699 -0.4997 -0.3521
  103OSM    H4F10491   3.084   4.305  10.300 -1.8105  0.5710 -2.7852
  103OSM    H4G10492   2.982   4.220  10.178 -1.8554  1.6599  0.1149
  103OSM    C5F10493   3.132   4.095  10.272 -0.3147 -0.2043 -0.7032
  103OSM    H5F10494   3.089   4.007  10.219 -1.7990 -0.3074  0.5828
  103OSM    H5G10495   3.158   4.062  10.375 -0.6651  0.5440 -0.3635
  103OSM    C6F10496   3.247   4.125  10.185 -0.7029 -0.1543  0.2128
  103OSM    H6F10497   3.324   4.191  10.231  1.1368 -0.5894 -2.0650
  103OSM    H6G10498   3.221   4.185  10.095  1.5683  0.8747  0.1577
  103OSM    C7F10499   3.329   4.004  10.132 -0.1906 -0.4504  0.0278
  103OSM    H7F10500   3.278   3.958  10.044  0.6685 -0.0930 -0.6655
  103OSM    H7G10501   3.335   3.920  10.204 -2.5381 -1.8792 -1.2955
  103OSM    C8F10502   3.466   4.051  10.067  0.3099 -0.4885  0.1091
  103OSM    H8F10503   3.522   4.101  10.149  1.7293  0.2187 -1.2230
  103OSM    H8G10504   3.452   4.127   9.987  3.8935 -0.7623 -0.9876
  103OSM    C9F10505   3.550   3.940  10.006  0.1508 -0.0231 -0.1624
  103OSM    H9F10506   3.639   3.919  10.067  0.6977  2.9533  0.2062
  103OSM   C10F10507   3.527   3.858   9.901  0.7960 -0.1244  0.4120
  103OSM   H10F10508   3.616   3.802   9.867  1.4606  1.0611  0.1368
  103OSM   C11F10509   3.417   3.856   9.793  0.0489  0.2769 -0.0384
  103OSM   H11F10510   3.320   3.902   9.820  0.0086 -1.1299  2.4343
  103OSM   H11G10511   3.407   3.748   9.769  2.4675  0.0559 -0.2647
  103OSM   C12F10512   3.463   3.949   9.674 -0.3019  0.6528  0.2143
  103OSM   H12F10513   3.570   3.944   9.645 -1.0854 -2.9325 -2.8125
  103OSM   H12G10514   3.441   4.050   9.715 -2.3376  1.4355 -2.4936
  103OSM   C13F10515   3.385   3.921   9.551 -0.0806 -0.3330  0.1468
  103OSM   H13F10516   3.386   3.818   9.511 -0.5256  0.3824 -1.7945
  103OSM   H13G10517   3.277   3.941   9.565 -0.2165  1.5458 -2.7556
  103OSM   C14F10518   3.433   3.996   9.436 -0.3840 -0.5999  0.4135
  103OSM   H14F10519   3.542   3.988   9.455 -0.7200 -0.9268  2.3606
  103OSM   H14G10520   3.394   4.097   9.460 -0.6490 -1.0130  1.8228
  103OSM   C15F10521   3.391   3.963   9.293 -0.0766 -0.2493 -0.5241
  103OSM   H15F10522   3.449   4.027   9.222 -1.4999  2.8632  0.9003
  103OSM   H15G10523   3.282   3.983   9.281 -0.6130 -2.5910  0.0826
  103OSM   C16F10524   3.415   3.819   9.247 -0.5358  0.1422 -0.7296
  103OSM   H16F10525   3.393   3.750   9.331  0.5386  0.6894  0.0179
  103OSM   H16G10526   3.521   3.815   9.214 -0.1994 -0.9495  0.3854
  103OSM   C17F10527   3.333   3.780   9.122 -1.0667 -0.0272 -0.3204
  103OSM   H17F10528   3.357   3.841   9.033  2.1960  0.4007  0.7361
  103OSM   H17G10529   3.224   3.788   9.146 -0.9210  1.4138  0.0117
  103OSM   C18F10530   3.366   3.639   9.072 -0.0060  0.0102 -0.0789
  103OSM   H18F10531   3.281   3.600   9.012 -0.8064  0.8865  0.4855
  103OSM   H18G10532   3.391   3.572   9.157 -2.1110 -0.9628 -0.1748
  103OSM   H18H10533   3.465   3.657   9.024  0.5011  2.6326  1.7540
  104OSM      N10534   0.102   4.266  10.913 -0.2277  0.1654  0.8317
  104OSM    C1510535   0.106   4.400  10.841  0.3484 -0.1266 -0.6394
  104OSM   H15A10536   0.195   4.445  10.882 -0.7502  0.2984  1.3923
  104OSM   H15B10537   0.027   4.460  10.883 -0.0392 -1.8245  1.2070
  104OSM   H15C10538   0.113   4.393  10.733 -1.6428 -0.5593 -0.7702
  104OSM    C1410539   0.222   4.186  10.870 -0.6288 -0.2093 -0.0856
  104OSM   H14A10540   0.314   4.237  10.893 -0.5438 -0.4060  0.0149
  104OSM   H14B10541   0.221   4.172  10.763 -0.5771  0.7676 -0.2175
  104OSM   H14C10542   0.225   4.083  10.903  0.2205 -0.5639 -1.1836
  104OSM    C1310543   0.105   4.286  11.056  0.7378 -0.2708  0.3749
  104OSM   H13A10544   0.021   4.336  11.103  1.0798 -0.0669  0.7745
  104OSM   H13B10545   0.186   4.347  11.093 -0.1242  1.6174 -0.7033
  104OSM   H13C10546   0.111   4.192  11.108 -0.9258  1.0415  3.2550
  104OSM    C1210547  -0.031   4.181  10.875 -0.1565 -0.4225 -1.1369
  104OSM   H12A10548  -0.109   4.234  10.928  0.8902 -1.3093  1.4108
  104OSM   H12B10549  -0.027   4.084  10.921 -2.0226 -0.1513 -0.3131
  104OSM    C1110550  -0.053   4.155  10.719 -0.8004  0.5538  1.0020
  104OSM   H11A10551  -0.065   4.254  10.670 -0.4777 -0.3827 -1.0657
  104OSM   H11B10552  -0.155   4.111  10.713 -0.9776  1.1933 -1.2155
  104OSM      P10553   0.071   3.921  10.658 -0.0200  0.3852 -0.0632
  104OSM    O1310554   0.199   3.881  10.597 -0.3600  0.1058 -0.1015
  104OSM    O1410555   0.057   3.887  10.806  0.1558 -0.3268 -0.4835
  104OSM    O1110556  -0.059   3.865  10.581  0.5230 -0.1070 -0.2358
  104OSM    O1210557   0.048   4.079  10.644  0.2279 -0.0638 -0.2055
  104OSM    C1S10558  -0.089   3.935  10.463 -0.4629  0.1392 -0.2677
  104OSM    H1S10559  -0.004   3.926  10.392  0.3094  2.1612  0.3336
  104OSM    H1T10560  -0.101   4.045  10.473 -0.8374  0.5461 -3.7090
  104OSM     NF10561  -0.231   3.923  10.264  0.3788  0.0407  0.0776
  104OSM    HNF10562  -0.288   4.004  10.251  3.2935  2.2126 -0.1956
  104OSM    C2S10563  -0.223   3.886  10.402 -0.9315  0.6019 -0.4630
  104OSM    H2S10564  -0.230   3.776  10.395  1.6624  0.4251 -1.3107
  104OSM    C3S10565  -0.338   3.938  10.493 -0.1167  0.3234 -0.1418
  104OSM    H3S10566  -0.347   4.046  10.471  1.3764  0.3656 -0.6541
  104OSM     O310567  -0.310   3.928  10.633 -0.0128 -0.3527 -0.3086
  104OSM    HO310568  -0.219   3.898  10.639  0.8072  2.0624  0.2226
  104OSM    C4S10569  -0.462   3.869  10.459  0.3689 -1.0036  0.0327
  104OSM    H4S10570  -0.533   3.925  10.396  1.6491 -0.9458 -1.4190
  104OSM    C5S10571  -0.496   3.749  10.495  0.5489  0.0788 -0.1406
  104OSM    H5S10572  -0.430   3.683  10.553  0.7952  0.9462  0.5956
  104OSM    C6S10573  -0.615   3.674  10.436 -0.3217  0.0214  0.1831
  104OSM    H6S10574  -0.672   3.637  10.524  0.7063  1.1105  1.3656
  104OSM    H6T10575  -0.578   3.591  10.373 -0.2320 -0.6861  1.1303
  104OSM    C7S10576  -0.715   3.762  10.354  0.5413 -0.4985 -0.6019
  104OSM    H7S10577  -0.660   3.787  10.261 -0.7320  0.9723 -0.9992
  104OSM    H7T10578  -0.750   3.854  10.405 -1.4228 -1.8476  0.6474
  104OSM    C8S10579  -0.830   3.675  10.292 -1.2476 -0.1836 -0.2070
  104OSM    H8S10580  -0.892   3.631  10.373 -0.9104  0.0976  0.2088
  104OSM    H8T10581  -0.777   3.593  10.239  0.2087 -0.2383  1.2563
  104OSM    C9S10582  -0.922   3.758  10.213  0.3033  0.1472 -0.0341
  104OSM    H9S10583  -0.966   3.839  10.275  1.6935  2.8771 -2.3374
  104OSM    H9T10584  -1.012   3.699  10.184  0.0784 -0.8709  2.4873
  104OSM   C10S10585  -0.860   3.826  10.089 -0.3625  0.0608 -0.4244
  104OSM   H10S10586  -0.794   3.908  10.126  1.5929 -0.7631 -1.8606
  104OSM   H10T10587  -0.942   3.879  10.036 -1.4335 -0.0851  1.0549
  104OSM   C11S10588  -0.783   3.729   9.998  0.3263 -0.5406 -0.1823
  104OSM   H11S10589  -0.858   3.648   9.983 -2.0100  1.5810 -0.5517
  104OSM   H11T10590  -0.704   3.683  10.062  0.3810  1.8587  1.6128
  104OSM   C12S10591  -0.732   3.783   9.869  0.0987 -0.3988 -0.8271
  104OSM   H12S10592  -0.668   3.871   9.895 -2.9948  1.6726  0.3610
  104OSM   H12T10593  -0.812   3.820   9.801  0.2185 -0.0402 -0.7787
  104OSM   C13S10594  -0.645   3.688   9.786  0.0362  0.1466 -0.6458
  104OSM   H13S10595  -0.699   3.594   9.762 -0.4026  0.0471  0.6548
  104OSM   H13T10596  -0.572   3.661   9.865 -1.9503  1.2840  1.7150
  104OSM   C14S10597  -0.573   3.745   9.663 -0.2890 -0.2011  0.9791
  104OSM   H14S10598  -0.503   3.667   9.626  1.3033  1.5103  0.2380
  104OSM   H14T10599  -0.521   3.841   9.682  0.7690 -0.2677 -1.3099
  104OSM   C15S10600  -0.681   3.774   9.553  0.0817 -0.1249 -0.4328
  104OSM   H15S10601  -0.747   3.860   9.575 -0.3928 -0.5698 -0.0766
  104OSM   H15T10602  -0.751   3.688   9.546 -0.2219  0.1929 -1.4898
  104OSM   C16S10603  -0.623   3.795   9.411  0.8663 -0.2802 -0.3006
  104OSM   H16S10604  -0.538   3.866   9.419  0.1244  0.5149  0.7298
  104OSM   H16T10605  -0.694   3.845   9.342 -0.6953  0.8564  2.0206
  104OSM   C17S10606  -0.571   3.659   9.352  0.4587  0.5608  0.6135
  104OSM   H17S10607  -0.645   3.576   9.342  2.0205 -0.5693 -4.9549
  104OSM   H17T10608  -0.494   3.617   9.419  1.2892  1.4156  0.2146
  104OSM   C18S10609  -0.511   3.686   9.208 -0.3141 -0.4331 -0.6416
  104OSM   H18S10610  -0.427   3.759   9.214  0.9063 -1.8906  1.9933
  104OSM   H18T10611  -0.589   3.719   9.137  0.2107  1.3994 -0.4201
  104OSM   H18U10612  -0.459   3.594   9.174  0.6252 -0.2421  0.2373
  104OSM    C1F10613  -0.163   3.870  10.169 -0.3048  0.0511  0.4621
  104OSM     OF10614  -0.086   3.774  10.194 -0.5862  0.0632  0.2925
  104OSM    C2F10615  -0.185   3.932  10.035 -0.2054 -0.0095  0.6448
  104OSM    H2F10616  -0.125   4.025  10.037 -1.5038  0.8388  1.7002
  104OSM    H2G10617  -0.293   3.956  10.022  0.0938 -0.0249 -2.6758
  104OSM    C3F10618  -0.149   3.834   9.916 -0.1321 -0.1733 -0.4663
  104OSM    H3F10619  -0.220   3.749   9.906  1.3565 -1.5532  0.2086
  104OSM    H3G10620  -0.057   3.778   9.941  0.5732  0.1280 -2.2533
  104OSM    C4F10621  -0.135   3.908   9.781 -0.5110 -0.6858  0.1992
  104OSM    H4F10622  -0.080   4.002   9.803  0.6221 -1.5247  1.0872
  104OSM    H4G10623  -0.240   3.927   9.752 -0.1417  1.0473 -0.1170
  104OSM    C5F10624  -0.040   3.830   9.684  0.1907 -0.8715  0.6223
  104OSM    H5F10625  -0.089   3.730   9.680 -1.4547 -0.0670 -2.0180
  104OSM    H5G10626   0.062   3.818   9.726  0.8641  1.6227 -0.1519
  104OSM    C6F10627  -0.048   3.884   9.535 -0.6971  0.9500  0.3916
  104OSM    H6F10628  -0.010   3.813   9.458 -0.6247  1.8665 -0.4411
  104OSM    H6G10629   0.026   3.967   9.534  2.1105 -1.3416 -1.3893
  104OSM    C7F10630  -0.185   3.928   9.480 -0.0649  0.0498  0.4657
  104OSM    H7F10631  -0.217   4.007   9.551  0.7091  0.3614  0.4695
  104OSM    H7G10632  -0.250   3.838   9.488  0.2035 -0.1256  0.6839
  104OSM    C8F10633  -0.167   3.982   9.337  1.1859  0.1357 -0.3167
  104OSM    H8F10634  -0.187   3.896   9.269  1.4799 -0.1743 -0.0216
  104OSM    H8G10635  -0.063   4.015   9.315  1.2482 -0.6953 -1.3428
  104OSM    C9F10636  -0.253   4.104   9.299 -0.0921  0.1754 -0.2854
  104OSM    H9F10637  -0.241   4.187   9.370  0.7551 -0.6757  0.5898
  104OSM   C10F10638  -0.341   4.117   9.200  0.2563  0.2633 -0.6002
  104OSM   H10F10639  -0.399   4.210   9.189 -0.6183 -0.2282 -0.2122
  104OSM   C11F10640  -0.371   4.015   9.096  0.2811 -0.0132  0.2781
  104OSM   H11F10641  -0.480   3.993   9.099  0.0316  0.6014 -2.1285
  104OSM   H11G10642  -0.318   3.917   9.101  1.2549  0.4551 -0.3610
  104OSM   C12F10643  -0.360   4.069   8.950  0.5051  0.3282 -0.3071
  104OSM   H12F10644  -0.373   3.985   8.879  1.7839  0.4837 -0.7629
  104OSM   H12G10645  -0.266   4.116   8.915  0.6766 -1.5188 -2.5535
  104OSM   C13F10646  -0.485   4.163   8.925  0.2821 -0.1583 -0.4959
  104OSM   H13F10647  -0.492   4.234   9.010 -1.2354 -0.3998 -0.4085
  104OSM   H13G10648  -0.588   4.122   8.922  0.3466 -0.3135 -0.6727
  104OSM   C14F10649  -0.465   4.252   8.791 -0.0202 -0.4520 -0.4724
  104OSM   H14F10650  -0.453   4.187   8.702  1.5904 -0.0121 -0.6039
  104OSM   H14G10651  -0.366   4.301   8.788 -0.2396 -0.0253 -3.0595
  104OSM   C15F10652  -0.572   4.344   8.764  0.0343  0.2805  0.8086
  104OSM   H15F10653  -0.556   4.436   8.823  0.9657  0.7954 -0.2113
  104OSM   H15G10654  -0.670   4.299   8.792  0.1402  0.6546  1.8163
  104OSM   C16F10655  -0.565   4.394   8.621 -0.0707  0.9279  0.2324
  104OSM   H16F10656  -0.646   4.468   8.601 -0.9572 -0.4009 -1.3490
  104OSM   H16G10657  -0.580   4.317   8.543 -2.0758  0.3341  1.1567
  104OSM   C17F10658  -0.445   4.481   8.584 -0.2055  0.3287  0.0545
  104OSM   H17F10659  -0.354   4.417   8.592  0.4084  1.3161  1.2881
  104OSM   H17G10660  -0.432   4.564   8.656 -0.4305  0.9582 -0.6135
  104OSM   C18F10661  -0.457   4.521   8.436 -0.5060 -0.1203 -0.0437
  104OSM   H18F10662  -0.357   4.504   8.391  1.0722  1.5504  2.5260
  104OSM   H18G10663  -0.476   4.629   8.417  0.7034  0.0360 -0.4476
  104OSM   H18H10664  -0.533   4.456   8.389 -2.3892  1.2344  0.9731
  105OSM      N10665   6.447   3.622  11.126 -0.6846 -0.1972 -0.2882
  105OSM    C1510666   6.541   3.721  11.176  0.3637  0.0869 -0.2351
  105OSM   H15A10667   6.575   3.699  11.276  0.6198  0.7164 -0.1815
  105OSM   H15B10668   6.494   3.817  11.193  1.4556  0.6002 -0.0475
  105OSM   H15C10669   6.631   3.736  11.118  0.4376 -0.6944 -0.3253
  105OSM    C1410670   6.505   3.483  11.128 -0.4108 -0.1870 -0.4440
  105OSM   H14A10671   6.436   3.415  11.079 -0.4016 -0.6830  0.2155
  105OSM   H14B10672   6.531   3.447  11.226 -0.4875 -0.7065 -0.6108
  105OSM   H14C10673   6.599   3.477  11.074 -1.1069 -4.3617 -1.5775
  105OSM    C1310674   6.335   3.622  11.233 -0.7534  0.2741 -0.5289
  105OSM   H13A10675   6.264   3.541  11.225  0.0415 -0.3874 -1.2153
  105OSM   H13B10676   6.289   3.719  11.237 -0.7369  0.3117 -1.1316
  105OSM   H13C10677   6.376   3.603  11.331 -0.9015 -0.4504 -0.5990
  105OSM    C1210678   6.379   3.662  10.996 -0.2849  0.5997 -1.5513
  105OSM   H12A10679   6.320   3.752  11.013  1.2093  1.1519  1.4369
  105OSM   H12B10680   6.303   3.588  10.981 -1.8745  2.2398 -1.9999
  105OSM    C1110681   6.465   3.657  10.866  0.0087  0.1513  0.3092
  105OSM   H11A10682   6.549   3.729  10.875  0.4373 -0.4395  1.1377
  105OSM   H11B10683   6.408   3.686  10.775  0.1161 -0.7445 -0.0577
  105OSM      P10684   6.450   3.419  10.764  0.2513 -0.3618  0.0586
  105OSM    O1310685   6.506   3.282  10.786  0.3867 -0.2347 -0.1401
  105OSM    O1410686   6.308   3.443  10.781 -0.2093 -0.0756 -0.1987
  105OSM    O1110687   6.483   3.464  10.617 -0.0466 -0.1766  0.2706
  105OSM    O1210688   6.529   3.528  10.841 -0.6035  0.3126  0.2746
  105OSM    C1S10689   6.600   3.519  10.558  0.1002 -0.4384 -0.5101
  105OSM    H1S10690   6.690   3.492  10.618 -1.0851  0.2058  1.6661
  105OSM    H1T10691   6.595   3.630  10.556 -0.7010 -0.4774 -0.8795
  105OSM     NF10692   6.747   3.566  10.357 -0.2072 -0.1915  0.3469
  105OSM    HNF10693   6.736   3.641  10.292 -0.9803 -0.7072 -0.1323
  105OSM    C2S10694   6.629   3.482  10.410 -0.4573 -0.8487  0.4496
  105OSM    H2S10695   6.654   3.374  10.405 -1.1028 -1.0390  1.0702
  105OSM    C3S10696   6.499   3.489  10.321  0.1687  0.1367  0.6898
  105OSM    H3S10697   6.463   3.594  10.318 -0.1074  0.0411  0.6062
  105OSM     O310698   6.391   3.421  10.373 -0.5073  0.1337  0.6284
  105OSM    HO310699   6.410   3.404  10.465 -0.5595 -4.1019  0.0753
  105OSM    C4S10700   6.525   3.446  10.178 -0.7562 -0.2387  0.3315
  105OSM    H4S10701   6.592   3.522  10.135 -0.5514 -0.5413  0.1073
  105OSM    C5S10702   6.501   3.330  10.109  0.6463 -0.0229  0.4247
  105OSM    H5S10703   6.460   3.238  10.154  2.1507 -0.7497  0.3847
  105OSM    C6S10704   6.527   3.306   9.963 -0.7984 -0.2518 -0.0196
  105OSM    H6S10705   6.443   3.312   9.891 -0.6800 -1.4371 -0.2734
  105OSM    H6T10706   6.584   3.212   9.946  2.3710  1.7424 -1.3711
  105OSM    C7S10707   6.620   3.418   9.897 -0.2987 -0.1870 -0.2749
  105OSM    H7S10708   6.711   3.423   9.960 -0.4694  1.2662 -0.1119
  105OSM    H7T10709   6.570   3.516   9.910  1.8264  0.8463  0.6113
  105OSM    C8S10710   6.654   3.397   9.756  0.2021 -0.0482  0.5617
  105OSM    H8S10711   6.704   3.300   9.735 -2.3327 -1.3500  0.0567
  105OSM    H8T10712   6.726   3.474   9.721 -0.3714 -0.4421 -1.6356
  105OSM    C9S10713   6.529   3.422   9.663  0.5772 -0.3077 -0.2268
  105OSM    H9S10714   6.483   3.516   9.699 -1.9097 -1.3148 -0.5913
  105OSM    H9T10715   6.451   3.343   9.676  1.5603 -1.1589  0.7153
  105OSM   C10S10716   6.569   3.421   9.510  0.7674 -0.1896 -0.5288
  105OSM   H10S10717   6.646   3.494   9.477  1.4801 -0.1433  1.1735
  105OSM   H10T10718   6.476   3.430   9.449 -0.2507 -2.2933  0.6033
  105OSM   C11S10719   6.631   3.288   9.476 -0.2814  0.2917 -0.0915
  105OSM   H11S10720   6.552   3.214   9.501  0.8400 -0.0087  3.0125
  105OSM   H11T10721   6.723   3.273   9.536  0.7869  2.3232 -1.1227
  105OSM   C12S10722   6.683   3.276   9.326  0.2765  0.2072  0.2596
  105OSM   H12S10723   6.768   3.347   9.317  0.2912 -0.0542 -2.6527
  105OSM   H12T10724   6.598   3.287   9.254 -0.2086 -2.0374  0.4197
  105OSM   C13S10725   6.746   3.137   9.299 -0.5505 -0.4708 -0.7284
  105OSM   H13S10726   6.686   3.049   9.330 -1.4162 -0.6309 -2.7125
  105OSM   H13T10727   6.837   3.136   9.362 -3.6358  1.5088  4.3170
  105OSM   C14S10728   6.809   3.126   9.157 -0.6594  0.0764  0.2963
  105OSM   H14S10729   6.887   3.047   9.151 -2.1792 -1.4165 -0.7243
  105OSM   H14T10730   6.857   3.222   9.128  2.1076 -1.0027  0.9500
  105OSM   C15S10731   6.695   3.111   9.055 -0.1523  0.1632 -0.1987
  105OSM   H15S10732   6.632   3.200   9.074  0.5747  0.1395  3.0818
  105OSM   H15T10733   6.633   3.022   9.075 -4.1434  2.3510 -1.7342
  105OSM   C16S10734   6.760   3.096   8.913  0.5843 -0.3124 -0.1702
  105OSM   H16S10735   6.810   2.998   8.928  1.1724 -0.0580 -0.4559
  105OSM   H16T10736   6.839   3.173   8.902 -0.5186  0.5653 -2.3962
  105OSM   C17S10737   6.671   3.082   8.792 -0.0585  0.3050  0.5504
  105OSM   H17S10738   6.717   3.047   8.697 -1.9650  4.2253 -2.0791
  105OSM   H17T10739   6.631   3.183   8.770  0.9565  0.5938 -0.0448
  105OSM   C18S10740   6.554   2.990   8.812 -0.0579  0.1720  0.1166
  105OSM   H18S10741   6.486   2.989   8.725 -0.8376  0.9157  0.7022
  105OSM   H18T10742   6.499   3.024   8.902 -1.2472 -2.9010  0.6864
  105OSM   H18U10743   6.588   2.888   8.839  0.6672  0.2536 -0.4701
  105OSM    C1F10744   6.873   3.548  10.402  0.0729 -0.5664  0.6960
  105OSM     OF10745   6.896   3.467  10.491  0.6555  0.1426  0.6427
  105OSM    C2F10746   6.986   3.645  10.345  0.1339 -0.3302 -0.3366
  105OSM    H2F10747   7.048   3.671  10.433 -1.0320  2.9184 -0.3533
  105OSM    H2G10748   6.942   3.741  10.312  2.2897  0.0341 -2.4811
  105OSM    C3F10749   7.075   3.586  10.237 -0.2141  0.1941  0.3701
  105OSM    H3F10750   7.101   3.481  10.264 -1.2524  0.0217  0.7246
  105OSM    H3G10751   7.169   3.646  10.231  0.4072 -0.5581  1.9830
  105OSM    C4F10752   7.014   3.595  10.098  0.0702  0.0619  0.1296
  105OSM    H4F10753   6.944   3.681  10.106  1.2805  0.9081  2.7124
  105OSM    H4G10754   6.938   3.516  10.085 -0.5871  0.2464  2.3677
  105OSM    C5F10755   7.114   3.586   9.981 -0.1170 -0.1601 -0.7247
  105OSM    H5F10756   7.189   3.503   9.981 -0.9631 -0.9548 -2.1169
  105OSM    H5G10757   7.171   3.681   9.971  0.6048 -0.5908 -0.8078
  105OSM    C6F10758   7.046   3.553   9.850  0.0366 -0.2307 -0.0515
  105OSM    H6F10759   6.983   3.636   9.809  0.1387 -0.2221 -0.1918
  105OSM    H6G10760   6.982   3.462   9.855  0.0544 -0.3630 -1.6479
  105OSM    C7F10761   7.148   3.538   9.731  0.3573  0.0390  0.1000
  105OSM    H7F10762   7.223   3.467   9.772  0.1773 -0.7463 -0.8905
  105OSM    H7G10763   7.191   3.639   9.710 -1.9025  1.1080  0.2479
  105OSM    C8F10764   7.086   3.479   9.609 -0.6552  0.0144  0.7234
  105OSM    H8F10765   7.006   3.539   9.562 -0.9901 -0.3956  0.7650
  105OSM    H8G10766   7.053   3.374   9.625  0.7191 -0.8889 -1.6605
  105OSM    C9F10767   7.201   3.448   9.503 -0.2069 -0.4506  0.4595
  105OSM    H9F10768   7.258   3.354   9.509  0.0506 -0.4183 -1.0798
  105OSM   C10F10769   7.235   3.515   9.393 -0.2792 -0.5270 -0.5330
  105OSM   H10F10770   7.324   3.479   9.339 -0.7406  0.0897 -1.7738
  105OSM   C11F10771   7.181   3.643   9.345  0.1857 -0.5487  0.4116
  105OSM   H11F10772   7.255   3.721   9.318 -1.4319  0.5268 -1.1503
  105OSM   H11G10773   7.114   3.680   9.425  0.9258  1.5794  0.1016
  105OSM   C12F10774   7.103   3.627   9.216  0.5823 -0.3934  0.2716
  105OSM   H12F10775   7.169   3.582   9.139 -0.2473  0.7648 -1.1500
  105OSM   H12G10776   7.050   3.722   9.197 -1.0634 -1.1585  0.8368
  105OSM   C13F10777   6.976   3.533   9.236  0.3493 -0.2460 -0.8367
  105OSM   H13F10778   6.911   3.575   9.315  0.5753  0.2117 -0.8922
  105OSM   H13G10779   7.003   3.435   9.281 -0.1065  0.7900  1.8656
  105OSM   C14F10780   6.885   3.511   9.111 -0.4312 -0.1191 -0.9898
  105OSM   H14F10781   6.801   3.443   9.137  1.0621 -1.5846  0.2503
  105OSM   H14G10782   6.948   3.468   9.030 -0.1382 -1.5249 -0.0611
  105OSM   C15F10783   6.823   3.639   9.061  0.2888  0.2847  0.7312
  105OSM   H15F10784   6.902   3.711   9.029 -0.5775  0.8537 -0.2080
  105OSM   H15G10785   6.782   3.697   9.146 -1.0519  0.3501  0.0653
  105OSM   C16F10786   6.728   3.621   8.942 -0.0455  0.0688 -0.4505
  105OSM   H16F10787   6.640   3.557   8.960  0.3936 -0.2449  0.6543
  105OSM   H16G10788   6.792   3.581   8.860 -0.8835 -1.4009 -0.4165
  105OSM   C17F10789   6.667   3.756   8.899  0.5961 -0.0017  0.1222
  105OSM   H17F10790   6.747   3.832   8.885  0.7186 -0.4078 -1.5960
  105OSM   H17G10791   6.614   3.798   8.988  0.2325  0.8839 -0.5017
  105OSM   C18F10792   6.574   3.761   8.772 -0.3243  0.0765 -0.2197
  105OSM   H18F10793   6.479   3.710   8.796  0.4277 -0.0530  2.8795
  105OSM   H18G10794   6.627   3.717   8.685  1.3102  0.3097  0.6219
  105OSM   H18H10795   6.536   3.863   8.750 -3.3402 -1.1509 -1.1853
  106OSM      N10796   0.218   0.699  10.808  0.5530 -0.6345  0.9216
  106OSM    C1510797   0.297   0.617  10.906  0.4763  0.1703 -0.0198
  106OSM   H15A10798   0.243   0.525  10.924 -3.6913  2.2295 -0.6709
  106OSM   H15B10799   0.300   0.671  11.000  0.6408  2.2979 -1.2028
  106OSM   H15C10800   0.399   0.605  10.873  1.3601  1.5701  1.9960
  106OSM    C1410801   0.173   0.624  10.689  0.1373 -0.3211 -0.1281
  106OSM   H14A10802   0.109   0.685  10.627  1.4797  0.0216 -1.2444
  106OSM   H14B10803   0.117   0.537  10.721 -0.6913  0.2764  0.0767
  106OSM   H14C10804   0.245   0.591  10.616 -0.2275  0.5624 -0.9069
  106OSM    C1310805   0.093   0.741  10.888 -0.2620  0.1565  0.3830
  106OSM   H13A10806   0.120   0.802  10.974 -0.4454  3.4293 -1.7138
  106OSM   H13B10807   0.032   0.654  10.903 -0.1664 -0.4379 -2.2618
  106OSM   H13C10808   0.035   0.801  10.821 -1.0959 -0.3476  0.6462
  106OSM    C1210809   0.297   0.815  10.756 -0.0580 -0.7690  0.6526
  106OSM   H12A10810   0.389   0.791  10.706 -1.0925 -0.2451 -1.6526
  106OSM   H12B10811   0.335   0.878  10.835  1.6808  0.6840 -1.2234
  106OSM    C1110812   0.223   0.924  10.664  0.2022 -0.5515  0.7758
  106OSM   H11A10813   0.170   0.862  10.590  1.3250 -0.4881 -0.1088
  106OSM   H11B10814   0.307   0.986  10.626  0.8747 -0.1501  2.7782
  106OSM      P10815   0.057   1.117  10.663 -0.2787 -0.4408 -0.2619
  106OSM    O1310816  -0.061   1.150  10.745  0.5125 -0.0363  0.2894
  106OSM    O1410817   0.153   1.232  10.638  0.1816 -0.0205  0.6314
  106OSM    O1110818   0.013   1.045  10.532  0.6349  0.4937  0.1575
  106OSM    O1210819   0.140   1.008  10.744  0.5363 -0.1586 -0.5931
  106OSM    C1S10820  -0.083   1.107  10.440 -0.1510 -0.2605  0.4255
  106OSM    H1S10821  -0.079   1.218  10.437  1.5950 -0.3176 -0.7423
  106OSM    H1T10822  -0.185   1.076  10.469 -0.1487 -0.9104 -0.2240
  106OSM     NF10823  -0.132   1.144  10.205  0.4441  0.0951 -0.1735
  106OSM    HNF10824  -0.225   1.119  10.182 -0.5106 -0.0141  3.3392
  106OSM    C2S10825  -0.050   1.059  10.292  0.5637  0.1699 -0.1244
  106OSM    H2S10826   0.059   1.078  10.276  0.3141  1.4016 -0.4881
  106OSM    C3S10827  -0.066   0.906  10.273 -0.2143  0.2021 -0.1211
  106OSM    H3S10828  -0.157   0.868  10.324  0.4305  0.1008  0.9820
  106OSM     O310829   0.038   0.825  10.342  0.5963 -0.4193 -0.4537
  106OSM    HO310830   0.074   0.887  10.406 -0.4229  0.1992 -0.4547
  106OSM    C4S10831  -0.068   0.872  10.125  0.1638  0.0426 -0.5253
  106OSM    H4S10832  -0.165   0.830  10.095 -1.1674  2.5038  0.0656
  106OSM    C5S10833   0.037   0.870  10.046  0.1209 -0.2054  0.3802
  106OSM    H5S10834   0.138   0.889  10.085  0.0569 -0.9217  0.8961
  106OSM    C6S10835   0.035   0.814   9.903  0.0886 -0.1754 -0.1690
  106OSM    H6S10836   0.121   0.750   9.872  0.9460  0.7779  0.1702
  106OSM    H6T10837   0.045   0.902   9.836 -0.9104 -0.0579 -0.1769
  106OSM    C7S10838  -0.091   0.734   9.859  0.0110 -0.4675  0.6241
  106OSM    H7S10839  -0.179   0.801   9.868  0.0510 -0.3583  0.2205
  106OSM    H7T10840  -0.108   0.662   9.942 -0.9721 -1.3013 -0.2634
  106OSM    C8S10841  -0.078   0.658   9.728  0.5546  0.2039  0.0175
  106OSM    H8S10842  -0.059   0.712   9.634  1.7198  0.4069  0.3493
  106OSM    H8T10843  -0.170   0.598   9.712  0.5711  0.3643 -0.6739
  106OSM    C9S10844   0.027   0.545   9.737 -0.1486  0.3788  0.3494
  106OSM    H9S10845  -0.003   0.474   9.817 -0.3635 -2.3996 -2.0249
  106OSM    H9T10846   0.126   0.579   9.775  0.3179 -2.2790  1.7835
  106OSM   C10S10847   0.035   0.471   9.606 -0.5984  0.0758 -0.5594
  106OSM   H10S10848   0.098   0.540   9.546  2.1505 -0.7497  1.2034
  106OSM   H10T10849  -0.064   0.456   9.557 -0.8393  0.0580 -0.0793
  106OSM   C11S10850   0.088   0.325   9.610  0.3438  0.2125  0.2017
  106OSM   H11S10851   0.052   0.292   9.710  2.4009 -0.6810  0.6993
  106OSM   H11T10852   0.199   0.328   9.611  0.3182  2.0131  0.0889
  106OSM   C12S10853   0.057   0.229   9.497 -0.6765  0.2761  0.7281
  106OSM   H12S10854  -0.049   0.194   9.497 -0.4049 -0.7627 -1.6359
  106OSM   H12T10855   0.120   0.138   9.502  0.3127  0.8449 -0.6615
  106OSM   C13S10856   0.079   0.279   9.347  0.4034 -0.6000  0.0437
  106OSM   H13S10857   0.185   0.297   9.320  0.0386  0.0579 -1.0090
  106OSM   H13T10858   0.031   0.379   9.338  0.1029 -0.7743 -0.3181
  106OSM   C14S10859   0.019   0.181   9.243  0.4055 -0.8790  0.2328
  106OSM   H14S10860  -0.079   0.221   9.208  1.0867  0.4427 -0.2580
  106OSM   H14T10861   0.009   0.086   9.299 -1.7335 -1.0191 -0.3017
  106OSM   C15S10862   0.115   0.161   9.116  0.7690  0.2600  0.2387
  106OSM   H15S10863   0.192   0.084   9.139  1.8855  0.6164 -2.0745
  106OSM   H15T10864   0.159   0.258   9.088  1.5204  0.3716  1.7022
  106OSM   C16S10865   0.032   0.126   8.990  0.7645  0.2172 -0.2375
  106OSM   H16S10866  -0.059   0.190   8.983  0.4531  0.2486  2.6263
  106OSM   H16T10867  -0.017   0.026   8.991 -1.7678  1.3637 -0.2224
  106OSM   C17S10868   0.100   0.148   8.849  0.3151 -0.1013 -0.2258
  106OSM   H17S10869   0.182   0.074   8.841  1.0030  0.7969 -2.1852
  106OSM   H17T10870   0.146   0.249   8.856  1.3197 -0.6373  1.3379
  106OSM   C18S10871   0.000   0.138   8.729 -0.3266 -0.2603 -0.2300
  106OSM   H18S10872   0.040   0.212   8.656  0.3116 -3.2136 -3.1551
  106OSM   H18T10873  -0.103   0.162   8.764 -0.0955  0.4690 -0.0384
  106OSM   H18U10874   0.005   0.041   8.674 -0.1763 -1.0881  1.2048
  106OSM    C1F10875  -0.084   1.260  10.163 -0.2141  0.2460  0.8101
  106OSM     OF10876   0.032   1.289  10.191  0.2095 -0.4835 -0.8914
  106OSM    C2F10877  -0.173   1.355  10.081  0.2668  0.4968  0.0927
  106OSM    H2F10878  -0.122   1.391   9.989  1.1573  2.3568  1.2689
  106OSM    H2G10879  -0.185   1.440  10.151  1.4286 -0.3695  1.4124
  106OSM    C3F10880  -0.316   1.306  10.044 -0.5463  0.4172  0.1560
  106OSM    H3F10881  -0.366   1.392   9.994 -0.5014 -0.2115 -0.9973
  106OSM    H3G10882  -0.376   1.271  10.131  0.0782 -2.6676 -0.5557
  106OSM    C4F10883  -0.331   1.197   9.936 -0.0316 -0.3395  0.1625
  106OSM    H4F10884  -0.433   1.154   9.925 -0.3597  0.7533 -1.2979
  106OSM    H4G10885  -0.270   1.108   9.964 -1.7182 -1.9570 -1.0608
  106OSM    C5F10886  -0.267   1.238   9.799 -0.2581  0.0779  0.4389
  106OSM    H5F10887  -0.157   1.226   9.805 -0.1215 -2.3607 -3.2132
  106OSM    H5G10888  -0.287   1.345   9.779  0.0803  0.1810  0.6462
  106OSM    C6F10889  -0.302   1.163   9.673 -0.5441  0.6140 -0.2569
  106OSM    H6F10890  -0.241   1.199   9.588 -0.6239  0.6145 -0.3139
  106OSM    H6G10891  -0.404   1.203   9.652 -0.8778  2.3722  3.7393
  106OSM    C7F10892  -0.299   1.012   9.683  0.2522  0.6853 -0.0439
  106OSM    H7F10893  -0.370   0.985   9.764  0.1841 -0.1523 -0.3770
  106OSM    H7G10894  -0.201   0.973   9.716 -0.9941 -1.8049  0.8984
  106OSM    C8F10895  -0.344   0.934   9.552 -0.0493  0.3634 -0.3949
  106OSM    H8F10896  -0.328   0.827   9.576 -1.2187  0.9179  3.6368
  106OSM    H8G10897  -0.271   0.953   9.471 -0.2800 -1.8880 -1.2002
  106OSM    C9F10898  -0.480   0.955   9.493  0.2479 -0.9744 -0.5781
  106OSM    H9F10899  -0.558   0.961   9.570  1.1769  0.5857  0.2867
  106OSM   C10F10900  -0.523   0.986   9.372  0.0332  0.5982  0.2551
  106OSM   H10F10901  -0.632   0.979   9.358  0.1295 -0.5858 -0.0699
  106OSM   C11F10902  -0.447   0.993   9.246 -1.0128 -0.3409 -0.2564
  106OSM   H11F10903  -0.474   0.914   9.172  0.6261 -0.7988 -0.4041
  106OSM   H11G10904  -0.339   0.973   9.265 -1.8576 -2.9089  2.5943
  106OSM   C12F10905  -0.464   1.128   9.179 -0.4841  0.1484  0.0446
  106OSM   H12F10906  -0.412   1.204   9.242  2.0229  0.3020 -2.0709
  106OSM   H12G10907  -0.571   1.148   9.156 -1.1718 -2.5809  0.5713
  106OSM   C13F10908  -0.406   1.144   9.034  0.5466 -0.4342 -0.0884
  106OSM   H13F10909  -0.435   1.246   9.000 -0.5479 -0.1306  1.6569
  106OSM   H13G10910  -0.463   1.067   8.979  0.0654  0.8282 -1.4397
  106OSM   C14F10911  -0.254   1.123   9.019 -0.0357  0.1050  0.0560
  106OSM   H14F10912  -0.226   1.021   9.054 -1.9138 -0.0567  1.1953
  106OSM   H14G10913  -0.198   1.206   9.067  0.7402 -1.2030  1.5069
  106OSM   C15F10914  -0.212   1.112   8.875  0.5248  1.2365 -0.3151
  106OSM   H15F10915  -0.248   1.207   8.830 -1.4714  1.2222  1.1594
  106OSM   H15G10916  -0.273   1.042   8.814 -0.4892  0.1275  1.8531
  106OSM   C16F10917  -0.070   1.082   8.851 -0.5498  0.1466 -0.3738
  106OSM   H16F10918  -0.042   0.974   8.860 -0.9910 -0.2195 -2.7258
  106OSM   H16G10919  -0.009   1.143   8.920 -0.7652 -0.1325  0.0730
  106OSM   C17F10920  -0.027   1.126   8.707 -0.4404  0.2890 -0.1541
  106OSM   H17F10921  -0.026   1.237   8.706  0.0248  0.3028  0.7143
  106OSM   H17G10922  -0.113   1.097   8.643 -0.0306 -1.9024  0.1934
  106OSM   C18F10923   0.104   1.059   8.653  0.0096  0.4958  0.1330
  106OSM   H18F10924   0.102   0.953   8.621 -1.4275  1.1351 -2.1317
  106OSM   H18G10925   0.193   1.070   8.719 -1.3159  1.2844  1.8959
  106OSM   H18H10926   0.128   1.113   8.559  0.2834  1.8149  0.9356
  107OSM      N10927   2.719   5.088  10.727  0.4359  0.4362 -0.1768
  107OSM    C1510928   2.710   5.083  10.877 -0.0527 -0.3786  0.2118
  107OSM   H15A10929   2.682   4.982  10.906 -0.6440 -0.5029 -0.7223
  107OSM   H15B10930   2.640   5.158  10.911 -1.1274 -0.2817 -2.0313
  107OSM   H15C10931   2.809   5.110  10.911 -0.0120 -0.2725  0.0085
  107OSM    C1410932   2.772   5.220  10.680 -0.7285 -1.1587 -1.2442
  107OSM   H14A10933   2.853   5.247  10.747 -0.3904 -0.0510 -2.0760
  107OSM   H14B10934   2.699   5.294  10.707  0.8695 -0.0432  0.2711
  107OSM   H14C10935   2.808   5.231  10.579 -0.6605 -1.3521 -1.2427
  107OSM    C1310936   2.815   4.984  10.683 -0.2830  0.1819  0.1658
  107OSM   H13A10937   2.821   4.980  10.575  0.1187  0.9090  0.1571
  107OSM   H13B10938   2.793   4.885  10.720  1.7779 -0.4152 -0.0747
  107OSM   H13C10939   2.912   5.011  10.722  0.1566  0.6793 -1.2156
  107OSM    C1210940   2.584   5.057  10.664 -1.1294 -0.0250  0.1442
  107OSM   H12A10941   2.541   4.964  10.698 -1.4869 -0.6153 -1.8219
  107OSM   H12B10942   2.617   5.040  10.563  1.4086  0.4552  0.8320
  107OSM    C1110943   2.463   5.155  10.668 -0.3973  0.4632 -0.1981
  107OSM   H11A10944   2.380   5.118  10.604  0.5452 -0.1254 -1.1107
  107OSM   H11B10945   2.490   5.256  10.630 -2.1309  1.6273  1.4525
  107OSM      P10946   2.291   5.181  10.862  0.2032  0.2257  0.0190
  107OSM    O1310947   2.239   5.050  10.814  0.6039 -0.1181  0.4711
  107OSM    O1410948   2.307   5.190  11.008  0.1683  0.2782 -0.0788
  107OSM    O1110949   2.205   5.299  10.807  0.5736 -0.4122  0.1063
  107OSM    O1210950   2.432   5.192  10.803 -0.0286 -0.2155  0.4996
  107OSM    C1S10951   2.180   5.342  10.677  0.5144 -0.1154 -0.3304
  107OSM    H1S10952   2.277   5.329  10.624  0.0221 -0.7441 -1.1067
  107OSM    H1T10953   2.157   5.450  10.672  2.2279  0.3841  1.4336
  107OSM     NF10954   2.072   5.304  10.459  0.6940 -0.7981 -0.3367
  107OSM    HNF10955   2.002   5.362  10.418  1.1722  0.7614  0.9496
  107OSM    C2S10956   2.068   5.264  10.598 -0.6133 -0.5104 -0.7213
  107OSM    H2S10957   2.100   5.159  10.614 -1.8718 -0.6867  0.9456
  107OSM    C3S10958   1.940   5.286  10.674 -0.2373 -0.4390 -0.1727
  107OSM    H3S10959   1.913   5.393  10.671 -0.0343 -0.3843 -0.0088
  107OSM     O310960   1.934   5.254  10.813 -0.5440 -0.1981 -0.1549
  107OSM    HO310961   2.020   5.268  10.853 -0.6197 -1.7978  0.6506
  107OSM    C4S10962   1.820   5.218  10.614 -0.1717 -0.0232  0.2415
  107OSM    H4S10963   1.832   5.109  10.599 -1.3656  0.1621 -2.6758
  107OSM    C5S10964   1.696   5.273  10.602 -0.5284  0.0858 -0.1794
  107OSM    H5S10965   1.669   5.368  10.651  0.2772 -0.0625  0.5665
  107OSM    C6S10966   1.585   5.193  10.542  0.3202  0.0421  0.6047
  107OSM    H6S10967   1.494   5.221  10.599 -0.2654 -0.1345 -0.2125
  107OSM    H6T10968   1.605   5.087  10.565  3.6182  0.5009  0.3359
  107OSM    C7S10969   1.573   5.224  10.388 -0.0033  0.0479  0.5474
  107OSM    H7S10970   1.660   5.190  10.328 -1.2752 -0.0466 -1.3321
  107OSM    H7T10971   1.563   5.331  10.359  0.6163 -0.7998 -3.4576
  107OSM    C8S10972   1.445   5.160  10.333 -0.6696 -0.2674 -1.1291
  107OSM    H8S10973   1.366   5.238  10.337  0.1773  0.5519 -0.0845
  107OSM    H8T10974   1.409   5.083  10.405 -0.5749 -1.0855 -1.9357
  107OSM    C9S10975   1.468   5.093  10.203 -0.1431  0.2286 -0.0083
  107OSM    H9S10976   1.376   5.038  10.174  1.1549 -3.9236  2.7915
  107OSM    H9T10977   1.551   5.021  10.213 -1.0151 -0.6009  1.6671
  107OSM   C10S10978   1.499   5.186  10.084 -0.4609 -0.0586 -0.3682
  107OSM   H10S10979   1.590   5.241  10.116 -1.5915  1.0492  1.1055
  107OSM   H10T10980   1.415   5.257  10.066 -0.4292 -0.4371 -2.1841
  107OSM   C11S10981   1.513   5.119   9.953 -0.3964 -0.2322  0.7335
  107OSM   H11S10982   1.428   5.050   9.937 -0.6505 -0.9942  4.5536
  107OSM   H11T10983   1.605   5.056   9.961 -1.9028 -2.6472  0.1288
  107OSM   C12S10984   1.522   5.206   9.827  0.0014  0.7761 -0.2816
  107OSM   H12S10985   1.613   5.270   9.819 -0.0539  0.6247 -2.7432
  107OSM   H12T10986   1.438   5.277   9.835  0.8033  1.7229 -0.0831
  107OSM   C13S10987   1.522   5.126   9.695  0.0214 -0.0900 -1.0898
  107OSM   H13S10988   1.423   5.077   9.686  0.9599 -2.0834 -1.2920
  107OSM   H13T10989   1.592   5.039   9.696 -0.3650 -0.4208 -1.9022
  107OSM   C14S10990   1.543   5.204   9.569  0.2081  0.4465 -0.0035
  107OSM   H14S10991   1.649   5.232   9.553  0.2008  1.0551  0.9408
  107OSM   H14T10992   1.485   5.297   9.587 -2.1020 -1.0262  0.7753
  107OSM   C15S10993   1.500   5.146   9.438 -0.1731  1.1956 -0.1065
  107OSM   H15S10994   1.393   5.118   9.450 -0.7459  2.5082 -1.6984
  107OSM   H15T10995   1.553   5.054   9.405 -1.6886  0.0400  0.5310
  107OSM   C16S10996   1.507   5.250   9.323  0.2072  0.2910  0.3898
  107OSM   H16S10997   1.605   5.297   9.343 -0.8270  2.2603  1.1406
  107OSM   H16T10998   1.425   5.326   9.330 -1.5430 -1.2705 -1.7524
  107OSM   C17S10999   1.501   5.174   9.185 -0.5977  0.6915 -0.9943
  107OSM   H17S11000   1.395   5.149   9.162 -0.6394 -1.2708  0.9713
  107OSM   H17T11001   1.549   5.074   9.186  2.3493  2.0067 -1.7244
  107OSM   C18S11002   1.551   5.266   9.077  0.5409 -0.5034  0.3998
  107OSM   H18S11003   1.478   5.348   9.059  1.1156 -0.1541 -0.4056
  107OSM   H18T11004   1.579   5.218   8.981 -1.0733 -0.3447 -0.1829
  107OSM   H18U11005   1.645   5.313   9.114 -0.0809  0.7957  0.4077
  107OSM    C1F11006   2.169   5.273  10.380 -0.7631 -0.5653  0.5372
  107OSM     OF11007   2.257   5.190  10.407  0.5727 -0.0279  0.2517
  107OSM    C2F11008   2.169   5.337  10.252 -0.4590 -0.0143 -0.1414
  107OSM    H2F11009   2.143   5.444  10.268  0.6797  0.3783 -0.8450
  107OSM    H2G11010   2.093   5.294  10.184 -0.4340  2.1020 -1.5953
  107OSM    C3F11011   2.296   5.324  10.176  0.7443 -0.1654  0.0292
  107OSM    H3F11012   2.324   5.217  10.171  0.0158 -0.3341 -0.6303
  107OSM    H3G11013   2.368   5.379  10.240  0.5002  1.1388 -0.7670
  107OSM    C4F11014   2.297   5.395  10.041  0.3408 -0.0607 -0.1027
  107OSM    H4F11015   2.398   5.381   9.996  0.8291 -1.5154  1.3503
  107OSM    H4G11016   2.265   5.500  10.058 -0.4768 -0.4070  0.5569
  107OSM    C5F11017   2.207   5.324   9.939  0.4417 -0.3143  0.7065
  107OSM    H5F11018   2.102   5.338   9.972  0.4751  4.6982 -0.4698
  107OSM    H5G11019   2.236   5.217   9.930 -1.9198 -0.8644 -1.8473
  107OSM    C6F11020   2.229   5.395   9.796  0.2939  0.1828  0.1497
  107OSM    H6F11021   2.333   5.381   9.760  0.7621  3.2817 -0.0490
  107OSM    H6G11022   2.209   5.505   9.801  0.2697  0.1981 -0.2370
  107OSM    C7F11023   2.144   5.320   9.697  0.7030 -0.3138  0.2732
  107OSM    H7F11024   2.041   5.315   9.740 -0.0470  0.7280 -1.3381
  107OSM    H7G11025   2.183   5.216   9.686  0.7521 -0.2148 -0.5211
  107OSM    C8F11026   2.129   5.384   9.559  0.4223 -0.0269  0.1509
  107OSM    H8F11027   2.094   5.490   9.561  0.7560  0.1212 -1.0281
  107OSM    H8G11028   2.059   5.327   9.494 -0.4140  0.3071  0.7410
  107OSM    C9F11029   2.260   5.389   9.482  0.1776 -0.6532  0.2135
  107OSM    H9F11030   2.345   5.428   9.539  0.4121  1.9441 -1.7012
  107OSM   C10F11031   2.272   5.361   9.355 -0.2157  0.4621  0.2754
  107OSM   H10F11032   2.375   5.359   9.316 -0.2681 -2.2562  0.0456
  107OSM   C11F11033   2.171   5.297   9.258 -0.2988 -1.0965 -0.7070
  107OSM   H11F11034   2.067   5.330   9.279  0.8850  1.9145  1.2094
  107OSM   H11G11035   2.182   5.188   9.270  1.7850 -0.7565  0.9448
  107OSM   C12F11036   2.200   5.332   9.110  0.3415  0.1749  0.0402
  107OSM   H12F11037   2.307   5.316   9.081  0.2150 -1.6838  0.5024
  107OSM   H12G11038   2.173   5.435   9.078 -0.1285 -0.1457 -0.6262
  107OSM   C13F11039   2.117   5.227   9.030  0.7347 -0.9103 -0.8308
  107OSM   H13F11040   2.013   5.241   9.067  0.3213  1.3832 -2.6585
  107OSM   H13G11041   2.145   5.127   9.070 -1.6595 -1.6410 -0.8264
  107OSM   C14F11042   2.106   5.260   8.888 -0.4958  0.4856 -0.1938
  107OSM   H14F11043   2.140   5.362   8.863 -1.3739  0.6319 -0.8360
  107OSM   H14G11044   2.000   5.264   8.854 -0.7384 -1.9159  0.0740
  107OSM   C15F11045   2.180   5.159   8.797  0.3953 -0.1576 -0.2854
  107OSM   H15F11046   2.120   5.066   8.799 -0.1222  0.1851  1.0903
  107OSM   H15G11047   2.278   5.122   8.835  0.4013 -0.4952 -0.6213
  107OSM   C16F11048   2.196   5.200   8.652  0.4157 -0.5356  0.4836
  107OSM   H16F11049   2.267   5.285   8.655 -0.2491  0.0084  0.9884
  107OSM   H16G11050   2.102   5.243   8.612 -0.2994 -3.2061 -0.9858
  107OSM   C17F11051   2.238   5.087   8.562  0.6054 -0.0635  0.7130
  107OSM   H17F11052   2.165   5.004   8.571  0.0784  0.2185 -0.7309
  107OSM   H17G11053   2.339   5.057   8.597 -0.0846 -2.6303  0.7067
  107OSM   C18F11054   2.238   5.117   8.415  0.1287  0.1741  0.2105
  107OSM   H18F11055   2.244   5.024   8.355 -0.3357 -1.4596  2.5631
  107OSM   H18G11056   2.317   5.194   8.400 -0.0032  0.6813  1.9653
  107OSM   H18H11057   2.144   5.176   8.403  1.4407  2.5053  0.8471
  108OSM      N11058   3.874   2.230  11.074  0.0171 -0.0752 -0.6615
  108OSM    C1511059   3.951   2.216  11.198  0.0804 -0.0766  0.6433
  108OSM   H15A11060   4.051   2.206  11.158  0.0067  2.4853 -0.3582
  108OSM   H15B11061   3.922   2.128  11.255 -5.0556 -0.6803 -2.3410
  108OSM   H15C11062   3.943   2.310  11.250 -2.3436 -0.0890  0.3787
  108OSM    C1411063   3.729   2.275  11.104  0.7198  0.0891  0.3919
  108OSM   H14A11064   3.684   2.293  11.007  0.6069 -0.9584  0.2386
  108OSM   H14B11065   3.721   2.357  11.174  2.3725 -0.1406  0.9020
  108OSM   H14C11066   3.673   2.197  11.153  0.2922 -0.3465 -0.7453
  108OSM    C1311067   3.945   2.321  10.983  0.0307 -0.0070 -0.1957
  108OSM   H13A11068   3.976   2.409  11.036 -3.9572  2.2091 -1.1401
  108OSM   H13B11069   3.885   2.365  10.904  0.6427 -1.8059 -1.7368
  108OSM   H13C11070   4.029   2.273  10.935  3.1605  0.4295  4.3141
  108OSM    C1211071   3.867   2.091  11.005 -0.4555 -0.0339  0.1534
  108OSM   H12A11072   3.769   2.093  10.961 -1.8172  0.7549  2.9609
  108OSM   H12B11073   3.847   2.017  11.081 -1.9550 -0.5615 -0.7106
  108OSM    C1111074   3.983   2.039  10.910  0.7886 -0.6826 -0.3264
  108OSM   H11A11075   3.995   2.113  10.828 -0.3197  0.6399  0.6569
  108OSM   H11B11076   3.943   1.941  10.878 -0.5931 -0.4498  0.6132
  108OSM      P11077   4.237   2.076  10.920  0.2788 -0.0113  0.1476
  108OSM    O1311078   4.222   2.221  10.931 -0.1522  0.6342  0.3853
  108OSM    O1411079   4.351   2.015  10.990  0.0130 -0.1170  0.2446
  108OSM    O1111080   4.245   2.037  10.768  0.2850  0.3329 -0.5695
  108OSM    O1211081   4.105   2.012  10.984  0.5910 -0.3581  0.1601
  108OSM    C1S11082   4.362   2.055  10.691  0.2463  0.3045  0.2216
  108OSM    H1S11083   4.438   1.992  10.741 -0.2493  0.7397  1.5783
  108OSM    H1T11084   4.390   2.162  10.693 -0.9162  0.6267  2.1991
  108OSM     NF11085   4.459   2.031  10.467 -0.0473 -0.2519 -0.3777
  108OSM    HNF11086   4.475   2.112  10.411  0.9351 -1.0636 -1.3039
  108OSM    C2S11087   4.335   2.019  10.545  0.9282  0.1300 -0.0869
  108OSM    H2S11088   4.319   1.909  10.546  0.4957  0.1920  0.3134
  108OSM    C3S11089   4.219   2.106  10.486  0.4573  0.6076  0.2263
  108OSM    H3S11090   4.259   2.210  10.476 -1.7446  1.6236  1.2117
  108OSM     O311091   4.097   2.118  10.564  0.2683  0.4845 -0.5809
  108OSM    HO311092   4.114   2.072  10.647  1.6378  0.4746 -0.8375
  108OSM    C4S11093   4.176   2.051  10.356 -0.0081  0.2439 -0.0760
  108OSM    H4S11094   4.120   1.956  10.363  0.8372 -0.1716  1.4225
  108OSM    C5S11095   4.178   2.122  10.239 -0.4458  0.5238 -0.2294
  108OSM    H5S11096   4.221   2.223  10.231  1.0213  0.1366  1.8637
  108OSM    C6S11097   4.131   2.066  10.104  0.8201 -0.1788  0.1825
  108OSM    H6S11098   4.121   2.147  10.028  0.1782 -0.4056  0.0125
  108OSM    H6T11099   4.026   2.029  10.108  0.5419  0.2976 -1.7349
  108OSM    C7S11100   4.203   1.942  10.054  0.5723  0.3287  0.0590
  108OSM    H7S11101   4.174   1.863  10.127 -0.7820  0.6911 -0.0653
  108OSM    H7T11102   4.314   1.949  10.063  0.4243  1.0543  1.5716
  108OSM    C8S11103   4.175   1.902   9.911  0.9740  0.2895  0.1717
  108OSM    H8S11104   4.167   1.998   9.854  0.4284 -0.6908 -1.4651
  108OSM    H8T11105   4.073   1.862   9.897  0.4100  1.7012  0.0195
  108OSM    C9S11106   4.273   1.801   9.845 -0.6820 -0.2885  0.4192
  108OSM    H9S11107   4.253   1.707   9.901  1.1194 -0.0956  1.4733
  108OSM    H9T11108   4.378   1.837   9.850 -0.7179 -0.2580  1.0703
  108OSM   C10S11109   4.241   1.794   9.696 -0.0195 -0.7989 -0.0164
  108OSM   H10S11110   4.134   1.795   9.667  0.4637 -1.5950 -1.9871
  108OSM   H10T11111   4.278   1.692   9.670  3.7823  0.3344  0.3636
  108OSM   C11S11112   4.319   1.905   9.622  0.0696  0.8358  0.1705
  108OSM   H11S11113   4.427   1.895   9.645  0.1914  1.3031 -0.1826
  108OSM   H11T11114   4.283   2.008   9.643  0.4345  1.7560 -3.1528
  108OSM   C12S11115   4.296   1.899   9.473 -0.0632 -0.1869 -0.1085
  108OSM   H12S11116   4.345   1.983   9.419  0.2150 -0.0020  0.4196
  108OSM   H12T11117   4.187   1.905   9.455  0.4490  2.9517 -3.4590
  108OSM   C13S11118   4.346   1.762   9.414 -0.2577 -0.4343  0.0357
  108OSM   H13S11119   4.300   1.672   9.460  0.8159 -1.3507 -0.6422
  108OSM   H13T11120   4.453   1.744   9.437 -0.5187 -1.7521  0.2581
  108OSM   C14S11121   4.326   1.756   9.258 -0.6662 -0.1096 -0.7086
  108OSM   H14S11122   4.374   1.669   9.208  0.7509  0.6828 -0.7730
  108OSM   H14T11123   4.374   1.846   9.214 -0.7517 -0.0330 -0.6449
  108OSM   C15S11124   4.184   1.758   9.211  0.4096 -0.1108  0.7847
  108OSM   H15S11125   4.151   1.863   9.226  0.1557 -0.0391 -0.2203
  108OSM   H15T11126   4.114   1.683   9.255  1.0297 -1.5111 -0.5162
  108OSM   C16S11127   4.161   1.723   9.063 -0.0010 -0.2963 -0.6295
  108OSM   H16S11128   4.236   1.774   8.999 -0.3231  0.5426 -0.3455
  108OSM   H16T11129   4.065   1.764   9.028 -0.3041  0.1777  0.7009
  108OSM   C17S11130   4.134   1.575   9.032 -0.2361  0.1233  0.1270
  108OSM   H17S11131   4.056   1.542   9.104 -1.7379  0.3386 -1.3297
  108OSM   H17T11132   4.229   1.520   9.051 -2.1257 -3.5483 -0.1382
  108OSM   C18S11133   4.096   1.544   8.883 -0.3951 -0.5153 -0.1637
  108OSM   H18S11134   4.084   1.434   8.874  1.3233 -0.7490  0.0565
  108OSM   H18T11135   4.163   1.582   8.803 -0.0557  0.0221  0.3659
  108OSM   H18U11136   3.999   1.597   8.871 -0.4204 -0.4896  0.1408
  108OSM    C1F11137   4.568   1.948  10.485  0.2758 -0.0340 -0.0845
  108OSM     OF11138   4.563   1.847  10.552 -0.0008  0.2247  0.3307
  108OSM    C2F11139   4.705   1.996  10.433 -0.1631 -0.3896  0.7140
  108OSM    H2F11140   4.777   2.000  10.518 -1.2236 -1.8955  1.7493
  108OSM    H2G11141   4.689   2.100  10.398 -1.3636 -1.0925 -0.9605
  108OSM    C3F11142   4.775   1.898  10.331  0.5189  0.2649  0.2764
  108OSM    H3F11143   4.809   1.799  10.369  1.4555 -0.3742 -2.0073
  108OSM    H3G11144   4.851   1.962  10.281  0.0531  0.7654  0.2007
  108OSM    C4F11145   4.684   1.862  10.206  0.8329 -0.4077 -0.1238
  108OSM    H4F11146   4.649   1.953  10.152  2.3581  0.6208  0.5545
  108OSM    H4G11147   4.587   1.818  10.240  1.0152 -0.1529  0.7528
  108OSM    C5F11148   4.752   1.766  10.110 -0.1437 -0.0181 -0.4065
  108OSM    H5F11149   4.784   1.678  10.170 -0.6261  0.9813  1.3676
  108OSM    H5G11150   4.845   1.809  10.066 -0.1608  0.6575  0.1969
  108OSM    C6F11151   4.669   1.734   9.994 -0.7783  0.5259  0.9732
  108OSM    H6F11152   4.631   1.830   9.951 -2.5301 -0.8168 -0.6978
  108OSM    H6G11153   4.577   1.675  10.016 -0.0096 -1.9186 -1.7717
  108OSM    C7F11154   4.747   1.644   9.890  0.0265  0.3557 -0.4087
  108OSM    H7F11155   4.772   1.549   9.941  2.1602  2.4633  2.8984
  108OSM    H7G11156   4.837   1.709   9.878  2.1507 -2.3680 -0.3014
  108OSM    C8F11157   4.694   1.629   9.742 -0.7719 -0.1874  0.4294
  108OSM    H8F11158   4.783   1.620   9.678 -1.8283  1.0623 -1.2918
  108OSM    H8G11159   4.641   1.720   9.708 -2.3139 -0.9038  0.7911
  108OSM    C9F11160   4.597   1.517   9.718  0.5068 -0.3434 -0.3741
  108OSM    H9F11161   4.498   1.535   9.761  0.6725 -1.9591  0.7674
  108OSM   C10F11162   4.609   1.397   9.652  0.3098 -0.6254 -0.6925
  108OSM   H10F11163   4.515   1.340   9.641 -0.8539  0.2315  3.2576
  108OSM   C11F11164   4.732   1.380   9.576 -0.2231 -0.5023  0.2616
  108OSM   H11F11165   4.761   1.273   9.568 -0.1878 -0.4099 -0.9620
  108OSM   H11G11166   4.819   1.415   9.635  2.3361 -1.1191 -2.8438
  108OSM   C12F11167   4.751   1.453   9.440 -0.1778  0.0353 -0.3337
  108OSM   H12F11168   4.859   1.447   9.415 -0.6257 -1.1650 -2.1410
  108OSM   H12G11169   4.720   1.559   9.450  1.1370  0.4300 -0.2017
  108OSM   C13F11170   4.673   1.381   9.328 -0.6864 -0.1333  0.2819
  108OSM   H13F11171   4.563   1.380   9.343 -0.5268 -1.5983  1.6324
  108OSM   H13G11172   4.709   1.276   9.319  0.7532  0.3405  0.1857
  108OSM   C14F11173   4.685   1.448   9.194  0.1857  0.0235 -0.1406
  108OSM   H14F11174   4.789   1.435   9.157 -0.3870 -0.2412 -1.7484
  108OSM   H14G11175   4.661   1.557   9.198  0.6809  0.2024 -1.4387
  108OSM   C15F11176   4.586   1.385   9.096  0.0243  0.0150 -0.2311
  108OSM   H15F11177   4.488   1.382   9.147  0.7203 -0.9140  1.1214
  108OSM   H15G11178   4.617   1.279   9.083 -1.2789 -0.2424 -1.4371
  108OSM   C16F11179   4.554   1.444   8.957 -0.0649 -0.0159 -0.8073
  108OSM   H16F11180   4.477   1.388   8.899  0.3984  0.7349 -2.1857
  108OSM   H16G11181   4.650   1.446   8.903  0.7834  0.8406  0.6567
  108OSM   C17F11182   4.503   1.585   8.970 -0.0876  1.2601 -0.5969
  108OSM   H17F11183   4.575   1.651   9.022  1.7992  0.4389 -2.0353
  108OSM   H17G11184   4.416   1.571   9.038 -0.4463  0.9916 -1.1060
  108OSM   C18F11185   4.453   1.640   8.833 -0.1937  0.1441 -0.2216
  108OSM   H18F11186   4.386   1.569   8.780 -3.9589  0.9174  3.0506
  108OSM   H18G11187   4.538   1.671   8.768 -1.2270  2.9295 -0.3885
  108OSM   H18H11188   4.399   1.734   8.856  0.8247  1.0459 -1.3947
  109OSM      N11189   5.976   4.239  10.758  0.4168 -0.4340  0.5290
  109OSM    C1511190   6.096   4.182  10.822  0.0148 -0.3282  0.4874
  109OSM   H15A11191   6.150   4.249  10.887  1.8796  0.6036 -1.8899
  109OSM   H15B11192   6.176   4.145  10.759  0.4973 -0.9941  1.4609
  109OSM   H15C11193   6.061   4.102  10.885 -1.0331  1.6104  2.4979
  109OSM    C1411194   5.866   4.252  10.850  0.3771 -0.1800  0.5667
  109OSM   H14A11195   5.842   4.157  10.895 -0.8874  0.7630  1.9845
  109OSM   H14B11196   5.773   4.280  10.803 -0.3690 -1.3665  1.2809
  109OSM   H14C11197   5.889   4.316  10.934  0.5530 -1.1278  1.2496
  109OSM    C1311198   6.003   4.381  10.709  0.7454 -0.3299 -0.2132
  109OSM   H13A11199   6.044   4.437  10.792  1.7902 -1.9259  0.4069
  109OSM   H13B11200   5.919   4.439  10.674  1.0513  0.3718  0.1810
  109OSM   H13C11201   6.087   4.381  10.642  2.4810 -1.8005  1.8213
  109OSM    C1211202   5.945   4.144  10.641  0.8740  0.1694  0.7978
  109OSM   H12A11203   6.019   4.158  10.564 -0.1279 -1.3547 -0.5097
  109OSM   H12B11204   5.857   4.184  10.593  0.8366 -0.2139  0.5355
  109OSM    C1111205   5.920   3.989  10.662 -0.7296 -0.1732  0.1263
  109OSM   H11A11206   6.009   3.960  10.721 -0.4214  0.5541  0.0291
  109OSM   H11B11207   5.935   3.935  10.565 -0.6481 -0.3115  0.2156
  109OSM      P11208   5.651   3.967  10.665  0.4147 -0.3882  0.2924
  109OSM    O1311209   5.590   3.832  10.690  0.1008 -0.1502 -0.3475
  109OSM    O1411210   5.587   4.089  10.715  0.8146  0.0232 -0.1228
  109OSM    O1111211   5.684   3.984  10.511  0.1250  0.3883 -0.4426
  109OSM    O1211212   5.795   3.967  10.727 -0.0137  0.0434 -0.2960
  109OSM    C1S11213   5.637   4.102  10.444 -0.2996 -0.3893  0.3089
  109OSM    H1S11214   5.693   4.189  10.482 -1.7305  0.3237  0.8794
  109OSM    H1T11215   5.532   4.133  10.466  0.0787  0.2534  1.2393
  109OSM     NF11216   5.632   4.237  10.235  0.1129 -0.2945 -0.4951
  109OSM    HNF11217   5.545   4.268  10.196  0.8006  3.5507  0.5423
  109OSM    C2S11218   5.633   4.097  10.293 -0.0447  0.6290 -0.2039
  109OSM    H2S11219   5.733   4.055  10.267  0.0772 -0.7033  2.1198
  109OSM    C3S11220   5.520   3.999  10.246  0.2710  0.4564  0.1761
  109OSM    H3S11221   5.424   4.043  10.277  0.8788  1.0493  1.2765
  109OSM     O311222   5.536   3.865  10.302 -0.2083 -0.2401 -0.2601
  109OSM    HO311223   5.619   3.865  10.351  0.0267 -1.5740 -0.6240
  109OSM    C4S11224   5.536   3.978  10.097 -0.5171 -0.6203 -0.3503
  109OSM    H4S11225   5.620   3.910  10.076  0.5235 -0.5289  2.9384
  109OSM    C5S11226   5.452   4.023  10.008  0.5372  0.5509  0.7246
  109OSM    H5S11227   5.368   4.083  10.046  0.2820 -1.3000  3.3581
  109OSM    C6S11228   5.447   3.997   9.859 -0.1958  0.2848  0.7040
  109OSM    H6S11229   5.437   4.088   9.796 -0.2427 -2.0395 -2.9516
  109OSM    H6T11230   5.357   3.937   9.831 -0.9045  1.9032 -0.6741
  109OSM    C7S11231   5.566   3.915   9.796  0.1542  0.3811 -0.0964
  109OSM    H7S11232   5.584   3.815   9.841  1.6356  1.0213  0.7989
  109OSM    H7T11233   5.658   3.972   9.820  1.2698 -0.9819 -0.9857
  109OSM    C8S11234   5.558   3.906   9.650  0.4699  0.5980 -0.5369
  109OSM    H8S11235   5.534   4.008   9.611  1.1757 -0.0571 -2.8660
  109OSM    H8T11236   5.483   3.833   9.614  0.7688  1.0910 -2.2970
  109OSM    C9S11237   5.680   3.856   9.576 -0.0867  0.1096 -0.3664
  109OSM    H9S11238   5.707   3.756   9.617  0.8452  0.8953  1.0180
  109OSM    H9T11239   5.766   3.925   9.589  1.3889 -1.2849 -2.0936
  109OSM   C10S11240   5.665   3.848   9.422  0.1754 -0.0895  0.5270
  109OSM   H10S11241   5.632   3.948   9.385 -0.2004 -1.1920 -2.3732
  109OSM   H10T11242   5.579   3.779   9.413 -0.4392  0.6821  0.3184
  109OSM   C11S11243   5.780   3.790   9.342  0.6597 -0.0715 -0.5598
  109OSM   H11S11244   5.822   3.702   9.394 -0.1864 -1.1001 -1.5651
  109OSM   H11T11245   5.866   3.861   9.343  0.4607  0.1868  0.8377
  109OSM   C12S11246   5.753   3.756   9.198 -0.0974  0.5710 -0.2226
  109OSM   H12S11247   5.735   3.852   9.145  0.2469  1.3219  0.9907
  109OSM   H12T11248   5.661   3.693   9.201 -0.7929  1.5034 -1.1350
  109OSM   C13S11249   5.868   3.668   9.139 -0.3323  0.1329 -1.1754
  109OSM   H13S11250   5.889   3.572   9.192 -2.8935  0.3033  0.3559
  109OSM   H13T11251   5.954   3.734   9.159 -0.3317 -0.8125  2.8988
  109OSM   C14S11252   5.853   3.616   8.999 -0.6549 -0.6184  0.0079
  109OSM   H14S11253   5.759   3.557   8.990 -0.2194 -1.1597 -1.3302
  109OSM   H14T11254   5.942   3.552   8.980 -0.2279 -0.4175  1.2353
  109OSM   C15S11255   5.857   3.730   8.890 -0.4172 -0.1394  0.2072
  109OSM   H15S11256   5.784   3.805   8.927 -2.5522 -1.8591 -0.2847
  109OSM   H15T11257   5.820   3.687   8.794 -0.6051 -1.0356  0.6679
  109OSM   C16S11258   5.996   3.795   8.876  0.0867  0.1277  0.7625
  109OSM   H16S11259   6.063   3.733   8.813  2.1915  2.9754 -0.0149
  109OSM   H16T11260   6.040   3.800   8.978  0.7601  0.1434  0.4762
  109OSM   C17S11261   5.980   3.935   8.811 -0.1248 -0.0530 -0.1993
  109OSM   H17S11262   6.082   3.973   8.791  0.0100 -1.1451 -1.8300
  109OSM   H17T11263   5.931   3.996   8.889  0.3763  0.1892 -0.0712
  109OSM   C18S11264   5.914   3.944   8.676  0.8416 -0.4636  0.0432
  109OSM   H18S11265   5.804   3.924   8.678  0.4864  1.3193  0.7405
  109OSM   H18T11266   5.963   3.881   8.599 -0.1711  0.9533 -1.8370
  109OSM   H18U11267   5.926   4.045   8.632 -1.6761 -0.8825 -1.8188
  109OSM    C1F11268   5.722   4.333  10.250 -0.7305 -0.4253  0.1203
  109OSM     OF11269   5.818   4.315  10.319 -0.3311  0.3391  0.1715
  109OSM    C2F11270   5.700   4.470  10.182 -0.1347 -0.3301 -0.9814
  109OSM    H2F11271   5.642   4.541  10.245  1.8786  0.1190  0.4596
  109OSM    H2G11272   5.632   4.449  10.097 -2.5833 -0.9418  0.9850
  109OSM    C3F11273   5.835   4.526  10.138 -0.5833 -0.0680  0.3921
  109OSM    H3F11274   5.864   4.457  10.055 -1.7171 -0.7848  0.5722
  109OSM    H3G11275   5.923   4.528  10.206  0.5712  3.7210 -0.9408
  109OSM    C4F11276   5.816   4.665  10.079 -0.2259 -0.0681  0.1738
  109OSM    H4F11277   5.912   4.721  10.093 -0.2659 -0.0323  0.3088
  109OSM    H4G11278   5.732   4.720  10.127 -0.8117 -0.3046 -0.5749
  109OSM    C5F11279   5.793   4.664   9.928  0.7215 -0.2360  0.4911
  109OSM    H5F11280   5.693   4.616   9.921  0.6273 -0.4806  2.7629
  109OSM    H5G11281   5.865   4.606   9.866  0.1153  0.5509 -1.0173
  109OSM    C6F11282   5.774   4.804   9.859 -0.0458  0.0263 -0.4635
  109OSM    H6F11283   5.859   4.866   9.892 -0.7563  1.2075 -0.7744
  109OSM    H6G11284   5.679   4.848   9.897 -0.0510 -1.3768  1.2309
  109OSM    C7F11285   5.753   4.781   9.705  0.0437  0.1820  0.1804
  109OSM    H7F11286   5.662   4.717   9.697  0.3662 -0.3131  0.4478
  109OSM    H7G11287   5.832   4.724   9.651 -0.5078 -2.4614  1.9548
  109OSM    C8F11288   5.742   4.906   9.624  0.7452 -0.1799  0.4328
  109OSM    H8F11289   5.779   4.872   9.525  2.2490 -1.4455  1.3828
  109OSM    H8G11290   5.817   4.980   9.660 -0.4460  1.3591 -0.0849
  109OSM    C9F11291   5.616   4.982   9.631 -0.4226 -0.0739 -0.0452
  109OSM    H9F11292   5.543   4.965   9.711  0.0469 -1.9452  0.0184
  109OSM   C10F11293   5.579   5.062   9.524  0.3623  0.6043 -0.3237
  109OSM   H10F11294   5.482   5.113   9.533  0.4087  0.4474  1.2934
  109OSM   C11F11295   5.662   5.085   9.401  0.2198  0.0649 -0.5319
  109OSM   H11F11296   5.768   5.056   9.418  0.3217 -0.4299 -1.8726
  109OSM   H11G11297   5.659   5.194   9.381 -0.9963  0.1605  0.0530
  109OSM   C12F11298   5.594   5.031   9.273  0.3804 -0.0242  0.1555
  109OSM   H12F11299   5.485   5.054   9.264  0.5000 -0.0430 -1.7989
  109OSM   H12G11300   5.590   4.920   9.267 -0.9157  0.0876 -3.7880
  109OSM   C13F11301   5.671   5.072   9.146 -0.8245  0.4892 -0.2804
  109OSM   H13F11302   5.779   5.048   9.154 -0.9340 -0.0746 -0.4337
  109OSM   H13G11303   5.662   5.183   9.149  2.0941  0.7950 -0.0549
  109OSM   C14F11304   5.626   4.998   9.022 -0.1305 -0.0473 -0.4938
  109OSM   H14F11305   5.519   5.020   9.001  0.5191  1.9339 -2.0007
  109OSM   H14G11306   5.644   4.891   9.047  0.7710 -0.2139 -1.7576
  109OSM   C15F11307   5.711   5.028   8.902 -0.7986  0.8607 -0.1614
  109OSM   H15F11308   5.819   5.025   8.930 -0.9645 -0.0110  0.4306
  109OSM   H15G11309   5.696   5.123   8.846  3.1872  0.1549 -2.8156
  109OSM   C16F11310   5.692   4.916   8.799  0.7218 -0.2356  0.3101
  109OSM   H16F11311   5.583   4.932   8.790  0.7872 -0.3004 -0.7531
  109OSM   H16G11312   5.711   4.814   8.838 -0.9712 -0.1602  1.4373
  109OSM   C17F11313   5.767   4.939   8.665 -0.1065  0.6304  0.1197
  109OSM   H17F11314   5.876   4.943   8.684  0.5008 -1.7244 -2.1584
  109OSM   H17G11315   5.739   5.040   8.629 -0.9325 -0.0246 -1.1928
  109OSM   C18F11316   5.741   4.846   8.548  0.6931 -0.1395 -0.3864
  109OSM   H18F11317   5.754   4.739   8.576  0.0590 -0.0670  0.2063
  109OSM   H18G11318   5.817   4.865   8.470  1.4890  0.2398  0.4594
  109OSM   H18H11319   5.644   4.872   8.502  0.9369 -0.3671 -1.0393
  110OSM      N11320   0.400   3.659  10.814 -0.2369  0.2202  0.6595
  110OSM    C1511321   0.296   3.680  10.910 -0.1549  0.5342 -0.0359
  110OSM   H15A11322   0.216   3.749  10.889 -1.3149 -1.1296 -1.3228
  110OSM   H15B11323   0.334   3.715  11.005  0.4544  2.3322 -0.9014
  110OSM   H15C11324   0.245   3.588  10.936  0.9166  0.0637  0.5093
  110OSM    C1411325   0.517   3.576  10.862 -0.5816 -0.3897  0.2729
  110OSM   H14A11326   0.577   3.629  10.935 -1.9866 -1.0957  2.0122
  110OSM   H14B11327   0.575   3.545  10.776 -1.3539  0.0823 -0.4255
  110OSM   H14C11328   0.485   3.486  10.913 -3.1534  1.3183  1.9049
  110OSM    C1311329   0.334   3.596  10.695  0.2177 -0.1662 -1.2120
  110OSM   H13A11330   0.266   3.666  10.650 -0.4630  0.4253  0.6518
  110OSM   H13B11331   0.277   3.508  10.724 -0.7481  1.0743  0.8904
  110OSM   H13C11332   0.406   3.578  10.616 -0.8211  0.2725 -2.2849
  110OSM    C1211333   0.456   3.798  10.768 -0.1506  0.2650  0.1082
  110OSM   H12A11334   0.369   3.842  10.721 -1.5661 -0.5807  1.7828
  110OSM   H12B11335   0.530   3.780  10.692 -1.5927 -2.8000 -0.7373
  110OSM    C1111336   0.513   3.899  10.873  0.0574  0.2365 -0.0786
  110OSM   H11A11337   0.433   3.931  10.944 -0.6597 -0.9962 -0.2891
  110OSM   H11B11338   0.535   3.991  10.816 -2.4033  0.9209 -0.0556
  110OSM      P11339   0.770   3.842  10.888 -0.1654  0.4019 -0.2437
  110OSM    O1311340   0.839   3.948  10.965 -0.1056 -0.1516  0.2438
  110OSM    O1411341   0.825   3.706  10.900 -0.1540 -0.3238 -0.0883
  110OSM    O1111342   0.755   3.884  10.732  0.2188 -0.4635 -0.5664
  110OSM    O1211343   0.617   3.848  10.949  0.1017  0.6574 -0.0650
  110OSM    C1S11344   0.857   3.850  10.638 -0.7602 -0.4662  0.6807
  110OSM    H1S11345   0.847   3.746  10.601  1.6690 -0.6583  0.3780
  110OSM    H1T11346   0.961   3.859  10.678 -0.8723 -0.4559  0.9753
  110OSM     NF11347   0.950   3.894  10.413 -0.7166  0.0277  0.4253
  110OSM    HNF11348   1.037   3.938  10.397 -1.6288  1.9869  0.6220
  110OSM    C2S11349   0.863   3.948  10.517  0.2027 -0.2880 -0.1641
  110OSM    H2S11350   0.762   3.966  10.475  0.3431  1.4933  0.1920
  110OSM    C3S11351   0.925   4.088  10.550  0.7693 -0.0842 -0.3646
  110OSM    H3S11352   1.030   4.058  10.575  0.3569 -0.0720  1.6153
  110OSM     O311353   0.871   4.154  10.667  0.0403  0.4554 -0.4102
  110OSM    HO311354   0.809   4.090  10.702  1.8948 -1.3927 -0.2996
  110OSM    C4S11355   0.920   4.183  10.439  0.3481  0.0000 -0.7717
  110OSM    H4S11356   0.828   4.208  10.383  0.8595 -0.6567 -1.9558
  110OSM    C5S11357   1.040   4.213  10.381  0.7054 -0.4760 -0.6237
  110OSM    H5S11358   1.136   4.178  10.421  0.5117  0.4276  0.6887
  110OSM    C6S11359   1.060   4.299  10.258 -0.0378 -0.6477  0.6575
  110OSM    H6S11360   1.149   4.366  10.255 -0.1722 -0.5110 -0.6877
  110OSM    H6T11361   0.972   4.352  10.217  0.4972 -0.0246  0.2879
  110OSM    C7S11362   1.097   4.216  10.137 -0.5006  0.5405  0.2219
  110OSM    H7S11363   1.013   4.146  10.119  0.9652 -1.5631  1.1962
  110OSM    H7T11364   1.184   4.154  10.165  0.7003  2.2810  0.5374
  110OSM    C8S11365   1.114   4.296  10.006  0.3551 -0.2896 -0.1694
  110OSM    H8S11366   1.212   4.344   9.989  0.3173  0.1110  0.7126
  110OSM    H8T11367   1.035   4.373  10.010  1.1210  0.4754  3.0286
  110OSM    C9S11368   1.089   4.214   9.878  0.0619  0.0217 -0.4113
  110OSM    H9S11369   0.983   4.182   9.879 -0.7658  2.4729  2.0897
  110OSM    H9T11370   1.160   4.128   9.883 -0.4144 -0.4227 -1.1473
  110OSM   C10S11371   1.111   4.288   9.745 -0.4280  0.8883 -0.4485
  110OSM   H10S11372   1.193   4.362   9.754  1.6991 -1.2275 -1.3725
  110OSM   H10T11373   1.020   4.349   9.728  0.1504  1.8372 -0.2038
  110OSM   C11S11374   1.114   4.189   9.630 -0.2288  0.8191 -0.4559
  110OSM   H11S11375   1.025   4.123   9.642 -0.6151  0.6617 -3.5411
  110OSM   H11T11376   1.204   4.126   9.646 -0.9272 -0.9586 -2.9698
  110OSM   C12S11377   1.117   4.245   9.488  0.0415 -0.1108 -0.1400
  110OSM   H12S11378   1.216   4.295   9.482  0.9105 -1.5015  1.5845
  110OSM   H12T11379   1.029   4.311   9.471 -0.5149 -1.3363 -2.3544
  110OSM   C13S11380   1.103   4.139   9.372 -0.1065  0.6184 -0.3630
  110OSM   H13S11381   1.009   4.080   9.381 -0.5831  1.4760  0.3989
  110OSM   H13T11382   1.184   4.063   9.375  0.8292  1.5087 -1.8065
  110OSM   C14S11383   1.096   4.204   9.232 -0.0475  0.2894  0.3556
  110OSM   H14S11384   1.009   4.273   9.223  0.0641  1.2621  4.6751
  110OSM   H14T11385   1.087   4.121   9.158  2.1748 -0.6170  1.0196
  110OSM   C15S11386   1.208   4.306   9.196 -0.3235 -0.3113 -1.5462
  110OSM   H15S11387   1.307   4.255   9.192  0.0840  0.5291 -4.0774
  110OSM   H15T11388   1.199   4.377   9.281  1.0422 -1.7570 -0.1367
  110OSM   C16S11389   1.185   4.383   9.065 -0.2299 -0.1099  0.2373
  110OSM   H16S11390   1.248   4.475   9.070  0.4268 -0.4534 -1.3395
  110OSM   H16T11391   1.079   4.415   9.064 -0.8073 -1.8523  1.0781
  110OSM   C17S11392   1.200   4.291   8.946 -0.2411  0.2375 -0.5762
  110OSM   H17S11393   1.115   4.220   8.942  0.7796 -1.0191 -0.4207
  110OSM   H17T11394   1.284   4.220   8.961 -1.0742 -0.6221  0.1430
  110OSM   C18S11395   1.210   4.368   8.815  0.7682 -0.1313 -0.1150
  110OSM   H18S11396   1.113   4.418   8.799 -0.9006 -3.2570 -0.7018
  110OSM   H18T11397   1.239   4.308   8.725  2.6329 -0.3527  0.5866
  110OSM   H18U11398   1.294   4.441   8.818 -0.4896  1.5122 -2.1107
  110OSM    C1F11399   0.913   3.793  10.339  0.2550 -0.1987  0.3682
  110OSM     OF11400   0.812   3.721  10.364  0.2875 -0.2954 -0.0617
  110OSM    C2F11401   0.996   3.767  10.221 -0.7596 -0.9369 -0.2055
  110OSM    H2F11402   1.057   3.673  10.221  3.7125  1.6798 -0.9316
  110OSM    H2G11403   1.088   3.829  10.224  0.0572 -2.1444  1.0841
  110OSM    C3F11404   0.928   3.788  10.085 -0.3502  0.2951  0.1976
  110OSM    H3F11405   0.911   3.898  10.076  2.4236  0.6813 -1.2991
  110OSM    H3G11406   0.822   3.755  10.086 -0.1818 -0.3076 -1.0553
  110OSM    C4F11407   1.014   3.741   9.969  0.6227  0.2580  0.1179
  110OSM    H4F11408   1.062   3.641   9.983 -1.2545 -0.5099  1.4075
  110OSM    H4G11409   1.093   3.818   9.956  0.9422 -0.3275 -1.8921
  110OSM    C5F11410   0.947   3.731   9.831  0.7582 -0.6089 -0.1749
  110OSM    H5F11411   1.032   3.721   9.760  1.6752 -0.0329  0.8110
  110OSM    H5G11412   0.881   3.816   9.803  0.2566 -1.9019 -3.3285
  110OSM    C6F11413   0.854   3.612   9.830  0.0412  0.1667 -1.1815
  110OSM    H6F11414   0.775   3.624   9.906  0.7314  0.6847 -0.5265
  110OSM    H6G11415   0.915   3.522   9.853  0.3441  0.4472 -0.8703
  110OSM    C7F11416   0.788   3.576   9.698  0.1520  0.2223  0.1674
  110OSM    H7F11417   0.698   3.637   9.674 -0.8933 -1.4430 -0.3171
  110OSM    H7G11418   0.758   3.469   9.699  0.4021  0.1574  1.0405
  110OSM    C8F11419   0.884   3.567   9.580  0.4650  0.1358 -0.4010
  110OSM    H8F11420   0.851   3.476   9.527  0.2677 -1.5789  2.4574
  110OSM    H8G11421   0.984   3.540   9.620 -0.0764 -0.3458  0.6590
  110OSM    C9F11422   0.909   3.687   9.487  0.0843 -0.3268  0.0744
  110OSM    H9F11423   0.913   3.782   9.543 -1.7026  0.6394 -1.3346
  110OSM   C10F11424   0.920   3.695   9.358 -0.1962  0.3130 -0.0690
  110OSM   H10F11425   0.955   3.792   9.319 -1.1136  1.2788  1.4278
  110OSM   C11F11426   0.899   3.577   9.268  0.3745 -0.3319  0.0323
  110OSM   H11F11427   0.870   3.486   9.325  1.4436 -0.7044  0.0046
  110OSM   H11G11428   0.993   3.546   9.217  0.9409  2.1621 -0.5844
  110OSM   C12F11429   0.808   3.617   9.151  0.2083  0.4977 -0.2005
  110OSM   H12F11430   0.860   3.696   9.093 -1.0670  0.6335 -1.2036
  110OSM   H12G11431   0.710   3.663   9.179 -0.1606  0.6172 -1.6212
  110OSM   C13F11432   0.780   3.493   9.061 -0.8745  0.0428 -0.1118
  110OSM   H13F11433   0.731   3.412   9.117  0.1288 -0.1638  0.4932
  110OSM   H13G11434   0.881   3.454   9.034 -0.8699  0.6399 -0.9931
  110OSM   C14F11435   0.718   3.522   8.925  0.1988 -0.1025 -0.1917
  110OSM   H14F11436   0.709   3.427   8.869 -0.3126  0.0195 -0.3157
  110OSM   H14G11437   0.765   3.605   8.867  1.0906  0.7317  1.6329
  110OSM   C15F11438   0.573   3.583   8.936  0.2892  0.8047  0.3092
  110OSM   H15F11439   0.581   3.678   8.993  0.3250  1.1260 -0.2237
  110OSM   H15G11440   0.501   3.507   8.973 -0.4209  1.1280 -0.3586
  110OSM   C16F11441   0.500   3.620   8.801 -0.0131  0.9865  0.5296
  110OSM   H16F11442   0.495   3.529   8.736 -0.1252  0.5750  1.1060
  110OSM   H16G11443   0.559   3.699   8.750  1.8355  0.0367  1.1145
  110OSM   C17F11444   0.351   3.667   8.815 -0.4038 -0.4406 -0.4430
  110OSM   H17F11445   0.358   3.748   8.891  1.1624 -0.9371 -0.0185
  110OSM   H17G11446   0.296   3.581   8.859  1.6886 -0.8075  1.6231
  110OSM   C18F11447   0.286   3.716   8.683 -0.3269 -0.5164 -0.1897
  110OSM   H18F11448   0.200   3.776   8.719 -1.1362 -0.2531 -2.4301
  110OSM   H18G11449   0.268   3.634   8.611  1.4607 -0.3907 -0.8376
  110OSM   H18H11450   0.364   3.783   8.641 -0.3666 -0.8386 -0.7815
  111OSM      N11451   0.980   5.985  11.100 -0.6395  0.2139 -0.3602
  111OSM    C1511452   0.850   6.008  11.027  0.1625 -0.5121  0.0603
  111OSM   H15A11453   0.844   6.113  11.002 -2.7936 -0.9496 -1.5227
  111OSM   H15B11454   0.762   5.977  11.081 -1.2117  0.8700 -1.3010
  111OSM   H15C11455   0.856   5.949  10.937 -3.6147  1.2981 -1.6131
  111OSM    C1411456   0.962   6.044  11.235 -0.2400 -0.3798  0.1952
  111OSM   H14A11457   0.891   5.991  11.297  0.4025  0.2644  1.5213
  111OSM   H14B11458   0.930   6.146  11.222 -0.1906 -0.3731  0.1279
  111OSM   H14C11459   1.052   6.046  11.295  1.6237  0.5788 -2.4491
  111OSM    C1311460   1.017   5.843  11.111  0.1094 -0.1004  0.6313
  111OSM   H13A11461   1.034   5.790  11.018 -0.8553 -2.9578  2.0109
  111OSM   H13B11462   0.949   5.781  11.167 -0.2796 -1.9053 -1.7007
  111OSM   H13C11463   1.108   5.824  11.166 -0.7842 -1.7570  1.5862
  111OSM    C1211464   1.099   6.057  11.032  0.1343  0.3323  0.7085
  111OSM   H12A11465   1.188   6.042  11.091  1.0276 -0.9621 -0.8757
  111OSM   H12B11466   1.076   6.162  11.045  2.8518  1.2065 -0.7444
  111OSM    C1111467   1.124   6.044  10.880  0.6276  0.2705 -0.0835
  111OSM   H11A11468   1.129   5.935  10.864  0.0042  0.7392 -5.1641
  111OSM   H11B11469   1.217   6.096  10.849  0.1404 -0.2135 -2.5397
  111OSM      P11470   0.995   6.242  10.784  0.6773  0.0028  0.3814
  111OSM    O1311471   0.852   6.246  10.732  0.6342  0.2685  0.4288
  111OSM    O1411472   1.011   6.315  10.914  0.2680  0.5633 -0.1038
  111OSM    O1111473   1.097   6.296  10.679  0.0623  0.1883  0.1352
  111OSM    O1211474   1.014   6.088  10.798 -0.0729 -0.5471  0.3129
  111OSM    C1S11475   1.107   6.248  10.543  0.3797 -0.2925 -0.0444
  111OSM    H1S11476   1.073   6.144  10.523  0.9597 -0.2964 -1.0612
  111OSM    H1T11477   1.214   6.235  10.516  0.4220 -1.1031  0.4818
  111OSM     NF11478   1.033   6.287  10.309  0.3157 -0.2176  0.1012
  111OSM    HNF11479   1.099   6.333  10.249  1.0538  1.5868  2.1546
  111OSM    C2S11480   1.025   6.338  10.445 -0.4354  0.2732 -0.6343
  111OSM    H2S11481   0.916   6.334  10.469 -0.1710 -0.0583  0.5599
  111OSM    C3S11482   1.077   6.489  10.476 -0.3516 -0.2060 -0.6325
  111OSM    H3S11483   1.188   6.491  10.463 -0.1656  0.7390  0.8219
  111OSM     O311484   1.046   6.541  10.609  0.3754 -0.4523 -0.3935
  111OSM    HO311485   1.013   6.464  10.656 -2.7975 -0.5114 -2.3779
  111OSM    C4S11486   1.016   6.575  10.366 -0.0234  0.5217 -0.2831
  111OSM    H4S11487   1.086   6.588  10.281  2.2636 -1.3453  1.2152
  111OSM    C5S11488   0.891   6.630  10.367 -0.2418  0.1398 -0.3115
  111OSM    H5S11489   0.824   6.599  10.448 -0.1516  0.8134  0.0237
  111OSM    C6S11490   0.817   6.708  10.260  0.5185 -0.3019  0.1722
  111OSM    H6S11491   0.811   6.814  10.291 -0.5690 -0.2826 -0.0720
  111OSM    H6T11492   0.711   6.676  10.258  0.3824 -0.0241  1.9311
  111OSM    C7S11493   0.869   6.678  10.118  0.0163  0.8392  0.0343
  111OSM    H7S11494   0.875   6.567  10.115 -3.1578  0.5898 -0.2148
  111OSM    H7T11495   0.974   6.711  10.101 -0.5107  2.1505 -0.7983
  111OSM    C8S11496   0.783   6.732  10.003  0.2320 -0.2234 -0.7235
  111OSM    H8S11497   0.782   6.842  10.019  0.9079 -0.3983  0.6411
  111OSM    H8T11498   0.679   6.692  10.009 -0.3562  1.3368  0.1758
  111OSM    C9S11499   0.849   6.696   9.867  0.4710  0.2004 -0.2201
  111OSM    H9S11500   0.870   6.587   9.857 -0.0132  0.2588 -2.3328
  111OSM    H9T11501   0.953   6.731   9.883  0.2505 -0.1961  2.6184
  111OSM   C10S11502   0.791   6.768   9.746 -0.9377 -0.1463 -0.7750
  111OSM   H10S11503   0.780   6.870   9.787  1.1081 -1.3605  3.3753
  111OSM   H10T11504   0.693   6.716   9.732 -1.4970  0.7388 -0.2763
  111OSM   C11S11505   0.876   6.751   9.619  0.7601 -0.3033  0.0602
  111OSM   H11S11506   0.865   6.653   9.568 -2.1113  0.3338 -0.7540
  111OSM   H11T11507   0.982   6.768   9.648  1.7338 -2.1107 -2.1034
  111OSM   C12S11508   0.850   6.862   9.510  0.1544  0.7162  0.0560
  111OSM   H12S11509   0.933   6.848   9.438  0.9526 -0.6714  1.1929
  111OSM   H12T11510   0.864   6.955   9.570  1.0885  0.1790  0.6904
  111OSM   C13S11511   0.721   6.847   9.425 -0.8851 -0.0679 -0.1767
  111OSM   H13S11512   0.635   6.874   9.490 -0.0643 -0.7488  1.2321
  111OSM   H13T11513   0.703   6.742   9.394  3.7515 -1.5764  1.4745
  111OSM   C14S11514   0.742   6.934   9.304 -0.1771 -0.5003 -0.0349
  111OSM   H14S11515   0.842   6.915   9.259 -0.9867  0.5772 -2.4537
  111OSM   H14T11516   0.745   7.038   9.343  0.3841  0.0990 -1.6215
  111OSM   C15S11517   0.625   6.920   9.210  0.9951  0.0975 -0.0678
  111OSM   H15S11518   0.528   6.952   9.252  0.3957 -1.6898 -0.0369
  111OSM   H15T11519   0.597   6.816   9.184  0.8608  0.9283 -3.7428
  111OSM   C16S11520   0.673   6.995   9.081 -0.5080  0.2168  0.4508
  111OSM   H16S11521   0.769   6.951   9.047 -0.7009 -0.0483  0.2420
  111OSM   H16T11522   0.696   7.100   9.110 -0.3419 -0.0381  1.2712
  111OSM   C17S11523   0.572   6.990   8.964 -0.1539  0.1216 -0.1499
  111OSM   H17S11524   0.476   7.037   8.992  0.2180 -0.3056  2.0269
  111OSM   H17T11525   0.547   6.883   8.945  2.5014 -0.4514 -0.8678
  111OSM   C18S11526   0.632   7.051   8.836 -0.6164  0.2518 -1.3878
  111OSM   H18S11527   0.741   7.029   8.826  0.0728  3.4160 -1.8997
  111OSM   H18T11528   0.619   7.161   8.833 -0.1408  0.3191 -1.1043
  111OSM   H18U11529   0.584   6.999   8.751  0.4641 -2.0936 -0.6809
  111OSM    C1F11530   0.978   6.177  10.271 -0.1257 -0.7072 -0.3183
  111OSM     OF11531   0.888   6.122  10.338 -0.3162 -0.3751  0.3133
  111OSM    C2F11532   1.017   6.132  10.126 -0.8367  0.2366 -0.1436
  111OSM    H2F11533   1.117   6.172  10.100 -0.8707  0.0313 -0.6058
  111OSM    H2G11534   0.941   6.183  10.063 -0.3289 -0.2521 -1.1672
  111OSM    C3F11535   1.020   5.976  10.116 -0.2415  0.4600  0.4029
  111OSM    H3F11536   0.915   5.941  10.130 -0.3792  1.2651  1.5681
  111OSM    H3G11537   1.091   5.927  10.187  1.4457  0.2707 -1.3392
  111OSM    C4F11538   1.071   5.924   9.985 -0.1852 -0.3482  0.3156
  111OSM    H4F11539   1.075   5.813   9.985  1.3051 -0.3176 -0.5295
  111OSM    H4G11540   1.175   5.960   9.973 -0.5019  0.0612 -1.4893
  111OSM    C5F11541   1.000   5.972   9.866 -0.4490  0.2227  0.2037
  111OSM    H5F11542   0.995   6.082   9.852  1.3537  0.7376  2.9501
  111OSM    H5G11543   0.893   5.944   9.875 -0.6222  0.7647 -0.1532
  111OSM    C6F11544   1.046   5.911   9.738 -0.1794 -0.2258  0.4776
  111OSM    H6F11545   1.011   5.806   9.725 -3.5120  0.6139  1.8254
  111OSM    H6G11546   1.157   5.904   9.736  0.0272  1.6603 -2.7246
  111OSM    C7F11547   1.008   5.991   9.607  0.9009 -0.0001 -0.7285
  111OSM    H7F11548   0.999   6.100   9.628 -0.2780 -0.4175  1.3099
  111OSM    H7G11549   0.903   5.961   9.585  0.6376 -0.3276  0.8127
  111OSM    C8F11550   1.092   5.961   9.481  0.0666 -0.0550  0.7593
  111OSM    H8F11551   1.036   5.985   9.388  1.6428  0.2631 -0.1626
  111OSM    H8G11552   1.109   5.851   9.475 -0.2610 -0.0439 -1.0361
  111OSM    C9F11553   1.222   6.035   9.485  0.3812  0.1896 -0.2401
  111OSM    H9F11554   1.298   6.007   9.559  1.8418  0.8389 -1.4575
  111OSM   C10F11555   1.254   6.139   9.402  0.0625  0.5522 -0.7409
  111OSM   H10F11556   1.357   6.177   9.401 -0.3122  1.5868 -1.0176
  111OSM   C11F11557   1.174   6.200   9.297 -0.1826 -0.1755 -0.7229
  111OSM   H11F11558   1.182   6.310   9.289  0.3305 -0.1674 -0.2115
  111OSM   H11G11559   1.065   6.191   9.318  0.0137  2.0770  1.8563
  111OSM   C12F11560   1.205   6.147   9.162 -0.9969  0.7399  0.8597
  111OSM   H12F11561   1.194   6.036   9.168 -2.4150  0.9127  2.2374
  111OSM   H12G11562   1.308   6.177   9.133 -0.9380  0.1674  0.4559
  111OSM   C13F11563   1.104   6.192   9.058 -0.4779 -0.1337  0.4286
  111OSM   H13F11564   1.103   6.303   9.062 -1.1192 -0.1729  1.9497
  111OSM   H13G11565   1.005   6.150   9.084 -0.8529  0.8054  0.5866
  111OSM   C14F11566   1.130   6.148   8.914  0.0706 -0.3406  0.0460
  111OSM   H14F11567   1.084   6.049   8.894  0.0779 -0.1846 -0.7931
  111OSM   H14G11568   1.239   6.129   8.902  0.2865 -0.5757  2.0930
  111OSM   C15F11569   1.096   6.264   8.809  0.0840  0.4600  0.2059
  111OSM   H15F11570   0.988   6.280   8.827 -0.4212 -1.4342 -0.8324
  111OSM   H15G11571   1.120   6.229   8.706  0.0780  4.8065 -1.4979
  111OSM   C16F11572   1.166   6.396   8.812 -0.1316  0.2081 -0.0858
  111OSM   H16F11573   1.123   6.443   8.903 -0.5311 -0.7584  0.2452
  111OSM   H16G11574   1.133   6.450   8.721 -0.1851 -0.8534 -0.7178
  111OSM   C17F11575   1.318   6.376   8.834 -1.2745 -0.3941  0.1257
  111OSM   H17F11576   1.349   6.293   8.766  3.1596  1.7499 -0.8724
  111OSM   H17G11577   1.350   6.342   8.935 -0.6675  0.4201  0.2150
  111OSM   C18F11578   1.414   6.490   8.805 -0.0809  0.1817 -0.0966
  111OSM   H18F11579   1.376   6.583   8.851  1.6959 -0.1258  2.1531
  111OSM   H18G11580   1.424   6.519   8.698  0.1030 -0.6569 -0.3135
  111OSM   H18H11581   1.513   6.474   8.852  0.5375  2.9446 -0.3062
  112OSM      N11582   1.833   4.525  11.385  0.1536  0.2729 -1.0557
  112OSM    C1511583   1.806   4.464  11.518 -0.6181 -0.6988 -0.8349
  112OSM   H15A11584   1.831   4.361  11.536 -0.1294 -0.2844  1.2163
  112OSM   H15B11585   1.705   4.487  11.547 -0.8302  0.4757 -2.4037
  112OSM   H15C11586   1.863   4.511  11.597 -0.2584 -2.0466 -0.2628
  112OSM    C1411587   1.765   4.656  11.383  0.2870  0.1859 -0.0557
  112OSM   H14A11588   1.658   4.650  11.383  0.2447  0.5994 -1.2171
  112OSM   H14B11589   1.793   4.711  11.294 -0.5482  1.5420  0.4894
  112OSM   H14C11590   1.798   4.724  11.460 -0.2243 -0.6361  0.9001
  112OSM    C1311591   1.981   4.561  11.370 -0.1392 -0.6023 -0.0490
  112OSM   H13A11592   2.036   4.469  11.379 -0.2337 -0.4813  2.4432
  112OSM   H13B11593   2.014   4.618  11.456  3.6121  0.8249 -2.1910
  112OSM   H13C11594   2.000   4.611  11.276  0.7484  1.4041  1.1212
  112OSM    C1211595   1.774   4.439  11.271  0.1215  0.0414  0.1719
  112OSM   H12A11596   1.670   4.420  11.291  0.2840  0.0663  1.0726
  112OSM   H12B11597   1.825   4.344  11.281 -2.1521 -1.1192  1.5838
  112OSM    C1111598   1.802   4.480  11.127  0.2498 -0.3562  0.1196
  112OSM   H11A11599   1.779   4.587  11.110 -2.8173 -0.9421  0.1364
  112OSM   H11B11600   1.728   4.416  11.075 -1.0705  1.1452  0.0991
  112OSM      P11601   1.966   4.285  11.066  0.4466 -0.6056  0.1118
  112OSM    O1311602   2.112   4.256  11.085  0.0444 -0.2875  0.5379
  112OSM    O1411603   1.874   4.208  11.147  0.3582  0.2822  0.7527
  112OSM    O1111604   1.931   4.271  10.915 -0.0218  0.1292 -0.0121
  112OSM    O1211605   1.936   4.443  11.082  0.2389  0.5176 -0.4382
  112OSM    C1S11606   2.018   4.176  10.843  0.5893  0.6918  0.0444
  112OSM    H1S11607   2.007   4.076  10.890 -0.6408 -0.0755 -1.7554
  112OSM    H1T11608   2.123   4.210  10.835  0.7491 -0.0784 -1.5532
  112OSM     NF11609   1.975   4.016  10.648  0.2139  0.2183 -0.1081
  112OSM    HNF11610   2.057   3.999  10.594  0.7577  1.7601  0.1737
  112OSM    C2S11611   1.967   4.152  10.691 -0.1267 -0.8858 -0.1778
  112OSM    H2S11612   1.860   4.182  10.686 -0.8719 -2.6006  2.6723
  112OSM    C3S11613   2.047   4.265  10.607 -0.2436  0.9046 -0.4873
  112OSM    H3S11614   2.158   4.252  10.614 -0.4910 -0.1849  3.4968
  112OSM     O311615   2.028   4.400  10.657 -0.6934 -0.2756 -0.1516
  112OSM    HO311616   1.965   4.386  10.729  0.5864 -0.1048  1.0403
  112OSM    C4S11617   2.008   4.247  10.463  0.0443  0.3915  1.2894
  112OSM    H4S11618   2.081   4.186  10.408  0.8103  0.4723  2.1879
  112OSM    C5S11619   1.901   4.305  10.396  0.3190 -0.0158 -1.2628
  112OSM    H5S11620   1.843   4.381  10.451  2.2718 -0.1284  1.1238
  112OSM    C6S11621   1.845   4.285  10.256 -0.4262 -0.4706 -0.3390
  112OSM    H6S11622   1.819   4.387  10.221 -1.2939  0.4546  2.7362
  112OSM    H6T11623   1.753   4.223  10.253 -1.1651  0.6093 -0.7886
  112OSM    C7S11624   1.947   4.226  10.152 -0.3078  0.3514  0.0509
  112OSM    H7S11625   1.974   4.123  10.184  0.9484  1.0553  1.3610
  112OSM    H7T11626   2.045   4.278  10.153 -0.9981  1.7042 -0.0645
  112OSM    C8S11627   1.895   4.229  10.010 -0.1096  0.3384 -0.3403
  112OSM    H8S11628   1.853   4.328   9.982  0.5194  1.1444  1.4564
  112OSM    H8T11629   1.815   4.153  10.002  1.6323 -1.5067 -1.3907
  112OSM    C9S11630   2.006   4.199   9.904  0.2707 -0.1693 -0.6726
  112OSM    H9S11631   2.023   4.090   9.918 -1.7519 -0.6017 -1.3211
  112OSM    H9T11632   2.094   4.254   9.945 -0.5434  0.7653 -0.1472
  112OSM   C10S11633   1.964   4.234   9.766 -0.3995 -0.4330 -0.1507
  112OSM   H10S11634   1.962   4.344   9.753 -1.2841 -0.4794 -0.4981
  112OSM   H10T11635   1.856   4.209   9.755 -0.4342  0.2988 -1.8280
  112OSM   C11S11636   2.050   4.175   9.659 -0.1507 -0.1396  0.3079
  112OSM   H11S11637   2.036   4.065   9.661 -1.4969 -0.0204 -0.9457
  112OSM   H11T11638   2.158   4.196   9.676  0.2559 -0.8517 -1.1935
  112OSM   C12S11639   2.011   4.221   9.516 -0.0228 -1.0994  0.6905
  112OSM   H12S11640   2.010   4.331   9.527  2.3818 -1.1401  2.0359
  112OSM   H12T11641   1.909   4.187   9.491  0.3671 -0.8701 -1.3348
  112OSM   C13S11642   2.118   4.187   9.419 -0.5909 -0.8893  0.3402
  112OSM   H13S11643   2.125   4.076   9.413  1.9609 -0.9058  1.9864
  112OSM   H13T11644   2.216   4.215   9.463  0.0694  0.2092 -1.7004
  112OSM   C14S11645   2.105   4.259   9.283  0.1802 -1.1552  0.7947
  112OSM   H14S11646   2.125   4.364   9.312  0.1171 -0.9064 -0.0234
  112OSM   H14T11647   2.004   4.264   9.236  0.8498  1.8140 -0.5424
  112OSM   C15S11648   2.202   4.205   9.176  0.1868 -0.5199 -0.5489
  112OSM   H15S11649   2.198   4.271   9.086 -3.2652 -1.8549 -1.5412
  112OSM   H15T11650   2.169   4.104   9.143  0.5663 -0.2235 -1.9085
  112OSM   C16S11651   2.345   4.210   9.228 -0.1034 -0.2422 -0.0546
  112OSM   H16S11652   2.346   4.147   9.320 -1.9250  1.4615  1.2386
  112OSM   H16T11653   2.383   4.312   9.251  2.5376 -0.8101 -1.5263
  112OSM   C17S11654   2.456   4.159   9.136 -0.0113 -0.3390  0.4232
  112OSM   H17S11655   2.419   4.061   9.101 -1.3318 -0.4468  2.0152
  112OSM   H17T11656   2.541   4.142   9.206  0.8743 -3.4903 -1.2258
  112OSM   C18S11657   2.496   4.259   9.029 -0.0704 -0.1508 -0.5958
  112OSM   H18S11658   2.409   4.276   8.962 -0.5450  0.8950  0.2470
  112OSM   H18T11659   2.583   4.213   8.977  0.8243 -0.7329  1.3182
  112OSM   H18U11660   2.516   4.354   9.084  2.0501 -0.9522  0.0894
  112OSM    C1F11661   1.900   3.915  10.693  1.4343  0.4144  0.3869
  112OSM     OF11662   1.798   3.937  10.757  0.2508 -0.0952  0.2118
  112OSM    C2F11663   1.947   3.776  10.673 -0.1642  0.0905 -0.1337
  112OSM    H2F11664   1.957   3.726  10.772  0.0215 -1.2770 -0.8192
  112OSM    H2G11665   2.047   3.790  10.626  1.7936 -1.8643  3.0690
  112OSM    C3F11666   1.850   3.704  10.576  0.3477  0.2280 -0.1448
  112OSM    H3F11667   1.747   3.719  10.614 -0.1778 -0.7692 -1.1053
  112OSM    H3G11668   1.857   3.594  10.585 -1.4402  0.2323  1.8330
  112OSM    C4F11669   1.860   3.742  10.428  1.0698  1.0508  0.1721
  112OSM    H4F11670   1.966   3.737  10.396  0.4893 -0.6297 -1.6700
  112OSM    H4G11671   1.810   3.840  10.420  1.1000  1.1768  1.3629
  112OSM    C5F11672   1.768   3.649  10.346 -0.4510 -0.1347 -0.2859
  112OSM    H5F11673   1.676   3.642  10.407 -0.2695  0.2796  0.0429
  112OSM    H5G11674   1.812   3.547  10.342  2.0854  0.8456  0.0980
  112OSM    C6F11675   1.742   3.697  10.204  0.4237 -0.5490 -1.0778
  112OSM    H6F11676   1.675   3.784  10.217  0.2805 -1.0270  2.1550
  112OSM    H6G11677   1.683   3.616  10.155 -0.8394 -1.2050  1.3639
  112OSM    C7F11678   1.866   3.735  10.127  0.6886 -0.1657 -0.6183
  112OSM    H7F11679   1.936   3.651  10.146  0.5993 -0.1979 -0.4309
  112OSM    H7G11680   1.892   3.834  10.171 -1.3780 -0.9827  2.8204
  112OSM    C8F11681   1.830   3.750   9.982 -0.4573 -0.4154  0.1111
  112OSM    H8F11682   1.742   3.816   9.971 -0.2946 -0.4253 -1.4506
  112OSM    H8G11683   1.791   3.651   9.950 -1.4070 -0.4509  1.2975
  112OSM    C9F11684   1.938   3.800   9.889 -0.4221 -0.9148  0.0310
  112OSM    H9F11685   2.035   3.821   9.938 -0.1586  3.9458 -2.0246
  112OSM   C10F11686   1.916   3.830   9.760  0.3515  0.5614  0.1852
  112OSM   H10F11687   2.003   3.869   9.705  1.3576 -2.5541 -0.6663
  112OSM   C11F11688   1.790   3.816   9.678 -0.5552  0.3956 -0.0651
  112OSM   H11F11689   1.771   3.896   9.603 -1.5263 -0.4015 -0.6989
  112OSM   H11G11690   1.709   3.840   9.752  0.0090 -1.2272  1.1365
  112OSM   C12F11691   1.764   3.674   9.624  0.4641  0.2841  0.2006
  112OSM   H12F11692   1.659   3.670   9.590 -0.0122 -0.4457  1.6583
  112OSM   H12G11693   1.762   3.599   9.707 -0.0828 -1.6522 -1.4766
  112OSM   C13F11694   1.862   3.640   9.510  0.6634  0.1531 -0.5865
  112OSM   H13F11695   1.961   3.640   9.561  0.2781  0.7088  0.1861
  112OSM   H13G11696   1.871   3.727   9.442 -1.1287 -1.3415 -2.8831
  112OSM   C14F11697   1.834   3.494   9.466 -0.5007  0.2932 -0.1439
  112OSM   H14F11698   1.730   3.484   9.429 -1.0086  0.0333  1.2959
  112OSM   H14G11699   1.848   3.416   9.545 -1.5347  0.5479  0.3080
  112OSM   C15F11700   1.935   3.469   9.346 -0.1877  0.6317  0.4185
  112OSM   H15F11701   2.039   3.471   9.387 -0.7125 -2.3053  2.2260
  112OSM   H15G11702   1.922   3.554   9.276  0.9575  1.0604  0.6940
  112OSM   C16F11703   1.928   3.340   9.266 -0.3202 -0.5742 -0.8094
  112OSM   H16F11704   1.940   3.265   9.347  0.1475  0.3786  0.0252
  112OSM   H16G11705   2.011   3.338   9.193 -0.0580  1.9216 -0.6527
  112OSM   C17F11706   1.798   3.332   9.178 -0.4425 -0.4503 -0.5806
  112OSM   H17F11707   1.809   3.415   9.105 -1.9101  2.2903  2.1032
  112OSM   H17G11708   1.703   3.335   9.236 -0.2221  1.4266 -0.2674
  112OSM   C18F11709   1.803   3.199   9.100 -0.3606 -0.2281 -0.0984
  112OSM   H18F11710   1.708   3.190   9.043  0.3207 -0.6295 -1.1884
  112OSM   H18G11711   1.807   3.121   9.179  0.1210  0.5793  0.6971
  112OSM   H18H11712   1.893   3.181   9.037 -0.1888 -1.6538  0.5191
  113OSM      N11713   3.017   0.461  11.247  0.2513  0.3541 -0.5539
  113OSM    C1511714   3.130   0.545  11.299 -0.3325  0.2260 -0.2795
  113OSM   H15A11715   3.223   0.492  11.285 -1.8307 -2.7738  0.1575
  113OSM   H15B11716   3.114   0.551  11.406 -1.2085  0.0012 -0.3898
  113OSM   H15C11717   3.136   0.642  11.253 -2.0203  0.3253 -0.3628
  113OSM    C1411718   3.028   0.327  11.313 -0.5140  0.0804  0.5605
  113OSM   H14A11719   2.937   0.271  11.302 -0.9699  0.5473  1.7461
  113OSM   H14B11720   3.047   0.334  11.419  0.3467  0.0736  0.4127
  113OSM   H14C11721   3.111   0.267  11.278  0.0278  1.8397 -1.3226
  113OSM    C1311722   2.892   0.527  11.291 -0.6481 -0.5232  0.1377
  113OSM   H13A11723   2.808   0.483  11.239 -1.2009 -0.1433  0.7005
  113OSM   H13B11724   2.887   0.632  11.268 -0.5881 -0.4348  0.5246
  113OSM   H13C11725   2.865   0.527  11.395  0.6240 -1.6688  0.5048
  113OSM    C1211726   3.020   0.439  11.095 -0.3548  0.2452 -0.0517
  113OSM   H12A11727   2.987   0.523  11.036  1.9310  0.5882 -0.9534
  113OSM   H12B11728   2.946   0.365  11.068 -1.5842  1.0928  0.8963
  113OSM    C1111729   3.157   0.403  11.025 -0.0702 -0.4500 -0.3700
  113OSM   H11A11730   3.135   0.383  10.918  1.1620 -2.3356 -0.3115
  113OSM   H11B11731   3.194   0.311  11.075 -1.7555 -0.0315  1.7961
  113OSM      P11732   3.401   0.491  10.982  0.2834  0.2414  0.0740
  113OSM    O1311733   3.485   0.611  11.016  0.0410  0.0713 -0.0414
  113OSM    O1411734   3.446   0.357  11.040 -0.2789  0.8549 -0.2839
  113OSM    O1111735   3.389   0.472  10.822  0.1720 -0.5059 -0.6102
  113OSM    O1211736   3.251   0.510  11.029  0.0939  0.2476 -0.4870
  113OSM    C1S11737   3.333   0.577  10.741  0.1511  0.0019  0.0434
  113OSM    H1S11738   3.381   0.676  10.762  1.6294 -0.9637  1.4483
  113OSM    H1T11739   3.223   0.586  10.752 -0.0057 -2.3085  0.7792
  113OSM     NF11740   3.381   0.688  10.530 -0.3512  0.5680 -0.3505
  113OSM    HNF11741   3.305   0.722  10.475 -0.9530 -3.2996 -2.2076
  113OSM    C2S11742   3.370   0.554  10.595 -0.4386 -0.1913  0.4593
  113OSM    H2S11743   3.469   0.504  10.592  0.6334  1.8861 -1.1512
  113OSM    C3S11744   3.276   0.446  10.540 -0.5545  0.4411 -0.2865
  113OSM    H3S11745   3.173   0.488  10.534 -0.7430 -0.1826 -2.2884
  113OSM     O311746   3.284   0.330  10.623 -0.2737 -0.5799  0.0819
  113OSM    HO311747   3.318   0.379  10.698 -0.6803  1.7144 -1.1260
  113OSM    C4S11748   3.317   0.417  10.395  0.4459 -0.0189  0.0362
  113OSM    H4S11749   3.295   0.503  10.330 -1.7325  1.0919  2.0787
  113OSM    C5S11750   3.357   0.297  10.340  0.2944 -0.4734 -0.3020
  113OSM    H5S11751   3.377   0.207  10.400 -2.7239 -1.3107 -0.3536
  113OSM    C6S11752   3.387   0.276  10.198 -0.0140 -0.2868  0.0441
  113OSM    H6S11753   3.334   0.186  10.161 -0.4521  0.3780 -1.0024
  113OSM    H6T11754   3.496   0.254  10.196  0.4231  1.6863 -1.7133
  113OSM    C7S11755   3.340   0.386  10.101  0.6464 -0.5846  0.1090
  113OSM    H7S11756   3.404   0.475  10.121  0.1620 -0.2379  0.1188
  113OSM    H7T11757   3.233   0.413  10.114  1.1215  0.6651  1.7615
  113OSM    C8S11758   3.368   0.341   9.960  0.0257  0.2382 -0.1342
  113OSM    H8S11759   3.307   0.252   9.930 -0.3379  0.8026 -1.0950
  113OSM    H8T11760   3.478   0.327   9.953 -0.2680 -1.3645 -3.2839
  113OSM    C9S11761   3.325   0.445   9.859  0.6180  0.6230 -0.3602
  113OSM    H9S11762   3.373   0.543   9.878 -2.4601  2.1473  0.2116
  113OSM    H9T11763   3.215   0.460   9.855  0.4694 -0.5510 -1.3878
  113OSM   C10S11764   3.365   0.406   9.713  0.1108  0.1873 -0.3147
  113OSM   H10S11765   3.287   0.331   9.686  1.5454 -1.5214  0.0584
  113OSM   H10T11766   3.461   0.350   9.708 -0.5795 -1.0970  0.3416
  113OSM   C11S11767   3.358   0.518   9.607 -0.0310 -0.2153 -0.0784
  113OSM   H11S11768   3.446   0.586   9.612 -2.4211  3.2060 -0.2894
  113OSM   H11T11769   3.268   0.582   9.622 -1.1758 -0.3958 -4.7622
  113OSM   C12S11770   3.341   0.479   9.460  0.2109 -0.0381 -0.7686
  113OSM   H12S11771   3.303   0.567   9.403 -0.6695 -0.2751 -0.5616
  113OSM   H12T11772   3.264   0.403   9.436  0.4851 -1.4215  2.2777
  113OSM   C13S11773   3.472   0.438   9.399  0.1673  0.1490 -0.8104
  113OSM   H13S11774   3.490   0.335   9.437  0.6597  0.2875 -0.6707
  113OSM   H13T11775   3.546   0.514   9.433  0.5343  0.5159 -2.3776
  113OSM   C14S11776   3.476   0.430   9.251  0.3708 -0.6377 -0.4427
  113OSM   H14S11777   3.396   0.357   9.224  1.7858 -2.0600 -0.9452
  113OSM   H14T11778   3.571   0.385   9.216  1.8448  1.2538  0.8905
  113OSM   C15S11779   3.466   0.556   9.169 -0.0229 -0.5867  0.1082
  113OSM   H15S11780   3.525   0.634   9.221  0.5601 -0.3098 -0.9363
  113OSM   H15T11781   3.368   0.607   9.163  0.5180  0.5912  0.9309
  113OSM   C16S11782   3.525   0.544   9.031  0.2549 -0.3291 -0.0067
  113OSM   H16S11783   3.633   0.522   9.046  0.7899  2.1887  0.3521
  113OSM   H16T11784   3.514   0.646   8.987  2.5092  0.4146  1.0180
  113OSM   C17S11785   3.445   0.460   8.933 -0.4103 -0.3678 -0.3004
  113OSM   H17S11786   3.337   0.479   8.953 -0.7785 -2.7801  0.2480
  113OSM   H17T11787   3.463   0.355   8.965  1.2643  0.6860  2.5626
  113OSM   C18S11788   3.477   0.472   8.786  0.1863 -0.0651  0.1595
  113OSM   H18S11789   3.586   0.477   8.766  0.1894  1.6084  0.4457
  113OSM   H18T11790   3.426   0.555   8.732 -2.5691 -1.7260  0.0231
  113OSM   H18U11791   3.436   0.379   8.742  1.2145 -0.4784  0.0679
  113OSM    C1F11792   3.486   0.774  10.533  0.0895  0.3347 -0.5085
  113OSM     OF11793   3.584   0.742  10.601 -0.0379  0.0146  0.2779
  113OSM    C2F11794   3.470   0.904  10.447 -0.3318  0.0790  0.1342
  113OSM    H2F11795   3.494   0.998  10.500  2.2578  0.4058 -1.4135
  113OSM    H2G11796   3.363   0.895  10.418 -0.3986  0.2674  0.3246
  113OSM    C3F11797   3.570   0.890  10.324 -0.3466 -0.2912 -0.6189
  113OSM    H3F11798   3.541   0.798  10.271  0.5528 -0.4715 -0.8166
  113OSM    H3G11799   3.676   0.879  10.355  0.4405  2.4850 -1.9491
  113OSM    C4F11800   3.554   1.019  10.239  0.8779 -0.2241 -0.1083
  113OSM    H4F11801   3.566   1.107  10.307  1.7161  1.0921 -1.8823
  113OSM    H4G11802   3.447   1.038  10.217  1.2702  3.5304  0.5582
  113OSM    C5F11803   3.641   1.029  10.113 -0.4009 -0.1009  0.6342
  113OSM    H5F11804   3.632   0.932  10.061 -2.9233  0.6027 -0.4307
  113OSM    H5G11805   3.744   1.053  10.144 -0.6482 -0.0973  1.4834
  113OSM    C6F11806   3.598   1.137  10.019 -0.0601 -0.2873  0.3863
  113OSM    H6F11807   3.587   1.228  10.082  0.3321  0.0037  0.0456
  113OSM    H6G11808   3.496   1.124   9.977 -0.9488  0.7429  2.1255
  113OSM    C7F11809   3.702   1.158   9.908 -0.4161 -0.5285  0.0160
  113OSM    H7F11810   3.690   1.092   9.819  0.7198  1.0929 -1.4229
  113OSM    H7G11811   3.805   1.134   9.940  0.0722  2.2469  0.8075
  113OSM    C8F11812   3.703   1.309   9.860  0.4288 -0.2818 -0.4183
  113OSM    H8F11813   3.796   1.319   9.799  0.0895  1.9281 -0.6744
  113OSM    H8G11814   3.701   1.382   9.944 -1.6719  0.4218 -1.0012
  113OSM    C9F11815   3.583   1.334   9.773  0.0655  0.6839  0.1467
  113OSM    H9F11816   3.486   1.347   9.824 -1.2664  3.3206 -2.6880
  113OSM   C10F11817   3.579   1.365   9.645 -0.2311 -0.5273 -0.5197
  113OSM   H10F11818   3.484   1.391   9.597  0.9920  3.4391 -1.1812
  113OSM   C11F11819   3.696   1.374   9.549  0.1500  0.0543 -0.1612
  113OSM   H11F11820   3.713   1.271   9.513 -0.5488 -0.1121 -0.0297
  113OSM   H11G11821   3.782   1.415   9.607 -0.1544 -0.0244  0.3607
  113OSM   C12F11822   3.678   1.476   9.441  0.8792 -0.1379  0.5891
  113OSM   H12F11823   3.778   1.488   9.396  0.1554 -1.3482 -1.4496
  113OSM   H12G11824   3.644   1.579   9.467 -2.1630 -1.3889  2.0464
  113OSM   C13F11825   3.576   1.440   9.329  0.1223  0.9389 -0.2356
  113OSM   H13F11826   3.546   1.519   9.257 -0.2187  1.1547  0.1394
  113OSM   H13G11827   3.482   1.409   9.379  0.1364 -0.3207 -0.9368
  113OSM   C14F11828   3.628   1.326   9.234  0.6207 -0.7489 -0.7245
  113OSM   H14F11829   3.544   1.285   9.175 -0.1832 -1.8621  1.0989
  113OSM   H14G11830   3.665   1.232   9.281  2.8206  0.4728  0.1474
  113OSM   C15F11831   3.731   1.396   9.147  0.0392 -0.5158  0.1635
  113OSM   H15F11832   3.815   1.427   9.213 -0.3309 -0.0117  0.4120
  113OSM   H15G11833   3.683   1.491   9.113  1.3711  0.4049  0.7820
  113OSM   C16F11834   3.787   1.313   9.039  0.0522  1.1462  0.2591
  113OSM   H16F11835   3.857   1.240   9.086 -1.7899 -1.3708 -0.7535
  113OSM   H16G11836   3.840   1.379   8.967  2.1618 -0.0393  0.6524
  113OSM   C17F11837   3.684   1.231   8.955 -0.2105 -0.4342 -0.6438
  113OSM   H17F11838   3.595   1.289   8.923 -0.2937 -2.0382 -3.7726
  113OSM   H17G11839   3.661   1.140   9.013 -1.6424  0.3170  0.0081
  113OSM   C18F11840   3.755   1.182   8.829  0.7336 -0.4741 -0.8888
  113OSM   H18F11841   3.802   1.265   8.771 -0.0387  1.6063  1.2950
  113OSM   H18G11842   3.678   1.123   8.774 -0.6449  0.6555 -0.2212
  113OSM   H18H11843   3.840   1.115   8.855  1.6191  0.9808  0.1120
  114OSM      N11844   6.422   4.387  11.410 -0.5941  0.0093 -0.2677
  114OSM    C1511845   6.438   4.522  11.476 -0.0806  0.7200 -0.0270
  114OSM   H15A11846   6.537   4.534  11.519  0.0607  2.2145 -0.7232
  114OSM   H15B11847   6.367   4.530  11.557 -0.4432 -1.3687 -0.0755
  114OSM   H15C11848   6.418   4.603  11.408  0.0010  0.0586 -0.8603
  114OSM    C1411849   6.438   4.291  11.520 -0.4580  0.5008 -1.0792
  114OSM   H14A11850   6.445   4.190  11.482 -1.3931 -0.3897  0.9503
  114OSM   H14B11851   6.342   4.281  11.570 -0.6273  0.8028 -1.3399
  114OSM   H14C11852   6.516   4.310  11.591 -1.2417 -0.6068  0.1183
  114OSM    C1311853   6.278   4.379  11.357  0.0144  0.0045  0.2177
  114OSM   H13A11854   6.247   4.284  11.317 -1.3531  0.4304  0.1986
  114OSM   H13B11855   6.267   4.453  11.278 -2.9408  0.6689  1.1383
  114OSM   H13C11856   6.216   4.397  11.443 -0.3235 -1.0771  0.2030
  114OSM    C1211857   6.536   4.368  11.309 -0.4831  0.1846 -0.0358
  114OSM   H12A11858   6.525   4.274  11.257 -0.4717  2.1793 -4.0005
  114OSM   H12B11859   6.626   4.375  11.370 -0.6783 -0.2624  0.3104
  114OSM    C1111860   6.542   4.468  11.185  0.5017  0.0408 -0.8900
  114OSM   H11A11861   6.630   4.453  11.118 -0.3913 -0.1086 -2.0600
  114OSM   H11B11862   6.554   4.571  11.224 -1.1605  0.1516 -0.6038
  114OSM      P11863   6.396   4.335  11.004  0.3938 -0.4341  0.1943
  114OSM    O1311864   6.488   4.221  11.023 -0.0342  0.0829 -0.2562
  114OSM    O1411865   6.252   4.310  11.025 -0.2404  0.4614  0.2188
  114OSM    O1111866   6.413   4.392  10.858  0.6148  0.4125 -0.1577
  114OSM    O1211867   6.430   4.455  11.105  0.3187 -0.8333  0.5346
  114OSM    C1S11868   6.441   4.528  10.821 -0.2568 -0.0632 -0.3227
  114OSM    H1S11869   6.525   4.578  10.873  0.9953 -0.9245 -1.4613
  114OSM    H1T11870   6.354   4.596  10.836  0.7050  1.2761 -0.6374
  114OSM     NF11871   6.484   4.688  10.647  0.5954 -0.3651  0.2942
  114OSM    HNF11872   6.414   4.737  10.594  1.0971  1.1824  0.9876
  114OSM    C2S11873   6.486   4.545  10.674  0.7162 -0.3400 -0.0675
  114OSM    H2S11874   6.587   4.504  10.660  1.0206 -0.2421  1.6156
  114OSM    C3S11875   6.381   4.469  10.578  0.0721 -0.6839  0.0402
  114OSM    H3S11876   6.278   4.497  10.609  0.1597  0.8661 -0.9244
  114OSM     O311877   6.400   4.327  10.592  0.0670  0.4352 -0.4403
  114OSM    HO311878   6.408   4.319  10.688 -3.7183  1.0132  0.1007
  114OSM    C4S11879   6.402   4.525  10.438  0.6662  0.4433  0.2893
  114OSM    H4S11880   6.352   4.622  10.429 -0.7042 -0.2249  0.4565
  114OSM    C5S11881   6.477   4.475  10.343  0.4146 -0.3308  0.3770
  114OSM    H5S11882   6.529   4.379  10.355  0.8160 -0.0950  0.5579
  114OSM    C6S11883   6.495   4.531  10.205  0.0682  0.1386 -0.4257
  114OSM    H6S11884   6.490   4.453  10.126  1.5232 -2.6781  2.0640
  114OSM    H6T11885   6.600   4.566  10.194  1.6238 -3.1444  2.3551
  114OSM    C7S11886   6.411   4.649  10.166 -0.0859 -0.2316 -0.5268
  114OSM    H7S11887   6.419   4.735  10.236  0.9522 -0.1104 -0.7691
  114OSM    H7T11888   6.303   4.624  10.169 -0.5855  1.6863 -1.0420
  114OSM    C8S11889   6.446   4.706  10.026 -0.3272 -0.6431 -0.7120
  114OSM    H8S11890   6.556   4.713  10.029  0.0906 -4.6517 -1.2533
  114OSM    H8T11891   6.389   4.802  10.025 -0.6765 -0.7985  1.1198
  114OSM    C9S11892   6.397   4.627   9.905 -0.4181  0.4078  0.0144
  114OSM    H9S11893   6.301   4.671   9.872  0.1823  2.0035  0.3239
  114OSM    H9T11894   6.386   4.521   9.935  1.8181 -0.2978 -1.3756
  114OSM   C10S11895   6.499   4.616   9.783 -0.2910 -0.3541  0.0518
  114OSM   H10S11896   6.597   4.575   9.816 -0.4253 -0.2323  0.6087
  114OSM   H10T11897   6.522   4.717   9.745  1.5286 -0.2144  1.4128
  114OSM   C11S11898   6.451   4.533   9.659  0.1271  0.4037 -0.5987
  114OSM   H11S11899   6.346   4.563   9.638  0.3324  2.2296  0.6649
  114OSM   H11T11900   6.439   4.426   9.687 -1.7274  0.9635  0.9488
  114OSM   C12S11901   6.540   4.568   9.537 -0.6057  0.1906 -0.4266
  114OSM   H12S11902   6.632   4.506   9.546 -1.3534 -0.9617 -0.5301
  114OSM   H12T11903   6.562   4.677   9.544  1.1288 -0.1154 -0.5615
  114OSM   C13S11904   6.465   4.544   9.406 -0.3690  0.4428 -0.1986
  114OSM   H13S11905   6.396   4.630   9.392 -1.4481 -0.4770 -0.7232
  114OSM   H13T11906   6.405   4.453   9.425  0.1609  0.1090 -0.1275
  114OSM   C14S11907   6.547   4.535   9.273 -0.4436 -0.8163  0.3181
  114OSM   H14S11908   6.621   4.453   9.264 -0.7859 -1.0428 -0.5235
  114OSM   H14T11909   6.612   4.625   9.264 -1.2027 -0.3496 -0.8087
  114OSM   C15S11910   6.456   4.526   9.147 -0.2414  0.6089 -1.0404
  114OSM   H15S11911   6.422   4.630   9.128  1.6625  1.1473 -1.7340
  114OSM   H15T11912   6.374   4.457   9.175  0.0435  1.1290  1.2554
  114OSM   C16S11913   6.507   4.470   9.014  0.0863 -0.3434 -0.3398
  114OSM   H16S11914   6.436   4.492   8.932 -0.9863 -3.1686 -0.2765
  114OSM   H16T11915   6.519   4.360   9.024  1.1074 -0.2986 -0.8916
  114OSM   C17S11916   6.636   4.535   8.974  0.1754  0.0681  0.3666
  114OSM   H17S11917   6.719   4.521   9.047 -0.2144  0.9038  1.0003
  114OSM   H17T11918   6.632   4.646   8.975  2.8601  0.3049  3.4039
  114OSM   C18S11919   6.679   4.479   8.837 -0.6303 -0.0239  0.4073
  114OSM   H18S11920   6.604   4.494   8.757 -1.1815  0.9156  1.0680
  114OSM   H18T11921   6.705   4.371   8.843  1.7139  0.3034 -2.1028
  114OSM   H18U11922   6.769   4.536   8.807 -1.6933  0.8209 -1.3515
  114OSM    C1F11923   6.574   4.770  10.698 -0.1054  0.3004 -0.1627
  114OSM     OF11924   6.669   4.728  10.765 -0.0532 -0.4643 -0.3600
  114OSM    C2F11925   6.550   4.916  10.670  0.1551 -1.0737  0.2143
  114OSM    H2F11926   6.596   4.962  10.760  0.0248  0.1762 -0.3354
  114OSM    H2G11927   6.442   4.939  10.664  0.1595 -1.2976 -0.9181
  114OSM    C3F11928   6.629   4.967  10.548 -0.3348 -0.2965  0.9178
  114OSM    H3F11929   6.733   4.928  10.550 -0.7882 -1.5508  1.6078
  114OSM    H3G11930   6.638   5.077  10.555  0.0666 -0.3404  1.1093
  114OSM    C4F11931   6.572   4.942  10.406  0.0852  0.2862 -0.2310
  114OSM    H4F11932   6.485   5.000  10.369 -1.2192  0.1862  2.4552
  114OSM    H4G11933   6.531   4.839  10.406  1.6144 -0.3647  0.4706
  114OSM    C5F11934   6.682   4.948  10.291  0.4139  0.0992 -0.6599
  114OSM    H5F11935   6.644   4.881  10.211  1.4206 -0.7704 -0.4337
  114OSM    H5G11936   6.779   4.908  10.327 -0.0532 -0.6552 -0.2208
  114OSM    C6F11937   6.704   5.088  10.230 -0.1305 -0.2102 -0.3923
  114OSM    H6F11938   6.734   5.157  10.312 -0.3305 -2.8977  2.1036
  114OSM    H6G11939   6.606   5.128  10.196 -0.9116 -0.5621  1.2851
  114OSM    C7F11940   6.818   5.078  10.126 -0.0504 -0.1209  1.1621
  114OSM    H7F11941   6.909   5.035  10.173  1.7503 -1.3248 -2.9723
  114OSM    H7G11942   6.834   5.182  10.090 -2.6602  0.2825  0.9325
  114OSM    C8F11943   6.782   4.990  10.000  0.3612  0.3108  0.2749
  114OSM    H8F11944   6.781   4.886  10.038  1.4145  0.3949  0.5733
  114OSM    H8G11945   6.867   5.001   9.930  0.9682  1.6359  1.1708
  114OSM    C9F11946   6.666   5.036   9.916 -0.1663 -0.6820  0.1374
  114OSM    H9F11947   6.567   5.026   9.962 -0.3947  1.3900  0.2047
  114OSM   C10F11948   6.673   5.086   9.788 -0.3251 -0.0853 -1.1875
  114OSM   H10F11949   6.582   5.106   9.731 -1.1218 -0.3831 -0.0529
  114OSM   C11F11950   6.801   5.102   9.713  0.3074  0.0183  0.2979
  114OSM   H11F11951   6.884   5.133   9.781 -1.5416  1.1396  2.1404
  114OSM   H11G11952   6.801   5.189   9.643  2.2830 -0.9554 -1.0242
  114OSM   C12F11953   6.827   4.980   9.623 -0.3757  0.5518 -0.3479
  114OSM   H12F11954   6.778   4.890   9.666 -0.0096  0.9689  1.0231
  114OSM   H12G11955   6.937   4.964   9.624 -0.5137 -0.4495 -0.6667
  114OSM   C13F11956   6.796   5.004   9.477  0.1843 -0.0441 -0.2269
  114OSM   H13F11957   6.856   5.085   9.430  2.5702 -2.9054 -2.5314
  114OSM   H13G11958   6.688   5.029   9.482  0.0715 -0.6801  1.6504
  114OSM   C14F11959   6.817   4.880   9.395  0.8946  0.7165 -0.2381
  114OSM   H14F11960   6.759   4.787   9.415 -0.3420  1.0252 -2.0745
  114OSM   H14G11961   6.924   4.854   9.404  0.2973 -1.2022  2.8032
  114OSM   C15F11962   6.781   4.915   9.247  0.5045  0.2899  0.3965
  114OSM   H15F11963   6.806   5.022   9.227  1.3997  0.1016  0.4658
  114OSM   H15G11964   6.671   4.912   9.234  0.6222 -0.4525 -0.5777
  114OSM   C16F11965   6.849   4.827   9.148 -0.1073  0.2199  0.9525
  114OSM   H16F11966   6.798   4.840   9.051 -0.2289  0.5807  1.0622
  114OSM   H16G11967   6.844   4.722   9.183 -0.0643  0.4774  1.7667
  114OSM   C17F11968   6.997   4.871   9.139  0.3082 -0.1705 -0.6686
  114OSM   H17F11969   7.036   4.849   9.240 -0.3509  1.1647 -0.0872
  114OSM   H17G11970   7.001   4.981   9.123  3.9462 -0.1741 -0.6413
  114OSM   C18F11971   7.074   4.804   9.028 -0.9854 -0.3418  0.5344
  114OSM   H18F11972   7.158   4.874   9.010 -1.4463  0.2863  0.8086
  114OSM   H18G11973   7.026   4.795   8.928  1.2706  1.7757 -0.8474
  114OSM   H18H11974   7.112   4.702   9.049  1.5445 -0.3981 -3.2588
  115OSM      N11975   5.219   3.514  11.023 -0.5461  0.0064 -0.0598
  115OSM    C1511976   5.166   3.658  11.008  0.7323 -0.2288  0.0811
  115OSM   H15A11977   5.229   3.708  10.936 -1.1319 -1.0493 -2.2430
  115OSM   H15B11978   5.160   3.703  11.106 -1.1425 -0.0849 -0.0698
  115OSM   H15C11979   5.070   3.653  10.959  1.0290 -0.3941 -0.5016
  115OSM    C1411980   5.275   3.467  10.893  0.1699 -0.0262 -0.2907
  115OSM   H14A11981   5.325   3.371  10.900 -0.4164 -0.2783  0.6759
  115OSM   H14B11982   5.350   3.539  10.864 -0.4997  1.1661  0.8314
  115OSM   H14C11983   5.195   3.472  10.821 -1.6683  0.0274  1.6624
  115OSM    C1311984   5.336   3.510  11.114 -0.1077  0.4713  0.1511
  115OSM   H13A11985   5.373   3.409  11.122  2.5616  1.3707  0.0141
  115OSM   H13B11986   5.309   3.545  11.213 -0.7821 -0.7957  0.4401
  115OSM   H13C11987   5.423   3.560  11.073 -0.8895  1.4290 -0.3985
  115OSM    C1211988   5.106   3.422  11.066  0.0600 -0.0051  0.8060
  115OSM   H12A11989   5.075   3.456  11.164 -2.0625 -2.2067  0.9695
  115OSM   H12B11990   5.152   3.325  11.076 -1.3654 -0.9972 -1.5202
  115OSM    C1111991   4.983   3.420  10.963 -0.0008  0.4987 -0.0056
  115OSM   H11A11992   4.921   3.328  10.969  1.4620 -0.5784 -0.8441
  115OSM   H11B11993   5.023   3.412  10.860  0.8286  0.4696  0.3131
  115OSM      P11994   4.771   3.563  11.063 -0.0451  0.2103 -0.4633
  115OSM    O1311995   4.788   3.530  11.207  0.0479 -0.2042  0.1932
  115OSM    O1411996   4.713   3.695  11.031 -0.1509 -0.5616  0.1648
  115OSM    O1111997   4.666   3.456  11.008 -0.3454  0.1143  0.3095
  115OSM    O1211998   4.909   3.544  10.984 -0.5423  0.8547  0.2691
  115OSM    C1S11999   4.598   3.485  10.886 -0.4967  0.3422 -0.2891
  115OSM    H1S12000   4.601   3.591  10.856  0.2710  0.8751  1.5214
  115OSM    H1T12001   4.494   3.460  10.915  0.2412 -0.4108  1.9591
  115OSM     NF12002   4.544   3.407  10.660 -0.0226 -0.2371  0.0645
  115OSM    HNF12003   4.472   3.345  10.629  0.0392 -0.3771  0.1964
  115OSM    C2S12004   4.622   3.380  10.774  0.3426  0.0340 -1.0136
  115OSM    H2S12005   4.731   3.390  10.754  1.1741  0.2207  2.8386
  115OSM    C3S12006   4.605   3.229  10.816 -0.0661 -0.9106 -0.2260
  115OSM    H3S12007   4.503   3.213  10.856 -1.0287  2.4006 -1.0545
  115OSM     O312008   4.672   3.201  10.934 -0.7495 -0.2665 -0.1460
  115OSM    HO312009   4.690   3.282  10.983  1.2362 -2.8223  3.9059
  115OSM    C4S12010   4.637   3.139  10.697 -0.8289  0.2463 -0.1591
  115OSM    H4S12011   4.745   3.124  10.680 -1.4112 -0.8366 -3.4225
  115OSM    C5S12012   4.553   3.047  10.652  0.5961 -0.0104  0.5152
  115OSM    H5S12013   4.453   3.044  10.698 -0.2690  0.2440 -1.2887
  115OSM    C6S12014   4.574   2.931  10.557 -0.3969 -0.6944 -0.4134
  115OSM    H6S12015   4.537   2.832  10.590  3.2999 -2.4203 -0.9223
  115OSM    H6T12016   4.683   2.928  10.532 -0.2036  1.9965 -0.2044
  115OSM    C7S12017   4.511   2.963  10.417  0.3347  0.1553 -0.6928
  115OSM    H7S12018   4.542   3.062  10.376 -0.3273  0.6738  0.0347
  115OSM    H7T12019   4.401   2.957  10.426  0.3678  1.7784  1.8216
  115OSM    C8S12020   4.554   2.855  10.309  0.0595 -0.4289 -1.0464
  115OSM    H8S12021   4.522   2.755  10.344  0.2985 -0.0759  0.2432
  115OSM    H8T12022   4.665   2.856  10.306  0.2777 -1.0198  2.4975
  115OSM    C9S12023   4.483   2.866  10.175  0.2015  0.0833  0.0587
  115OSM    H9S12024   4.374   2.876  10.192  0.0928  1.0339 -1.0297
  115OSM    H9T12025   4.509   2.773  10.120 -0.0245  1.0079 -1.7040
  115OSM   C10S12026   4.527   2.987  10.088  0.4241 -1.1118  0.1622
  115OSM   H10S12027   4.632   2.966  10.057 -0.6112 -1.8586 -3.2237
  115OSM   H10T12028   4.527   3.078  10.152 -0.9050 -1.1157  0.1986
  115OSM   C11S12029   4.445   3.019   9.963  0.6942  0.0435 -0.3660
  115OSM   H11S12030   4.484   3.109   9.910 -0.7011  0.7686 -0.1969
  115OSM   H11T12031   4.343   3.045   9.998  1.0249  0.5919  0.2273
  115OSM   C12S12032   4.448   2.901   9.859  0.9715  0.2830  0.1417
  115OSM   H12S12033   4.418   2.808   9.911  1.6172  0.0006  0.0177
  115OSM   H12T12034   4.551   2.879   9.822  1.6221  2.0263  0.8106
  115OSM   C13S12035   4.365   2.929   9.723  0.0798  0.2743 -0.1567
  115OSM   H13S12036   4.377   3.039   9.710  0.4913  0.4084  1.2326
  115OSM   H13T12037   4.257   2.908   9.736  0.1118 -0.7308 -1.3562
  115OSM   C14S12038   4.419   2.849   9.606 -0.0687  0.3383 -0.1851
  115OSM   H14S12039   4.397   2.743   9.633  0.2714  0.2518 -0.2416
  115OSM   H14T12040   4.529   2.865   9.605 -0.3661  2.8943  0.6908
  115OSM   C15S12041   4.355   2.894   9.474  0.6764 -0.3340 -0.5995
  115OSM   H15S12042   4.421   2.951   9.405  0.0169  1.3727  0.1187
  115OSM   H15T12043   4.272   2.963   9.497  1.8094  1.7119 -2.2678
  115OSM   C16S12044   4.303   2.779   9.386  0.3069 -0.1056 -0.0074
  115OSM   H16S12045   4.243   2.704   9.441 -0.0535 -0.9669 -1.5029
  115OSM   H16T12046   4.395   2.726   9.353 -0.2561  0.0833 -2.0127
  115OSM   C17S12047   4.240   2.821   9.252 -0.9174 -0.0547  0.4834
  115OSM   H17S12048   4.304   2.902   9.212  0.4354 -1.7739 -0.9866
  115OSM   H17T12049   4.136   2.862   9.253 -1.0917 -0.4331 -0.5720
  115OSM   C18S12050   4.251   2.710   9.146 -0.3761  0.3193  0.1390
  115OSM   H18S12051   4.200   2.622   9.189  0.0047  1.0959  2.2740
  115OSM   H18T12052   4.354   2.700   9.107 -0.0088  0.1809  1.1169
  115OSM   H18U12053   4.183   2.736   9.062 -0.5405  0.9936  0.4739
  115OSM    C1F12054   4.546   3.529  10.597  0.7026  0.0262  0.4175
  115OSM     OF12055   4.625   3.615  10.620  0.4507  0.2125  0.2267
  115OSM    C2F12056   4.446   3.542  10.489  0.7146  0.3824  0.3553
  115OSM    H2F12057   4.419   3.644  10.456 -0.4325 -0.4814 -1.5524
  115OSM    H2G12058   4.353   3.489  10.519  1.9984 -0.6785  2.7876
  115OSM    C3F12059   4.492   3.471  10.361  0.0132  0.1093  0.7882
  115OSM    H3F12060   4.547   3.376  10.378  0.6687  0.3684  0.1560
  115OSM    H3G12061   4.564   3.542  10.314 -2.0696  0.7278 -1.7138
  115OSM    C4F12062   4.370   3.453  10.269  0.0191  0.7414  0.1819
  115OSM    H4F12063   4.326   3.554  10.253  0.7484  0.9185 -0.7971
  115OSM    H4G12064   4.301   3.384  10.322 -0.0639 -0.0831 -0.9555
  115OSM    C5F12065   4.402   3.390  10.132 -0.2507 -0.9070  0.2067
  115OSM    H5F12066   4.436   3.284  10.144 -0.8015 -1.7268 -4.0151
  115OSM    H5G12067   4.488   3.454  10.101  0.1208  0.3445  3.4291
  115OSM    C6F12068   4.293   3.403  10.025  0.0652 -0.4671  0.3062
  115OSM    H6F12069   4.276   3.512  10.014 -1.0283 -0.7536 -1.1292
  115OSM    H6G12070   4.195   3.354  10.047 -1.4344  3.1386  2.6521
  115OSM    C7F12071   4.340   3.352   9.888 -0.1449 -0.7994  0.7871
  115OSM    H7F12072   4.335   3.241   9.877  1.3283 -0.6224 -4.1470
  115OSM    H7G12073   4.440   3.389   9.857 -0.8210  0.3875 -0.0063
  115OSM    C8F12074   4.243   3.392   9.768 -0.1777  0.0988 -0.7747
  115OSM    H8F12075   4.297   3.368   9.674 -1.8909 -0.6480 -1.6138
  115OSM    H8G12076   4.240   3.503   9.769 -0.3990  0.0915  0.4783
  115OSM    C9F12077   4.100   3.335   9.768 -0.0255  0.2072  0.0184
  115OSM    H9F12078   4.035   3.388   9.840  1.0162  1.0043  0.4095
  115OSM   C10F12079   4.051   3.240   9.683 -0.5697 -0.6177  0.4340
  115OSM   H10F12080   3.954   3.190   9.698 -1.1014 -0.3599 -1.7618
  115OSM   C11F12081   4.123   3.185   9.572  0.2651  0.4435  0.3865
  115OSM   H11F12082   4.086   3.081   9.557  0.5114  0.2661  0.9750
  115OSM   H11G12083   4.233   3.187   9.584  0.5324  2.8722 -1.6379
  115OSM   C12F12084   4.100   3.258   9.448 -0.1311 -0.0738  0.3837
  115OSM   H12F12085   4.116   3.367   9.464 -1.4790  0.3867 -1.2019
  115OSM   H12G12086   3.992   3.255   9.422  0.2578  1.2535 -1.5783
  115OSM   C13F12087   4.189   3.205   9.336  0.0480 -0.5808  0.0991
  115OSM   H13F12088   4.160   3.098   9.330  1.6891 -1.1468  1.3880
  115OSM   H13G12089   4.296   3.199   9.367 -0.3012  1.3231  1.9268
  115OSM   C14F12090   4.158   3.268   9.200  0.8409  0.3524  0.5702
  115OSM   H14F12091   4.228   3.353   9.184  0.2751  0.7112 -0.0521
  115OSM   H14G12092   4.057   3.314   9.193  1.8359  2.4334 -2.5188
  115OSM   C15F12093   4.177   3.166   9.093  0.4261  0.4331  0.4674
  115OSM   H15F12094   4.086   3.103   9.090  2.1955 -2.3176 -1.8846
  115OSM   H15G12095   4.260   3.097   9.120  1.0709  0.8408 -0.4083
  115OSM   C16F12096   4.207   3.227   8.952 -0.7915  0.5537  0.0106
  115OSM   H16F12097   4.309   3.272   8.949  0.5704 -2.3714 -0.9318
  115OSM   H16G12098   4.135   3.305   8.919  0.7763  1.5987 -1.0544
  115OSM   C17F12099   4.215   3.116   8.848 -0.0264  0.2061 -0.3466
  115OSM   H17F12100   4.116   3.072   8.821 -0.7997  0.1407  2.3164
  115OSM   H17G12101   4.269   3.029   8.890 -3.2743 -3.1997 -2.5597
  115OSM   C18F12102   4.286   3.151   8.711  0.2658  0.5754 -0.3309
  115OSM   H18F12103   4.263   3.080   8.629  0.6508  0.2449 -0.1575
  115OSM   H18G12104   4.394   3.148   8.738 -0.0905  2.4477  1.5500
  115OSM   H18H12105   4.253   3.254   8.684 -1.6897  0.2361  0.5921
  116OSM      N12106   0.586   6.649  11.423  0.6424 -0.4291 -0.1144
  116OSM    C1512107   0.729   6.610  11.427  0.7252  0.0175  0.3310
  116OSM   H15A12108   0.794   6.688  11.463  0.8614 -0.6520  1.5783
  116OSM   H15B12109   0.756   6.594  11.323 -2.4914 -0.9185 -0.4772
  116OSM   H15C12110   0.739   6.519  11.485 -1.3734 -1.7921 -1.9408
  116OSM    C1412111   0.530   6.651  11.568  0.1948  0.3432  0.0627
  116OSM   H14A12112   0.511   6.551  11.604 -0.2516  1.0872  2.0420
  116OSM   H14B12113   0.432   6.698  11.566  1.7604  3.9328 -0.3318
  116OSM   H14C12114   0.602   6.712  11.620 -0.9045  2.0243 -0.2943
  116OSM    C1312115   0.568   6.783  11.364  0.0306  0.0558  0.3738
  116OSM   H13A12116   0.608   6.857  11.432 -1.9842  2.3434 -0.7908
  116OSM   H13B12117   0.462   6.798  11.353  0.1212 -0.4605 -1.5256
  116OSM   H13C12118   0.614   6.788  11.266 -0.1071 -0.9893  0.2377
  116OSM    C1212119   0.507   6.548  11.343  0.2245  0.0807 -0.4663
  116OSM   H12A12120   0.402   6.563  11.363  0.3031 -1.8243  1.8223
  116OSM   H12B12121   0.516   6.446  11.377  0.1087  0.4111  0.5865
  116OSM    C1112122   0.536   6.545  11.196  0.8692  0.1921 -0.5913
  116OSM   H11A12123   0.602   6.457  11.183  2.0154  1.0024 -0.4113
  116OSM   H11B12124   0.571   6.642  11.155 -0.0894  1.7032  1.8782
  116OSM      P12125   0.301   6.624  11.124 -0.3423 -0.0176  0.7200
  116OSM    O1312126   0.178   6.557  11.089 -0.2340  0.4891  0.4152
  116OSM    O1412127   0.300   6.711  11.246 -0.2815 -0.0307 -0.3871
  116OSM    O1112128   0.348   6.707  10.998  0.6303  0.0354 -0.6069
  116OSM    O1212129   0.412   6.513  11.131 -0.7118  0.8266 -0.1191
  116OSM    C1S12130   0.432   6.651  10.898  0.2207  0.3458 -0.1350
  116OSM    H1S12131   0.392   6.550  10.875  2.5850 -0.8246  0.5706
  116OSM    H1T12132   0.532   6.635  10.944 -0.5938 -0.6292  1.3854
  116OSM     NF12133   0.538   6.671  10.688  0.9577 -0.2862  0.0151
  116OSM    HNF12134   0.634   6.697  10.694  0.9268  0.3531 -1.6457
  116OSM    C2S12135   0.444   6.740  10.774 -0.7463 -0.5130 -0.3738
  116OSM    H2S12136   0.343   6.745  10.729 -1.4657  0.3969  1.2674
  116OSM    C3S12137   0.479   6.883  10.808  0.1163 -0.8601 -0.2853
  116OSM    H3S12138   0.564   6.891  10.879  0.5252 -1.8754 -0.6439
  116OSM     O312139   0.382   6.945  10.896  0.0865 -0.2900 -0.0121
  116OSM    HO312140   0.331   6.875  10.939 -1.4248  0.4485 -0.5593
  116OSM    C4S12141   0.516   6.975  10.688 -0.4890 -0.1077 -0.6888
  116OSM    H4S12142   0.621   6.966  10.654 -0.3124 -2.9934  0.3160
  116OSM    C5S12143   0.429   7.052  10.626  0.4683 -0.9747  0.6789
  116OSM    H5S12144   0.326   7.069  10.661 -0.0416 -0.1327 -1.1025
  116OSM    C6S12145   0.464   7.134  10.508  0.9265  0.2641 -0.5657
  116OSM    H6S12146   0.473   7.242  10.533 -2.3973  0.3367  0.9648
  116OSM    H6T12147   0.381   7.116  10.436 -0.8117 -4.1595  2.0575
  116OSM    C7S12148   0.588   7.096  10.433 -0.5451 -0.1222  0.0931
  116OSM    H7S12149   0.588   6.988  10.409 -1.0754  0.3853 -2.4698
  116OSM    H7T12150   0.670   7.139  10.494 -3.4152  1.6065  3.0794
  116OSM    C8S12151   0.599   7.172  10.301  0.4651 -0.4329  0.0364
  116OSM    H8S12152   0.609   7.280  10.325  1.7965 -0.6973  0.7644
  116OSM    H8T12153   0.507   7.156  10.241  0.3791 -0.4595  0.1756
  116OSM    C9S12154   0.720   7.116  10.215  0.0857 -0.1508  0.4168
  116OSM    H9S12155   0.719   7.005  10.211  0.4325 -0.1274 -0.5284
  116OSM    H9T12156   0.811   7.157  10.264 -0.7744 -1.7830  3.6756
  116OSM   C10S12157   0.713   7.171  10.068  0.3782 -0.4861  0.1712
  116OSM   H10S12158   0.813   7.155  10.023  0.6098 -3.2467  1.4927
  116OSM   H10T12159   0.688   7.279  10.059  0.9709 -0.4376 -1.1110
  116OSM   C11S12160   0.605   7.104   9.987 -0.1881  0.4304  0.7704
  116OSM   H11S12161   0.500   7.126  10.016 -0.4385  1.0557 -0.5765
  116OSM   H11T12162   0.620   6.994   9.991 -1.1651  0.0473 -2.6510
  116OSM   C12S12163   0.620   7.148   9.839  0.5847  0.0962  0.1470
  116OSM   H12S12164   0.722   7.113   9.810  0.8239  1.4477 -0.7278
  116OSM   H12T12165   0.610   7.258   9.828 -0.7763 -0.2311 -2.6419
  116OSM   C13S12166   0.518   7.086   9.743 -0.8803 -0.2531  0.4484
  116OSM   H13S12167   0.417   7.126   9.764 -0.4496  1.9954 -1.3101
  116OSM   H13T12168   0.524   6.977   9.763  0.3878 -0.0881  1.0641
  116OSM   C14S12169   0.546   7.110   9.594 -0.6874  0.2414 -0.0163
  116OSM   H14S12170   0.490   7.033   9.537  0.3512 -0.8149  0.3472
  116OSM   H14T12171   0.657   7.110   9.582 -0.6613  1.3892  0.1238
  116OSM   C15S12172   0.503   7.252   9.556  0.6915 -0.1963  0.1345
  116OSM   H15S12173   0.518   7.317   9.645  0.4736  0.7430 -0.4986
  116OSM   H15T12174   0.393   7.256   9.543  0.4407 -0.0816  1.9985
  116OSM   C16S12175   0.568   7.311   9.429  0.7955 -0.4394 -0.2639
  116OSM   H16S12176   0.519   7.405   9.396  0.7392 -0.6748 -0.8512
  116OSM   H16T12177   0.563   7.240   9.344  0.4084 -0.9475  0.1728
  116OSM   C17S12178   0.722   7.331   9.434  0.0226  0.3042 -0.4228
  116OSM   H17S12179   0.761   7.235   9.473 -0.1960 -0.1141 -1.2110
  116OSM   H17T12180   0.736   7.402   9.518 -0.4815 -0.1593  0.0680
  116OSM   C18S12181   0.794   7.363   9.308 -0.1483 -0.3276  0.1310
  116OSM   H18S12182   0.771   7.468   9.278 -0.1141 -0.6209 -0.9684
  116OSM   H18T12183   0.754   7.290   9.235 -2.2028 -0.9578  1.8078
  116OSM   H18U12184   0.904   7.350   9.322  0.0292 -0.3562 -1.1463
  116OSM    C1F12185   0.505   6.563  10.614  0.2978  0.6298 -0.0439
  116OSM     OF12186   0.386   6.529  10.613  0.2707  0.0118  0.2953
  116OSM    C2F12187   0.603   6.501  10.517  0.3097 -0.0080  0.2999
  116OSM    H2F12188   0.702   6.511  10.566  0.8978 -0.4684 -0.7833
  116OSM    H2G12189   0.603   6.554  10.419 -2.3649 -0.4155  0.0084
  116OSM    C3F12190   0.569   6.352  10.482  0.1553  0.2823  0.0294
  116OSM    H3F12191   0.462   6.335  10.459  0.7274  0.5533 -3.2819
  116OSM    H3G12192   0.611   6.279  10.555  0.4194  0.2798 -0.1263
  116OSM    C4F12193   0.634   6.315  10.356  0.8002  0.0297  0.4173
  116OSM    H4F12194   0.647   6.206  10.342 -0.3753 -0.0501 -0.1012
  116OSM    H4G12195   0.730   6.369  10.338 -0.1349  1.6083 -0.0118
  116OSM    C5F12196   0.553   6.362  10.237  0.0581 -0.2724  0.0828
  116OSM    H5F12197   0.533   6.472  10.237  0.1134 -0.2065 -2.4047
  116OSM    H5G12198   0.459   6.303  10.240 -0.5131  0.6652  1.2353
  116OSM    C6F12199   0.612   6.325  10.101 -0.9159  0.2482  0.6156
  116OSM    H6F12200   0.634   6.216  10.097 -2.6983 -0.1033 -1.9276
  116OSM    H6G12201   0.708   6.380  10.094 -0.9664  0.1350 -1.4945
  116OSM    C7F12202   0.526   6.337   9.967  0.4077  0.1206 -0.1479
  116OSM    H7F12203   0.526   6.444   9.937  1.0756  1.0506  2.8843
  116OSM    H7G12204   0.428   6.302  10.004  1.0958 -3.0658 -0.9512
  116OSM    C8F12205   0.573   6.245   9.852  0.2067  0.0934  0.0239
  116OSM    H8F12206   0.525   6.275   9.756 -1.9477 -0.3011  0.8995
  116OSM    H8G12207   0.537   6.141   9.870  1.4761 -0.7590 -2.0048
  116OSM    C9F12208   0.728   6.239   9.838 -0.8954  0.0740  0.1588
  116OSM    H9F12209   0.786   6.204   9.925 -1.3727 -0.6896  0.1759
  116OSM   C10F12210   0.806   6.293   9.739 -0.0115  0.2722  0.0132
  116OSM   H10F12211   0.915   6.300   9.744  0.1205  0.7812 -2.3182
  116OSM   C11F12212   0.750   6.344   9.614 -0.2587 -0.2759 -0.1445
  116OSM   H11F12213   0.798   6.440   9.587  1.3391 -1.1685 -0.6321
  116OSM   H11G12214   0.639   6.351   9.614 -0.2911 -0.7093  0.8009
  116OSM   C12F12215   0.786   6.240   9.506  0.5001  0.4962 -0.2472
  116OSM   H12F12216   0.744   6.144   9.542 -2.6123  1.3797 -1.1841
  116OSM   H12G12217   0.893   6.215   9.493  1.0257  2.6437 -0.5539
  116OSM   C13F12218   0.727   6.276   9.382  0.3198  0.0551  0.2857
  116OSM   H13F12219   0.618   6.297   9.380  0.2059 -0.5343 -1.2879
  116OSM   H13G12220   0.729   6.192   9.308  0.5486  0.4781 -0.1935
  116OSM   C14F12221   0.799   6.397   9.324  1.3493 -0.2452 -0.1775
  116OSM   H14F12222   0.908   6.381   9.339  1.1562 -1.8320 -0.3372
  116OSM   H14G12223   0.786   6.486   9.390  0.8146 -0.4381 -0.0207
  116OSM   C15F12224   0.766   6.423   9.176 -0.0496 -0.4810  0.1485
  116OSM   H15F12225   0.661   6.459   9.178  0.4238  1.4869 -2.6995
  116OSM   H15G12226   0.766   6.328   9.119  1.3351  0.5127 -1.6614
  116OSM   C16F12227   0.852   6.528   9.114 -0.3950  0.3592  0.5680
  116OSM   H16F12228   0.957   6.490   9.108  0.8166  3.2365  1.9561
  116OSM   H16G12229   0.855   6.622   9.172  2.8752 -0.2439  1.6066
  116OSM   C17F12230   0.815   6.552   8.970  0.0302 -0.0695  0.1299
  116OSM   H17F12231   0.709   6.587   8.965  0.7534  3.0412  2.8847
  116OSM   H17G12232   0.817   6.458   8.912  0.5252  0.9644 -1.6158
  116OSM   C18F12233   0.908   6.655   8.904  1.0366 -0.0684 -0.1984
  116OSM   H18F12234   0.938   6.631   8.799  1.2308 -0.8140  0.0233
  116OSM   H18G12235   0.995   6.662   8.972  1.2190 -0.8462 -0.3441
  116OSM   H18H12236   0.867   6.757   8.918  3.0348  0.6181  1.0329
  117OSM      N12237   3.764   0.282  11.374 -0.3157  0.2561 -0.1017
  117OSM    C1512238   3.712   0.408  11.433  0.6674 -0.2840  0.3273
  117OSM   H15A12239   3.777   0.490  11.406  0.0317  0.1110 -0.0238
  117OSM   H15B12240   3.713   0.413  11.541  4.1687  2.7121  0.3736
  117OSM   H15C12241   3.611   0.429  11.403  0.2465  1.0301  2.4733
  117OSM    C1412242   3.897   0.251  11.425  0.0396 -0.4920 -0.7024
  117OSM   H14A12243   3.885   0.252  11.533 -3.3818 -3.1681 -0.8677
  117OSM   H14B12244   3.982   0.318  11.418  0.0911 -0.3180  0.9472
  117OSM   H14C12245   3.924   0.148  11.408  3.1635  0.0107  0.5514
  117OSM    C1312246   3.674   0.165  11.411 -0.2495 -0.9715  0.8103
  117OSM   H13A12247   3.683   0.153  11.518  1.0024  0.5543  0.9132
  117OSM   H13B12248   3.706   0.072  11.365  1.3048  1.4914 -3.6917
  117OSM   H13C12249   3.570   0.184  11.392  0.5917  1.6581 -1.8704
  117OSM    C1212250   3.762   0.293  11.221 -0.1430  0.2381 -0.4532
  117OSM   H12A12251   3.660   0.308  11.190 -0.3081  1.4186  0.6044
  117OSM   H12B12252   3.784   0.200  11.170 -0.6148  0.5867 -1.3192
  117OSM    C1112253   3.833   0.401  11.132 -0.1638  0.3459  0.0985
  117OSM   H11A12254   3.776   0.494  11.149 -0.2954 -0.1521  2.7906
  117OSM   H11B12255   3.821   0.375  11.025 -1.6131 -1.3112  0.6127
  117OSM      P12256   4.087   0.347  11.092 -0.3787  0.0515 -0.5141
  117OSM    O1312257   4.216   0.375  11.152 -0.5568  0.1284  0.3195
  117OSM    O1412258   4.047   0.204  11.078 -0.2091  0.2313 -0.3877
  117OSM    O1112259   4.090   0.417  10.946 -0.0574 -0.3800 -0.8799
  117OSM    O1212260   3.972   0.421  11.179 -0.1465  1.0168  0.2059
  117OSM    C1S12261   4.044   0.544  10.921 -0.1190  0.1775 -0.1952
  117OSM    H1S12262   4.109   0.626  10.958  0.1938 -0.1776  0.0526
  117OSM    H1T12263   3.952   0.566  10.979  1.3825  0.7818  2.0616
  117OSM     NF12264   3.989   0.712  10.753 -0.3252 -0.1856  0.1023
  117OSM    HNF12265   3.894   0.727  10.780 -1.1540 -4.6439  0.5687
  117OSM    C2S12266   4.022   0.570  10.770  0.2272 -0.1890 -0.0619
  117OSM    H2S12267   4.114   0.549  10.711 -0.5372 -0.5954 -1.1364
  117OSM    C3S12268   3.913   0.471  10.718  0.4250 -0.1789 -0.0143
  117OSM    H3S12269   3.823   0.487  10.782  2.6297  2.4728  2.7406
  117OSM     O312270   3.951   0.334  10.735  0.6512  0.0244 -0.4812
  117OSM    HO312271   4.012   0.345  10.809  1.1346  1.0931 -1.0125
  117OSM    C4S12272   3.863   0.503  10.571  0.6891  0.2597 -0.2009
  117OSM    H4S12273   3.798   0.591  10.571  1.1378  0.5948  0.1425
  117OSM    C5S12274   3.895   0.443  10.459 -0.2268 -0.0040  0.1252
  117OSM    H5S12275   3.972   0.366  10.462 -0.0675  0.1807  2.0490
  117OSM    C6S12276   3.855   0.483  10.325 -0.4164  0.5944 -0.6167
  117OSM    H6S12277   3.866   0.388  10.268  0.2432  0.6320 -0.5550
  117OSM    H6T12278   3.931   0.546  10.274  0.6790 -0.1924  0.0163
  117OSM    C7S12279   3.710   0.537  10.299 -0.0746  0.3622 -0.1081
  117OSM    H7S12280   3.697   0.622  10.369  2.3597  1.9950 -1.4970
  117OSM    H7T12281   3.636   0.458  10.324 -0.8170  1.1296  0.1935
  117OSM    C8S12282   3.690   0.592  10.154  0.8566 -0.0032 -0.6580
  117OSM    H8S12283   3.769   0.670  10.155  0.4431  0.4885  2.5660
  117OSM    H8T12284   3.599   0.649  10.127 -0.1816 -0.8473  0.8914
  117OSM    C9S12285   3.725   0.497  10.038  0.1741  0.0496  0.4725
  117OSM    H9S12286   3.668   0.402  10.045  0.2088 -0.1412 -1.3416
  117OSM    H9T12287   3.825   0.449  10.042 -0.4337 -1.4790 -1.3668
  117OSM   C10S12288   3.724   0.557   9.895  0.0994 -0.0536 -0.0079
  117OSM   H10S12289   3.806   0.630   9.887 -0.3922  0.3370 -1.8869
  117OSM   H10T12290   3.626   0.606   9.876  0.6328  0.5373 -1.3435
  117OSM   C11S12291   3.745   0.444   9.796 -0.3346  0.3196 -0.3124
  117OSM   H11S12292   3.658   0.375   9.800  0.3514 -0.6874 -2.0551
  117OSM   H11T12293   3.837   0.392   9.829 -0.4786 -0.2920 -0.8767
  117OSM   C12S12294   3.760   0.493   9.657  0.3785 -0.0230  0.6952
  117OSM   H12S12295   3.840   0.570   9.645  0.7480 -0.7165 -1.8525
  117OSM   H12T12296   3.671   0.546   9.617  1.3551  1.6973  0.6671
  117OSM   C13S12297   3.781   0.375   9.558 -0.5900 -0.6806 -0.7641
  117OSM   H13S12298   3.680   0.330   9.541 -1.9264  1.7801  0.1306
  117OSM   H13T12299   3.834   0.296   9.615  2.3477  0.0988 -2.2109
  117OSM   C14S12300   3.849   0.418   9.429 -0.5921  0.3102  0.2152
  117OSM   H14S12301   3.944   0.469   9.454  0.4370 -1.9399  1.1610
  117OSM   H14T12302   3.779   0.477   9.366 -1.2465 -2.2025 -1.5775
  117OSM   C15S12303   3.886   0.288   9.360 -0.2242 -0.0711  0.0709
  117OSM   H15S12304   3.799   0.226   9.331 -1.4154  0.9147  1.4139
  117OSM   H15T12305   3.939   0.223   9.433 -0.9390 -0.4824  0.2295
  117OSM   C16S12306   3.980   0.306   9.231  0.7006 -0.4015  0.3536
  117OSM   H16S12307   4.059   0.381   9.248 -0.2888  0.8068 -0.2514
  117OSM   H16T12308   3.913   0.344   9.151  1.1553  0.0343  0.1806
  117OSM   C17S12309   4.040   0.171   9.192  0.3795  0.2827 -0.0534
  117OSM   H17S12310   3.971   0.084   9.194  2.0677 -1.1062  0.0956
  117OSM   H17T12311   4.125   0.148   9.261  1.3556 -0.8430 -1.5529
  117OSM   C18S12312   4.099   0.178   9.052  0.5627  0.5435  0.2661
  117OSM   H18S12313   4.177   0.258   9.056  0.4835  0.6387 -0.0635
  117OSM   H18T12314   4.033   0.220   8.974  0.7982  1.6386  0.6402
  117OSM   H18U12315   4.137   0.081   9.013  0.8106  0.8153 -0.1851
  117OSM    C1F12316   4.067   0.817  10.734 -0.6507 -0.4760  0.2305
  117OSM     OF12317   4.172   0.796  10.683  0.0758  0.0653 -0.0577
  117OSM    C2F12318   4.030   0.958  10.773  0.1069  0.7376  0.2463
  117OSM    H2F12319   4.106   1.023  10.724 -1.3315  1.4225 -1.1933
  117OSM    H2G12320   4.041   0.965  10.883  1.0001  2.0261  0.1075
  117OSM    C3F12321   3.889   0.993  10.727  0.3834  0.1151  0.3376
  117OSM    H3F12322   3.885   1.102  10.746  1.1763  0.4831 -1.4036
  117OSM    H3G12323   3.817   0.938  10.792 -1.8150  3.8324  1.3044
  117OSM    C4F12324   3.862   0.985  10.574  0.0774  0.3991  0.2081
  117OSM    H4F12325   3.774   1.044  10.540  0.6661  1.0947 -0.1235
  117OSM    H4G12326   3.843   0.879  10.546  1.1512  0.6026 -1.4277
  117OSM    C5F12327   3.985   1.031  10.496 -0.2712 -0.0049  0.2187
  117OSM    H5F12328   4.079   0.975  10.516 -0.9466 -2.3248 -2.3665
  117OSM    H5G12329   4.000   1.137  10.522 -2.4330  0.8909 -1.7780
  117OSM    C6F12330   3.976   1.011  10.344  0.4393  0.2148 -0.3118
  117OSM    H6F12331   4.039   1.088  10.295  1.8200  0.2418  1.4001
  117OSM    H6G12332   3.868   1.027  10.323  0.5121  2.2053  0.5543
  117OSM    C7F12333   4.022   0.877  10.296  0.5663 -0.4483  0.0132
  117OSM    H7F12334   3.966   0.791  10.339 -0.1847 -2.6422 -4.7260
  117OSM    H7G12335   4.126   0.855  10.327  1.2642  0.8636 -1.2663
  117OSM    C8F12336   4.019   0.857  10.145 -0.2412  0.6017 -0.2777
  117OSM    H8F12337   3.914   0.865  10.108 -1.0354 -2.7950  0.8881
  117OSM    H8G12338   4.039   0.755  10.106  1.0554  1.2651 -1.4323
  117OSM    C9F12339   4.119   0.933  10.069  0.0365  0.0090  0.1957
  117OSM    H9F12340   4.187   0.991  10.134 -3.1344  3.3822  0.8259
  117OSM   C10F12341   4.129   0.918   9.936  0.2738  0.2628  0.6053
  117OSM   H10F12342   4.188   0.981   9.868 -1.0037  0.9594  0.0936
  117OSM   C11F12343   4.048   0.833   9.836  0.1474 -0.0106 -0.5878
  117OSM   H11F12344   3.962   0.770   9.871 -1.1115  0.0395 -3.3323
  117OSM   H11G12345   4.110   0.762   9.777 -1.9434 -0.1940 -2.7357
  117OSM   C12F12346   3.992   0.919   9.730 -0.0921 -0.4711 -0.0847
  117OSM   H12F12347   4.081   0.971   9.689  0.5362 -0.8353  0.7999
  117OSM   H12G12348   3.912   0.983   9.774 -0.8013  0.0438 -1.9972
  117OSM   C13F12349   3.921   0.844   9.616 -0.7359 -0.3209 -0.5341
  117OSM   H13F12350   3.837   0.794   9.668 -0.1675 -0.7865 -0.0476
  117OSM   H13G12351   3.993   0.777   9.564  0.0513  1.7238 -2.2283
  117OSM   C14F12352   3.858   0.929   9.501  0.5143  0.2333 -0.0915
  117OSM   H14F12353   3.935   0.996   9.458 -0.3438  0.8560 -0.6901
  117OSM   H14G12354   3.787   1.002   9.546  1.2505  0.1837  1.2277
  117OSM   C15F12355   3.793   0.849   9.386  0.8350  0.3988 -0.1096
  117OSM   H15F12356   3.691   0.890   9.371  0.4151 -1.0365 -1.4754
  117OSM   H15G12357   3.780   0.741   9.408  1.5532  0.6963  1.9945
  117OSM   C16F12358   3.871   0.848   9.251 -0.3806  0.2971  0.1271
  117OSM   H16F12359   3.905   0.950   9.225 -2.5664  0.9635 -0.3764
  117OSM   H16G12360   3.790   0.814   9.183 -1.9393 -2.1555  2.9771
  117OSM   C17F12361   3.979   0.743   9.247  0.3332 -0.2894  0.8800
  117OSM   H17F12362   3.937   0.646   9.280 -2.1699  0.4746  0.1649
  117OSM   H17G12363   4.068   0.775   9.305  0.7911  1.5662 -0.7173
  117OSM   C18F12364   4.034   0.704   9.105  0.0612 -0.3790  0.6640
  117OSM   H18F12365   4.059   0.794   9.045  3.6986 -0.2572  2.1140
  117OSM   H18G12366   3.952   0.647   9.056 -1.6824  1.5077  1.2563
  117OSM   H18H12367   4.127   0.647   9.124  0.8632  0.9061  0.6850
  118OSM      N12368   5.005   2.222  11.065 -0.1069 -0.0523  0.4478
  118OSM    C1512369   4.913   2.147  10.965  0.6138 -0.0261 -0.0915
  118OSM   H15A12370   4.972   2.090  10.894  0.4317 -1.1589  0.6401
  118OSM   H15B12371   4.850   2.217  10.913 -0.8455 -0.8062  0.5790
  118OSM   H15C12372   4.848   2.080  11.018 -1.0176  1.4921 -0.1001
  118OSM    C1412373   4.924   2.306  11.163  0.0414 -0.0797 -0.1015
  118OSM   H14A12374   4.875   2.385  11.108  0.0425 -0.7880 -1.1496
  118OSM   H14B12375   4.990   2.346  11.239 -0.6898  1.1496 -0.0785
  118OSM   H14C12376   4.846   2.252  11.215  0.3351  2.1203  2.9094
  118OSM    C1312377   5.062   2.110  11.147 -0.1028 -0.1508  0.0220
  118OSM   H13A12378   5.126   2.045  11.089  1.0018 -0.0103  1.0309
  118OSM   H13B12379   4.995   2.041  11.197 -0.3624 -0.4571 -0.7331
  118OSM   H13C12380   5.140   2.151  11.208  0.3034  2.4376 -2.0476
  118OSM    C1212381   5.110   2.309  11.001  0.2728  0.2980  0.4337
  118OSM   H12A12382   5.157   2.358  11.084  1.5911 -2.5104  1.4749
  118OSM   H12B12383   5.069   2.384  10.935  1.0910 -1.0239 -1.6887
  118OSM    C1112384   5.220   2.240  10.914 -0.3819  0.4512  0.6225
  118OSM   H11A12385   5.273   2.324  10.864 -0.7751  1.2265  1.4862
  118OSM   H11B12386   5.174   2.171  10.840  0.2993  0.3512  0.2834
  118OSM      P12387   5.452   2.209  11.032 -0.3858 -0.1857  0.2107
  118OSM    O1312388   5.463   2.355  11.064  0.1776 -0.4257  0.4833
  118OSM    O1412389   5.512   2.119  11.128  0.4177  0.2782  0.7766
  118OSM    O1112390   5.513   2.188  10.887 -0.0324 -0.4965  0.4982
  118OSM    O1212391   5.297   2.171  11.007  0.2668 -0.2425 -0.2745
  118OSM    C1S12392   5.477   2.081  10.807  0.1081  0.8327  0.2830
  118OSM    H1S12393   5.390   2.022  10.843  1.8808 -0.6677  2.3917
  118OSM    H1T12394   5.565   2.014  10.806 -0.3078  0.2860 -0.7930
  118OSM     NF12395   5.424   2.019  10.574 -0.1253 -0.0715 -0.6880
  118OSM    HNF12396   5.490   1.998  10.503  2.7443  1.2010  1.3937
  118OSM    C2S12397   5.453   2.127  10.662  0.4324 -1.1662 -0.4901
  118OSM    H2S12398   5.371   2.201  10.651  1.6132  0.0787 -1.2247
  118OSM    C3S12399   5.571   2.216  10.612 -0.3562  0.4406  0.1854
  118OSM    H3S12400   5.664   2.155  10.621 -0.0295  0.8213 -0.4868
  118OSM     O312401   5.603   2.324  10.697 -0.0034  0.0291  0.1222
  118OSM    HO312402   5.593   2.286  10.785  1.3345 -0.1079  0.2353
  118OSM    C4S12403   5.557   2.255  10.467  0.0761  0.6201 -0.2883
  118OSM    H4S12404   5.577   2.172  10.397  0.2530  0.0226  0.4634
  118OSM    C5S12405   5.511   2.365  10.416  0.3709 -0.3824 -0.1187
  118OSM    H5S12406   5.471   2.445  10.480  2.7975  1.4744 -0.7539
  118OSM    C6S12407   5.493   2.391  10.263  0.1297  1.1065  0.2944
  118OSM    H6S12408   5.551   2.479  10.227 -1.5238  1.0035 -3.0301
  118OSM    H6T12409   5.388   2.417  10.238 -1.1070 -1.0348  2.7998
  118OSM    C7S12410   5.539   2.273  10.171 -0.0380  0.0671 -0.2092
  118OSM    H7S12411   5.465   2.193  10.192  0.5233 -0.6287 -0.8634
  118OSM    H7T12412   5.639   2.236  10.200  0.7231 -0.4886 -3.2266
  118OSM    C8S12413   5.514   2.308  10.027 -0.7469  0.6151 -0.3336
  118OSM    H8S12414   5.544   2.410   9.998 -0.8260  0.7620  0.0955
  118OSM    H8T12415   5.405   2.322  10.008 -1.4436 -3.2633 -0.1818
  118OSM    C9S12416   5.569   2.210   9.923 -0.5449 -0.4222  0.1014
  118OSM    H9S12417   5.543   2.107   9.957  1.4888 -1.1625 -0.3835
  118OSM    H9T12418   5.680   2.213   9.915 -0.6909  1.1480 -3.1251
  118OSM   C10S12419   5.515   2.238   9.782  0.5599  0.3794  0.2653
  118OSM   H10S12420   5.517   2.348   9.765  1.3777  0.3241 -0.0366
  118OSM   H10T12421   5.407   2.213   9.780  0.3648  1.1419 -2.2703
  118OSM   C11S12422   5.601   2.174   9.670 -0.5324  0.0808 -0.1288
  118OSM   H11S12423   5.546   2.183   9.574 -0.7579 -1.6791 -0.1844
  118OSM   H11T12424   5.592   2.067   9.698  0.5312  0.7592  3.3321
  118OSM   C12S12425   5.737   2.240   9.654  0.2073 -0.0637 -0.1056
  118OSM   H12S12426   5.794   2.211   9.745  0.6482  3.6079  0.9565
  118OSM   H12T12427   5.731   2.351   9.661 -4.8059 -0.0440 -1.2222
  118OSM   C13S12428   5.815   2.195   9.526 -0.6369  0.3726 -0.4160
  118OSM   H13S12429   5.809   2.085   9.513 -2.2769  0.2000  1.2940
  118OSM   H13T12430   5.920   2.214   9.558 -0.8852 -1.3889  1.7246
  118OSM   C14S12431   5.790   2.285   9.410  0.1624 -0.3457  0.1291
  118OSM   H14S12432   5.805   2.393   9.428  0.6101  0.5319 -4.4564
  118OSM   H14T12433   5.684   2.282   9.378 -0.0905  1.5559  0.7046
  118OSM   C15S12434   5.889   2.253   9.290  0.6171 -0.5695  0.0979
  118OSM   H15S12435   5.863   2.146   9.276 -0.7114 -0.9045  3.8487
  118OSM   H15T12436   5.997   2.264   9.312  0.3803  0.1255  0.9995
  118OSM   C16S12437   5.855   2.318   9.153 -0.3017 -0.5538 -0.2009
  118OSM   H16S12438   5.873   2.428   9.151  0.3785 -0.6522  0.1747
  118OSM   H16T12439   5.753   2.289   9.121  0.7324 -2.5373 -1.9673
  118OSM   C17S12440   5.944   2.260   9.050 -0.4489 -0.0717  0.8980
  118OSM   H17S12441   5.960   2.152   9.068  2.4858  0.5593  2.7001
  118OSM   H17T12442   6.043   2.309   9.061  0.3742 -1.7336  1.2666
  118OSM   C18S12443   5.888   2.289   8.908  0.4857 -0.0305  0.1623
  118OSM   H18S12444   5.807   2.214   8.898 -2.4189  2.8887 -0.0576
  118OSM   H18T12445   5.965   2.277   8.829  1.0900  1.9454  0.3947
  118OSM   H18U12446   5.837   2.388   8.905 -0.5793 -0.3298  3.7082
  118OSM    C1F12447   5.303   1.955  10.578 -0.1128 -0.2651 -0.0036
  118OSM     OF12448   5.219   1.992  10.655 -0.5659  0.0465  0.4183
  118OSM    C2F12449   5.283   1.828  10.492  0.1491  0.2334 -1.3543
  118OSM    H2F12450   5.317   1.744  10.556 -1.8524  1.2289  1.2257
  118OSM    H2G12451   5.345   1.846  10.401  1.0231  0.5448 -0.7047
  118OSM    C3F12452   5.132   1.808  10.464 -0.0762  0.8436 -0.1732
  118OSM    H3F12453   5.092   1.904  10.424 -2.0468  0.5184  0.8354
  118OSM    H3G12454   5.076   1.792  10.559  0.2464 -0.2882 -0.1628
  118OSM    C4F12455   5.103   1.679  10.376  0.3029  0.0102 -0.3955
  118OSM    H4F12456   4.999   1.678  10.337  0.0922 -1.0511  0.1503
  118OSM    H4G12457   5.129   1.588  10.435  0.3597  1.8418  2.6512
  118OSM    C5F12458   5.193   1.666  10.254 -0.5084 -0.4048 -0.1403
  118OSM    H5F12459   5.293   1.636  10.291 -0.4103  0.8574  0.6873
  118OSM    H5G12460   5.197   1.762  10.197 -0.2958 -2.1539 -3.3190
  118OSM    C6F12461   5.160   1.556  10.157 -0.7667  0.5771  0.0138
  118OSM    H6F12462   5.253   1.542  10.098 -0.5095 -0.1102  0.5654
  118OSM    H6G12463   5.079   1.595  10.092 -0.9324  0.4708  0.1532
  118OSM    C7F12464   5.117   1.425  10.212  0.4115  0.1901  1.3837
  118OSM    H7F12465   5.030   1.440  10.280 -1.1157 -0.6453 -0.3369
  118OSM    H7G12466   5.202   1.386  10.273 -0.2594 -1.6281  1.2018
  118OSM    C8F12467   5.090   1.309  10.109 -0.0654 -0.2513 -0.4602
  118OSM    H8F12468   5.082   1.220  10.175 -1.2894  0.7934  0.8609
  118OSM    H8G12469   5.168   1.296  10.031  0.3776 -1.6977  0.1820
  118OSM    C9F12470   4.957   1.343  10.044 -1.0143 -0.2978  0.4326
  118OSM    H9F12471   4.916   1.442  10.068 -1.8990 -0.3439 -0.8391
  118OSM   C10F12472   4.888   1.254   9.970  0.5145 -0.0296  0.2032
  118OSM   H10F12473   4.796   1.292   9.923 -0.5605 -0.2235  2.0675
  118OSM   C11F12474   4.936   1.116   9.935 -0.6024 -0.1165  0.0839
  118OSM   H11F12475   4.867   1.050   9.991 -2.7954  2.2589  0.3607
  118OSM   H11G12476   5.035   1.097   9.984 -0.6722 -0.7899 -0.0347
  118OSM   C12F12477   4.964   1.080   9.784  0.3698  0.2161 -0.2727
  118OSM   H12F12478   4.883   1.127   9.725  0.7151  1.4714  0.2117
  118OSM   H12G12479   4.971   0.969   9.772  1.9183  0.4430 -1.9669
  118OSM   C13F12480   5.096   1.139   9.741 -0.8715  0.3159  0.1749
  118OSM   H13F12481   5.168   1.109   9.819 -1.2520  3.3581  1.8597
  118OSM   H13G12482   5.089   1.250   9.743  0.7587  0.4624  3.3143
  118OSM   C14F12483   5.137   1.090   9.595  0.8210  0.4886 -0.0026
  118OSM   H14F12484   5.148   0.980   9.583  0.4250  0.6589 -2.3386
  118OSM   H14G12485   5.240   1.127   9.578  1.2748 -1.2384 -1.3300
  118OSM   C15F12486   5.039   1.144   9.484 -0.5635 -0.2467 -0.6130
  118OSM   H15F12487   5.083   1.245   9.472 -1.7686  0.3001 -0.5451
  118OSM   H15G12488   4.935   1.155   9.522  0.0748 -2.3810  2.0379
  118OSM   C16F12489   5.045   1.072   9.354 -0.0841  0.4149  0.4534
  118OSM   H16F12490   4.957   1.103   9.295 -0.5505  1.2547  1.5555
  118OSM   H16G12491   5.044   0.964   9.378 -3.3074  0.3302  0.2505
  118OSM   C17F12492   5.165   1.092   9.260 -0.0868  0.4450 -0.2683
  118OSM   H17F12493   5.260   1.084   9.317 -0.8053  0.6057  0.9939
  118OSM   H17G12494   5.173   1.196   9.222  1.2534  0.1607 -0.8216
  118OSM   C18F12495   5.153   0.987   9.155  0.8585 -0.2893 -0.2326
  118OSM   H18F12496   5.053   0.991   9.109 -1.0734 -2.5956  3.3021
  118OSM   H18G12497   5.175   0.888   9.199  2.7255  0.4707  0.6611
  118OSM   H18H12498   5.223   1.004   9.070 -0.8846  0.8178 -1.4979
  119OSM      N12499   3.268   1.178  10.934 -0.5667  0.2871  0.9806
  119OSM    C1512500   3.183   1.302  10.922 -0.4375  0.8341  0.0318
  119OSM   H15A12501   3.086   1.289  10.970 -1.4110  3.4405 -1.0522
  119OSM   H15B12502   3.170   1.326  10.817 -0.5155  0.9957  0.0786
  119OSM   H15C12503   3.239   1.377  10.975  0.6447  0.8330 -1.0740
  119OSM    C1412504   3.321   1.168  11.075  0.5855 -0.4988  0.5243
  119OSM   H14A12505   3.245   1.181  11.150  0.2846 -2.4595  0.6107
  119OSM   H14B12506   3.389   1.250  11.092 -0.9152  1.0699 -0.7710
  119OSM   H14C12507   3.387   1.082  11.080  1.3235 -0.2475 -2.7788
  119OSM    C1312508   3.182   1.052  10.920 -0.5066 -0.1573 -0.5242
  119OSM   H13A12509   3.103   1.043  10.993 -1.5487 -1.5641 -1.7727
  119OSM   H13B12510   3.256   0.976  10.937  0.8170  0.6765 -2.2779
  119OSM   H13C12511   3.136   1.049  10.822  0.9480  1.1000 -1.2809
  119OSM    C1212512   3.379   1.181  10.831 -1.1860  0.1917  0.6423
  119OSM   H12A12513   3.425   1.279  10.840 -0.3355 -0.1213 -0.1189
  119OSM   H12B12514   3.338   1.173  10.731 -0.2568 -1.3388  0.3467
  119OSM    C1112515   3.478   1.059  10.827  0.3251  0.2821  0.0395
  119OSM   H11A12516   3.547   1.067  10.740 -0.2594 -0.1997 -0.4720
  119OSM   H11B12517   3.426   0.963  10.806 -0.2203  0.3439  1.0563
  119OSM      P12518   3.662   1.155  10.995  0.2752  0.0369  0.1591
  119OSM    O1312519   3.605   1.217  11.113  0.3258  0.1571 -0.4700
  119OSM    O1412520   3.792   1.083  11.013  0.1695  0.0280 -0.3718
  119OSM    O1112521   3.669   1.259  10.871  0.2187 -0.6533 -0.1769
  119OSM    O1212522   3.551   1.050  10.948 -0.6609  0.4008  0.0414
  119OSM    C1S12523   3.785   1.335  10.855 -0.5847 -0.0324  0.2947
  119OSM    H1S12524   3.880   1.279  10.864 -0.3354  0.6510  2.3324
  119OSM    H1T12525   3.793   1.416  10.930 -1.2135  3.2546 -2.8849
  119OSM     NF12526   3.900   1.522  10.707  0.1574 -0.0782  0.2463
  119OSM    HNF12527   3.875   1.614  10.680  1.4335 -0.4180 -2.4529
  119OSM    C2S12528   3.810   1.402  10.703  0.2147 -0.0551  0.5123
  119OSM    H2S12529   3.859   1.314  10.656 -1.7347 -0.9950  0.1400
  119OSM    C3S12530   3.684   1.418  10.621 -0.0857  0.5854  0.6664
  119OSM    H3S12531   3.629   1.502  10.669 -0.5172 -0.0280  1.2646
  119OSM     O312532   3.585   1.314  10.630 -0.3501 -0.5000  0.1818
  119OSM    HO312533   3.609   1.266  10.709 -0.8940  1.6940  1.7891
  119OSM    C4S12534   3.720   1.445  10.479  0.0325 -0.3033  0.0526
  119OSM    H4S12535   3.756   1.547  10.460  0.4923 -0.1845  1.4078
  119OSM    C5S12536   3.738   1.352  10.383  0.0355  0.2106 -0.5778
  119OSM    H5S12537   3.707   1.250  10.409 -3.1628  1.5060  1.2926
  119OSM    C6S12538   3.797   1.381  10.252  0.3092 -0.0653  0.1816
  119OSM    H6S12539   3.724   1.424  10.179  0.6167 -0.2984 -0.2675
  119OSM    H6T12540   3.827   1.283  10.210  1.2252 -0.2989  1.3456
  119OSM    C7S12541   3.923   1.472  10.248  0.7587 -0.0596 -0.7461
  119OSM    H7S12542   4.003   1.446  10.320 -0.0902  1.1817  0.6956
  119OSM    H7T12543   3.899   1.575  10.282  2.0670 -0.1603  0.5788
  119OSM    C8S12544   3.991   1.472  10.108  0.0797  0.1048 -0.2576
  119OSM    H8S12545   4.068   1.552  10.108  1.1969 -0.9055  1.5554
  119OSM    H8T12546   3.909   1.489  10.035 -2.9051 -3.9006  1.7914
  119OSM    C9S12547   4.068   1.341  10.077  0.7066  0.2874 -0.0957
  119OSM    H9S12548   3.991   1.262  10.059 -1.6242  2.7353 -1.6152
  119OSM    H9T12549   4.129   1.308  10.164  0.1974  0.3156  0.2751
  119OSM   C10S12550   4.163   1.347   9.950 -0.1701  0.0559 -0.2746
  119OSM   H10S12551   4.220   1.252   9.941  1.8860  1.1000  0.9881
  119OSM   H10T12552   4.231   1.431   9.973 -0.9669  0.3331  1.2048
  119OSM   C11S12553   4.084   1.375   9.823 -0.4026  0.1587 -0.2000
  119OSM   H11S12554   4.032   1.473   9.824 -0.2210  0.2648  1.1278
  119OSM   H11T12555   4.018   1.287   9.806 -0.4134  0.1140  0.0607
  119OSM   C12S12556   4.180   1.381   9.704 -0.1534 -0.4393 -0.1857
  119OSM   H12S12557   4.232   1.283   9.696 -0.2504 -0.5328  0.2877
  119OSM   H12T12558   4.260   1.455   9.723 -0.2145  0.1613 -2.0983
  119OSM   C13S12559   4.101   1.413   9.574 -0.3632 -0.1342 -0.2488
  119OSM   H13S12560   4.061   1.517   9.579 -0.2517 -0.1368  1.3391
  119OSM   H13T12561   4.009   1.351   9.570 -0.5081  0.1217 -0.9521
  119OSM   C14S12562   4.177   1.388   9.446 -0.4019 -0.0078  0.3675
  119OSM   H14S12563   4.283   1.405   9.474 -0.9078 -1.8730  4.0837
  119OSM   H14T12564   4.131   1.455   9.370 -0.3023 -1.0514 -0.6538
  119OSM   C15S12565   4.155   1.238   9.390  0.6010  0.2934  0.0526
  119OSM   H15S12566   4.048   1.211   9.375  0.7877 -0.8287  0.6331
  119OSM   H15T12567   4.183   1.171   9.474 -0.6345 -0.2058  0.0886
  119OSM   C16S12568   4.243   1.200   9.274  0.7646 -0.1503  0.3901
  119OSM   H16S12569   4.345   1.235   9.301  0.1044  3.3072 -1.0165
  119OSM   H16T12570   4.207   1.240   9.176  1.8701 -0.5552 -0.2034
  119OSM   C17S12571   4.253   1.040   9.249 -1.0434  0.2504 -0.4556
  119OSM   H17S12572   4.159   0.982   9.234 -1.0432  0.0509  0.2956
  119OSM   H17T12573   4.303   1.001   9.340  0.7030  2.6202 -0.3271
  119OSM   C18S12574   4.359   1.002   9.146  0.2065  0.4279 -1.7908
  119OSM   H18S12575   4.377   0.892   9.148 -1.0011  0.0385  3.8976
  119OSM   H18T12576   4.452   1.059   9.167 -0.9199  0.7947  3.5439
  119OSM   H18U12577   4.329   1.018   9.040  0.3164  0.5340 -1.8077
  119OSM    C1F12578   4.029   1.491  10.738  0.6292 -0.2139 -0.1210
  119OSM     OF12579   4.070   1.377  10.759  0.5225 -0.1000  0.3457
  119OSM    C2F12580   4.109   1.617  10.744 -0.3774 -0.0738  0.2688
  119OSM    H2F12581   4.166   1.620  10.839 -0.3723  1.4849  0.2483
  119OSM    H2G12582   4.057   1.712  10.722  0.6691  0.4980  0.1844
  119OSM    C3F12583   4.218   1.602  10.627 -0.3303 -0.4795  0.2043
  119OSM    H3F12584   4.248   1.495  10.624 -0.1012 -0.4021 -2.3989
  119OSM    H3G12585   4.293   1.677  10.658 -1.3264  0.7675 -0.3209
  119OSM    C4F12586   4.173   1.656  10.494 -0.1715  0.7286  0.3744
  119OSM    H4F12587   4.132   1.757  10.514 -3.5530 -0.2639 -0.8429
  119OSM    H4G12588   4.083   1.605  10.455  0.0461 -0.3567  1.2454
  119OSM    C5F12589   4.288   1.676  10.389  0.0175  0.5856  0.0446
  119OSM    H5F12590   4.369   1.733  10.440  0.7286  0.9622 -1.4160
  119OSM    H5G12591   4.251   1.748  10.312  1.8822  3.2020  1.4405
  119OSM    C6F12592   4.342   1.543  10.344  0.0582 -0.6870 -0.4962
  119OSM    H6F12593   4.253   1.487  10.308 -1.6726  0.9848  0.9663
  119OSM    H6G12594   4.384   1.483  10.427  1.6830 -0.6161 -1.2355
  119OSM    C7F12595   4.447   1.564  10.241 -0.0226  0.3108  0.1979
  119OSM    H7F12596   4.530   1.625  10.284  0.8746 -1.8092  1.6542
  119OSM    H7G12597   4.423   1.618  10.147  2.5939  1.2316 -0.0159
  119OSM    C8F12598   4.507   1.429  10.189 -0.0943 -0.2643 -0.1227
  119OSM    H8F12599   4.570   1.454  10.101  0.9778 -0.6885  0.5045
  119OSM    H8G12600   4.424   1.369  10.145 -0.9709  0.5582  0.3914
  119OSM    C9F12601   4.571   1.352  10.308 -0.3909 -0.2874 -0.0700
  119OSM    H9F12602   4.657   1.415  10.337 -1.0934  2.0885 -2.6129
  119OSM   C10F12603   4.545   1.230  10.359 -0.3851  0.3597  0.7430
  119OSM   H10F12604   4.595   1.200  10.452  0.8718 -0.3072 -0.1143
  119OSM   C11F12605   4.444   1.131  10.300  0.4647 -0.5579 -0.4694
  119OSM   H11F12606   4.352   1.182  10.264  0.4058  0.1394  0.6088
  119OSM   H11G12607   4.415   1.066  10.385 -3.2363  0.1647 -0.9697
  119OSM   C12F12608   4.517   1.039  10.199  0.5034 -0.4017 -0.8407
  119OSM   H12F12609   4.448   0.953  10.186  0.8404 -0.8250  0.0981
  119OSM   H12G12610   4.615   1.000  10.235 -0.6516 -1.1043  1.7949
  119OSM   C13F12611   4.536   1.110  10.069 -0.1324  0.1761  0.7762
  119OSM   H13F12612   4.618   1.185  10.071 -0.0666  0.2644 -1.8228
  119OSM   H13G12613   4.442   1.164  10.049 -0.1704 -0.4413 -0.8102
  119OSM   C14F12614   4.564   1.012   9.950 -0.9949  0.8725 -1.1473
  119OSM   H14F12615   4.511   0.915   9.963  1.2944 -0.3192 -0.0517
  119OSM   H14G12616   4.673   0.994   9.948 -0.6896  2.3124  0.3303
  119OSM   C15F12617   4.510   1.066   9.819  0.1788  0.2862 -0.5418
  119OSM   H15F12618   4.509   1.176   9.810  2.2240  0.3176 -0.7503
  119OSM   H15G12619   4.401   1.046   9.828  0.4597 -0.3323  2.8255
  119OSM   C16F12620   4.576   0.996   9.700 -0.6854 -0.6241  0.0428
  119OSM   H16F12621   4.581   0.886   9.718 -2.1497 -0.8808 -0.9883
  119OSM   H16G12622   4.682   1.031   9.694 -1.1029  0.6365 -0.3166
  119OSM   C17F12623   4.519   1.011   9.558  0.6791  0.4458  0.5829
  119OSM   H17F12624   4.500   1.118   9.537 -0.7946 -0.0815 -0.9548
  119OSM   H17G12625   4.425   0.952   9.561  0.9557 -0.0351  0.0299
  119OSM   C18F12626   4.621   0.973   9.453 -0.5447  0.1185 -0.1388
  119OSM   H18F12627   4.718   1.023   9.473 -0.6810 -0.0070  0.8971
  119OSM   H18G12628   4.575   1.001   9.355  1.1263  0.2377 -0.9278
  119OSM   H18H12629   4.647   0.866   9.461  0.7607  0.3878 -0.4888
  120OSM      N12630   5.065   4.847  10.659  0.4453 -0.8313 -0.8110
  120OSM    C1512631   4.950   4.923  10.608  0.3910 -0.6455  0.1641
  120OSM   H15A12632   4.929   4.899  10.505 -0.6817 -1.1220  0.4767
  120OSM   H15B12633   4.959   5.031  10.614  0.8649 -0.6957  0.4169
  120OSM   H15C12634   4.856   4.896  10.654 -0.0180 -0.3183 -0.4650
  120OSM    C1412635   5.177   4.876  10.563 -0.5049  0.3531  0.6802
  120OSM   H14A12636   5.205   4.980  10.567 -1.6444  0.6232  2.6994
  120OSM   H14B12637   5.158   4.833  10.466 -1.7033 -1.3417  1.6199
  120OSM   H14C12638   5.265   4.824  10.600 -0.9392 -1.2806 -0.4708
  120OSM    C1312639   5.097   4.892  10.803 -0.7722  0.1602 -0.0436
  120OSM   H13A12640   5.144   4.989  10.813 -0.1990 -0.2296  1.3336
  120OSM   H13B12641   5.168   4.828  10.854  0.5231 -0.7480 -2.7963
  120OSM   H13C12642   5.011   4.896  10.868 -0.1200 -1.3474  0.9602
  120OSM    C1212643   5.030   4.699  10.663  0.1227 -0.9139 -0.0909
  120OSM   H12A12644   4.999   4.666  10.565  0.1320 -0.4359 -0.2560
  120OSM   H12B12645   4.946   4.685  10.730  2.0388  0.7932  2.8753
  120OSM    C1112646   5.140   4.597  10.707  1.3914 -0.8470  0.8269
  120OSM   H11A12647   5.101   4.495  10.684  0.5169 -0.4622  0.5443
  120OSM   H11B12648   5.168   4.603  10.814  2.1931  1.3880  0.5384
  120OSM      P12649   5.345   4.489  10.582  0.1087 -0.2847  0.3190
  120OSM    O1312650   5.471   4.529  10.518  0.2615  0.3627 -0.2479
  120OSM    O1412651   5.342   4.390  10.693 -0.7129 -0.3380 -0.0656
  120OSM    O1112652   5.255   4.421  10.464  0.4132 -0.2250 -0.6074
  120OSM    O1212653   5.257   4.617  10.628 -0.3023 -0.0145  0.0795
  120OSM    C1S12654   5.169   4.496  10.386  0.8305 -1.0254  0.3771
  120OSM    H1S12655   5.136   4.592  10.432 -0.0848 -0.8607 -0.5848
  120OSM    H1T12656   5.081   4.431  10.366  0.7618 -0.3818 -1.5863
  120OSM     NF12657   5.135   4.608  10.170 -0.7865  0.5414  0.1063
  120OSM    HNF12658   5.070   4.562  10.110  1.1685 -1.7552 -0.4205
  120OSM    C2S12659   5.226   4.519  10.242 -0.2314 -0.7841 -0.5182
  120OSM    H2S12660   5.321   4.577  10.252 -0.0826 -1.4015  2.4333
  120OSM    C3S12661   5.253   4.382  10.168  0.7683 -0.0799  0.0846
  120OSM    H3S12662   5.162   4.319  10.166  0.9436 -0.5366  2.5091
  120OSM     O312663   5.353   4.307  10.238 -0.2228  0.0102  0.3426
  120OSM    HO312664   5.361   4.357  10.320 -2.6464  2.9978 -1.0160
  120OSM    C4S12665   5.302   4.407  10.030  0.2522  0.3824  0.7807
  120OSM    H4S12666   5.384   4.478  10.014  2.1232 -1.4720  1.6135
  120OSM    C5S12667   5.230   4.362   9.920 -0.9552  0.0921  0.0538
  120OSM    H5S12668   5.141   4.298   9.930 -0.2930 -0.8822 -0.1094
  120OSM    C6S12669   5.248   4.374   9.770 -0.1779 -0.6048 -0.2047
  120OSM    H6S12670   5.159   4.425   9.727 -0.3899 -1.7421 -1.1600
  120OSM    H6T12671   5.246   4.271   9.729 -0.1071 -0.9455  0.6216
  120OSM    C7S12672   5.381   4.443   9.715 -0.5441  0.0063  0.1390
  120OSM    H7S12673   5.465   4.378   9.747 -1.2542 -1.5242 -0.9560
  120OSM    H7T12674   5.390   4.551   9.739 -1.0347  0.5037 -1.6857
  120OSM    C8S12675   5.373   4.452   9.559  0.4151  0.2722  0.7849
  120OSM    H8S12676   5.363   4.346   9.529  0.5878  0.8269 -1.3498
  120OSM    H8T12677   5.456   4.504   9.507 -0.8702  2.1655  0.5349
  120OSM    C9S12678   5.245   4.519   9.500 -0.0329 -0.2144 -0.1838
  120OSM    H9S12679   5.225   4.617   9.548  3.1719  0.0372  0.8777
  120OSM    H9T12680   5.159   4.449   9.510  0.8765 -1.2332  0.6799
  120OSM   C10S12681   5.266   4.551   9.346 -0.7466 -0.3942  0.1183
  120OSM   H10S12682   5.163   4.560   9.305 -0.4510  2.5714 -0.1966
  120OSM   H10T12683   5.319   4.458   9.315  0.3834 -0.1999  1.3473
  120OSM   C11S12684   5.336   4.685   9.333  0.1504 -0.7308  0.4113
  120OSM   H11S12685   5.440   4.676   9.371  0.6659  0.1540 -0.7345
  120OSM   H11T12686   5.281   4.767   9.385  0.6405 -0.7082  0.8994
  120OSM   C12S12687   5.350   4.724   9.177  0.1631 -0.5663 -0.6781
  120OSM   H12S12688   5.370   4.834   9.179 -0.4504 -0.4558  0.0065
  120OSM   H12T12689   5.248   4.719   9.133 -0.0685  1.4115 -0.4888
  120OSM   C13S12690   5.449   4.640   9.089  0.0813  0.1279  0.0837
  120OSM   H13S12691   5.428   4.531   9.087 -0.4569  0.2433 -0.4493
  120OSM   H13T12692   5.548   4.657   9.137  0.0035 -0.8802  0.6373
  120OSM   C14S12693   5.440   4.694   8.942  0.0686 -0.6245 -0.3022
  120OSM   H14S12694   5.520   4.656   8.875  1.8560  0.3860  1.1679
  120OSM   H14T12695   5.443   4.805   8.950 -2.2959 -0.3028 -2.4789
  120OSM   C15S12696   5.298   4.663   8.872 -0.0832  0.2609 -0.0926
  120OSM   H15S12697   5.213   4.695   8.936 -0.4468 -3.6482  1.7074
  120OSM   H15T12698   5.298   4.552   8.866 -1.3632  0.2759 -0.8506
  120OSM   C16S12699   5.297   4.727   8.727 -0.3556  0.3021 -0.0642
  120OSM   H16S12700   5.390   4.690   8.680 -0.6452 -0.9622  0.3134
  120OSM   H16T12701   5.295   4.838   8.733 -2.3706  0.3597 -0.9599
  120OSM   C17S12702   5.174   4.688   8.650  0.3533  0.6452  0.2979
  120OSM   H17S12703   5.097   4.712   8.727  0.5439  1.4914  0.2356
  120OSM   H17T12704   5.175   4.579   8.627 -0.3163  0.3269  1.6512
  120OSM   C18S12705   5.165   4.782   8.536  0.3740  0.5886  0.1100
  120OSM   H18S12706   5.170   4.887   8.574 -1.5799  1.5274 -1.9784
  120OSM   H18T12707   5.061   4.782   8.497  0.1766  0.7113  0.6176
  120OSM   H18U12708   5.243   4.768   8.458 -0.3443 -1.7960 -0.2368
  120OSM    C1F12709   5.115   4.736  10.190  1.0722 -0.2655  0.6129
  120OSM     OF12710   5.190   4.795  10.271 -0.1542  0.1970  0.2625
  120OSM    C2F12711   5.000   4.790  10.119 -0.0619 -0.8515 -1.0401
  120OSM    H2F12712   4.954   4.868  10.184  0.9038 -0.3168 -0.9797
  120OSM    H2G12713   4.923   4.712  10.099 -0.8954 -0.5506  0.8179
  120OSM    C3F12714   5.020   4.846   9.973 -0.0351  0.3953 -0.4157
  120OSM    H3F12715   5.115   4.904   9.974 -0.1784  0.6741  1.5505
  120OSM    H3G12716   4.935   4.916   9.957  0.7068  0.9980 -1.9174
  120OSM    C4F12717   5.021   4.738   9.869 -0.3115 -0.2182  0.1258
  120OSM    H4F12718   4.943   4.662   9.890  1.8832 -2.1338  1.9425
  120OSM    H4G12719   5.114   4.678   9.861 -0.9294 -0.9160 -5.2197
  120OSM    C5F12720   5.002   4.782   9.726  0.6100 -0.2957 -0.5673
  120OSM    H5F12721   5.101   4.805   9.681  0.4929 -0.9770 -1.1983
  120OSM    H5G12722   4.956   4.882   9.740 -1.5465 -1.3070 -0.0323
  120OSM    C6F12723   4.905   4.694   9.639 -0.3761  1.1118 -0.4946
  120OSM    H6F12724   4.800   4.685   9.675  0.1495 -1.5179  0.5784
  120OSM    H6G12725   4.946   4.590   9.639 -0.8554  0.9156 -1.1853
  120OSM    C7F12726   4.900   4.740   9.488 -0.6471  0.1282 -0.2661
  120OSM    H7F12727   5.003   4.746   9.445 -0.6507 -0.5160 -0.3850
  120OSM    H7G12728   4.854   4.840   9.481 -0.6104  0.1229 -0.5870
  120OSM    C8F12729   4.825   4.634   9.403  0.1021  0.0238  0.3125
  120OSM    H8F12730   4.736   4.615   9.466  1.5038  2.3012  3.2614
  120OSM    H8G12731   4.878   4.537   9.407 -1.7296 -1.1085 -1.2224
  120OSM    C9F12732   4.777   4.670   9.262 -0.1003 -0.1305  0.6780
  120OSM    H9F12733   4.724   4.766   9.269  0.7629  0.4425 -0.3566
  120OSM   C10F12734   4.800   4.614   9.142 -0.3371 -0.0696  0.2720
  120OSM   H10F12735   4.741   4.649   9.056  1.3666 -0.0862 -0.9576
  120OSM   C11F12736   4.882   4.485   9.121  0.7336 -0.2637 -0.7908
  120OSM   H11F12737   4.888   4.418   9.209 -0.0816  1.3046  0.5134
  120OSM   H11G12738   4.986   4.513   9.095  0.3502  1.4561 -0.5931
  120OSM   C12F12739   4.837   4.408   8.993  0.8743 -1.1268 -0.6885
  120OSM   H12F12740   4.734   4.380   9.024  0.2301 -0.2120 -1.9349
  120OSM   H12G12741   4.889   4.310   9.002 -1.0077 -1.9979  1.9158
  120OSM   C13F12742   4.844   4.478   8.866  0.7020 -0.0682  0.7106
  120OSM   H13F12743   4.948   4.482   8.830  0.5393 -0.0364  0.2464
  120OSM   H13G12744   4.812   4.584   8.863  1.5842  0.1896 -2.1470
  120OSM   C14F12745   4.754   4.405   8.761  0.3993 -0.4761  0.3456
  120OSM   H14F12746   4.651   4.416   8.799  0.4065 -0.0438  0.2407
  120OSM   H14G12747   4.781   4.297   8.749  2.5014  0.1977 -1.9103
  120OSM   C15F12748   4.769   4.467   8.617  0.1640 -0.2128 -0.9281
  120OSM   H15F12749   4.872   4.461   8.577 -0.0812 -2.0875 -1.3596
  120OSM   H15G12750   4.742   4.575   8.625  0.5556 -0.2004  0.5426
  120OSM   C16F12751   4.668   4.416   8.515  0.8795  0.7439 -0.0958
  120OSM   H16F12752   4.562   4.441   8.538 -0.1815 -1.9122 -1.6988
  120OSM   H16G12753   4.673   4.306   8.524  1.6445  0.9212  2.3202
  120OSM   C17F12754   4.698   4.457   8.372  0.3136 -0.4465  0.0632
  120OSM   H17F12755   4.794   4.415   8.334  0.0011  1.3709 -3.1004
  120OSM   H17G12756   4.716   4.565   8.355  0.0063 -0.2713  0.7995
  120OSM   C18F12757   4.589   4.419   8.266  0.2228 -0.5258  0.0039
  120OSM   H18F12758   4.503   4.489   8.276  0.9558  0.1838  1.7893
  120OSM   H18G12759   4.557   4.314   8.283  0.8375 -1.1311 -2.1973
  120OSM   H18H12760   4.633   4.428   8.164 -1.2194  1.4339 -0.5061
  121OSM      N12761   2.795   6.495  11.295  0.3742 -0.7047  0.4723
  121OSM    C1512762   2.872   6.378  11.276 -0.3914 -0.2309 -0.0158
  121OSM   H15A12763   2.874   6.299  11.350 -1.9621  1.4529  1.9717
  121OSM   H15B12764   2.967   6.411  11.236  0.1632 -0.7456  0.8572
  121OSM   H15C12765   2.835   6.331  11.186  1.1592 -0.0882 -0.7625
  121OSM    C1412766   2.657   6.443  11.332 -0.3672  0.0613 -0.3485
  121OSM   H14A12767   2.575   6.509  11.306 -1.0384 -1.2631 -1.7622
  121OSM   H14B12768   2.656   6.432  11.439  0.1270  3.0934  0.0690
  121OSM   H14C12769   2.639   6.350  11.281  0.4586  0.4950 -1.4803
  121OSM    C1312770   2.852   6.570  11.416  0.1177 -0.8671 -0.0830
  121OSM   H13A12771   2.873   6.504  11.498  0.9076  2.5155  2.7049
  121OSM   H13B12772   2.795   6.651  11.460  2.1976 -0.2119  1.5855
  121OSM   H13C12773   2.936   6.627  11.379 -0.4811  1.1277  1.4040
  121OSM    C1212774   2.767   6.583  11.176  0.0888 -0.0302  0.4655
  121OSM   H12A12775   2.693   6.659  11.198 -1.0193 -1.3971  1.6424
  121OSM   H12B12776   2.721   6.522  11.100  2.5694  0.0347 -1.2284
  121OSM    C1112777   2.893   6.645  11.103 -0.6112 -0.1124 -0.5869
  121OSM   H11A12778   2.842   6.705  11.024 -1.8337  0.9208  0.9097
  121OSM   H11B12779   2.952   6.565  11.054  0.1920  0.2176 -0.1773
  121OSM      P12780   3.127   6.759  11.158  0.4146  0.0279 -0.2689
  121OSM    O1312781   3.169   6.871  11.242  0.2691 -0.8169  0.0595
  121OSM    O1412782   3.203   6.635  11.176 -1.0905  0.8124 -0.1219
  121OSM    O1112783   3.129   6.791  11.008 -0.0453  0.5953 -0.2103
  121OSM    O1212784   2.973   6.736  11.178  0.4612 -0.6669 -0.0809
  121OSM    C1S12785   3.244   6.817  10.930 -0.2151 -0.4111 -0.5704
  121OSM    H1S12786   3.332   6.758  10.964 -0.1816 -0.0470 -0.0193
  121OSM    H1T12787   3.266   6.926  10.929 -1.5980 -0.1033  0.3829
  121OSM     NF12788   3.330   6.834  10.714 -0.6979 -0.2280  0.0847
  121OSM    HNF12789   3.337   6.930  10.688  0.0370  0.6367  3.0114
  121OSM    C2S12790   3.215   6.783  10.781 -0.4728 -0.0063  0.2095
  121OSM    H2S12791   3.212   6.672  10.768 -0.3778  0.2778 -2.8117
  121OSM    C3S12792   3.076   6.835  10.733  0.3343 -0.0953  0.2462
  121OSM    H3S12793   3.076   6.944  10.753 -0.8234 -0.0342 -0.0364
  121OSM     O312794   2.970   6.768  10.800  0.0460 -0.9041 -0.1820
  121OSM    HO312795   3.010   6.755  10.886  1.2547 -2.5827 -0.9276
  121OSM    C4S12796   3.046   6.818  10.579  0.0230  0.2835 -0.0021
  121OSM    H4S12797   3.088   6.900  10.519 -0.8416  0.9663  0.2874
  121OSM    C5S12798   2.972   6.727  10.517 -0.8313  0.0142  0.3418
  121OSM    H5S12799   2.926   6.653  10.584  0.8930  0.3716  2.0090
  121OSM    C6S12800   2.945   6.713  10.370 -0.1428  0.0592 -0.7227
  121OSM    H6S12801   2.837   6.736  10.356 -1.0279 -2.6723  0.8405
  121OSM    H6T12802   2.965   6.614  10.324 -0.5494 -0.7908  0.8559
  121OSM    C7S12803   3.033   6.801  10.285 -0.2879 -0.0029 -0.0909
  121OSM    H7S12804   3.139   6.775  10.306 -0.3887  1.0424  2.0678
  121OSM    H7T12805   3.026   6.909  10.309  1.1750  0.5669 -1.9517
  121OSM    C8S12806   2.990   6.786  10.141  0.1939 -0.2031 -0.4328
  121OSM    H8S12807   2.882   6.812  10.137  0.0982 -0.0150  1.8088
  121OSM    H8T12808   3.005   6.679  10.116  0.4621 -0.1686 -0.4256
  121OSM    C9S12809   3.074   6.870  10.044 -0.0523  0.3012 -0.6139
  121OSM    H9S12810   3.183   6.850  10.035 -0.3135 -0.9888 -1.1503
  121OSM    H9T12811   3.074   6.976  10.076 -0.5188  0.7898 -2.1272
  121OSM   C10S12812   3.017   6.858   9.899  0.2316  0.2142 -0.0668
  121OSM   H10S12813   2.910   6.888   9.896  0.5949  1.7417  1.2540
  121OSM   H10T12814   3.011   6.749   9.879  1.6374 -0.2125  1.5554
  121OSM   C11S12815   3.090   6.926   9.783  0.3082  0.2374  0.0250
  121OSM   H11S12816   3.187   6.874   9.763 -0.5950 -1.3563 -0.3554
  121OSM   H11T12817   3.118   7.032   9.803  0.5581  0.3622 -0.9303
  121OSM   C12S12818   3.006   6.910   9.646  0.3262  0.6697 -0.5794
  121OSM   H12S12819   2.921   6.981   9.651  0.0259  0.2122  1.7391
  121OSM   H12T12820   2.965   6.808   9.632 -1.2460  1.1713  0.1685
  121OSM   C13S12821   3.090   6.954   9.524  0.2540 -0.5330  0.6305
  121OSM   H13S12822   3.183   6.893   9.517  0.2320 -0.3881 -1.6090
  121OSM   H13T12823   3.114   7.060   9.545  0.9293 -0.7375  0.9374
  121OSM   C14S12824   3.017   6.947   9.389  0.6162  0.2795  0.2969
  121OSM   H14S12825   2.920   7.001   9.391 -0.1043 -0.9735  1.8924
  121OSM   H14T12826   2.984   6.842   9.373  0.2490  0.4769 -0.2847
  121OSM   C15S12827   3.109   6.983   9.271  0.2611  0.8642 -0.5916
  121OSM   H15S12828   3.216   6.974   9.300 -0.1253 -0.6236  0.4834
  121OSM   H15T12829   3.095   7.090   9.244  0.5692  0.8710 -0.7322
  121OSM   C16S12830   3.083   6.895   9.147  0.2203 -0.4817 -0.5834
  121OSM   H16S12831   2.977   6.899   9.115  0.5487 -2.3591 -2.1104
  121OSM   H16T12832   3.111   6.788   9.161 -1.8220 -1.0182 -0.3966
  121OSM   C17S12833   3.163   6.950   9.022  0.7321  0.1166 -0.5314
  121OSM   H17S12834   3.144   6.867   8.951 -1.7233 -0.3032  0.5119
  121OSM   H17T12835   3.272   6.950   9.045  0.9020 -1.4245 -1.2316
  121OSM   C18S12836   3.111   7.082   8.971 -0.0148 -0.1537  0.0924
  121OSM   H18S12837   3.128   7.168   9.039  1.9014  1.2371 -1.9721
  121OSM   H18T12838   3.004   7.089   8.946  0.3696  1.3080 -1.2795
  121OSM   H18U12839   3.169   7.110   8.881  0.5604 -2.2442 -0.2385
  121OSM    C1F12840   3.441   6.761  10.705 -0.2780 -0.2641  0.0165
  121OSM     OF12841   3.451   6.651  10.757 -0.4737  0.4188 -0.4130
  121OSM    C2F12842   3.552   6.828  10.621  0.1585 -0.3438 -0.1740
  121OSM    H2F12843   3.584   6.917  10.678  1.0258 -0.0238 -1.1439
  121OSM    H2G12844   3.505   6.856  10.524  0.5216 -1.1199 -0.5829
  121OSM    C3F12845   3.671   6.726  10.606  0.3816 -0.6160  0.4850
  121OSM    H3F12846   3.630   6.634  10.559 -1.0120  1.6155 -3.1529
  121OSM    H3G12847   3.702   6.688  10.705 -0.4100  1.8255  1.7471
  121OSM    C4F12848   3.785   6.778  10.517  0.2463 -0.5271 -0.1365
  121OSM    H4F12849   3.864   6.700  10.520 -0.5764 -1.3626  0.6244
  121OSM    H4G12850   3.827   6.874  10.553 -0.5241  0.1462 -0.9856
  121OSM    C5F12851   3.743   6.800  10.370 -0.6045  0.0203 -0.0982
  121OSM    H5F12852   3.682   6.893  10.369 -0.5064  0.0935  0.7875
  121OSM    H5G12853   3.702   6.707  10.324  1.7910 -1.4368  0.5353
  121OSM    C6F12854   3.855   6.831  10.265 -0.3630 -0.1855 -0.0523
  121OSM    H6F12855   3.927   6.746  10.271  0.9185  0.7931 -0.9130
  121OSM    H6G12856   3.909   6.924  10.292  0.2048 -0.3127 -0.7074
  121OSM    C7F12857   3.809   6.860  10.119  0.0461 -0.7832 -0.1152
  121OSM    H7F12858   3.737   6.944  10.121 -0.4343 -1.1806 -0.5822
  121OSM    H7G12859   3.746   6.776  10.084 -3.1770  0.6850  1.6874
  121OSM    C8F12860   3.916   6.896  10.011 -0.0365 -0.0177  0.3274
  121OSM    H8F12861   3.986   6.971  10.053 -0.2399 -1.0525  2.6981
  121OSM    H8G12862   3.856   6.941   9.929 -1.0032 -0.9379  0.4951
  121OSM    C9F12863   4.010   6.791   9.978  0.6943 -0.5005  0.3913
  121OSM    H9F12864   4.055   6.743  10.066 -0.3508 -0.6393  0.8592
  121OSM   C10F12865   4.051   6.750   9.857  0.9283 -0.1248  0.0185
  121OSM   H10F12866   4.132   6.675   9.853  0.4225 -0.7429  0.8709
  121OSM   C11F12867   4.005   6.816   9.725 -0.3012 -0.7724 -0.1223
  121OSM   H11F12868   4.087   6.886   9.698 -1.6096  1.3883  1.2161
  121OSM   H11G12869   3.907   6.867   9.740 -1.2116 -1.8683 -1.8824
  121OSM   C12F12870   3.985   6.722   9.608 -0.1600 -0.7138  0.2182
  121OSM   H12F12871   3.933   6.773   9.525  1.5107  1.6329  0.5079
  121OSM   H12G12872   3.927   6.634   9.644 -0.7816 -0.7879 -0.9278
  121OSM   C13F12873   4.115   6.668   9.537  0.6196  0.2347  0.8939
  121OSM   H13F12874   4.178   6.643   9.625 -1.2500  0.6956  2.4193
  121OSM   H13G12875   4.168   6.752   9.486  4.0208 -1.0551  2.0205
  121OSM   C14F12876   4.074   6.562   9.428 -0.4454  0.5559 -0.1565
  121OSM   H14F12877   3.993   6.495   9.465 -1.7567  1.3817 -1.4109
  121OSM   H14G12878   4.169   6.507   9.419  0.7023  2.7074 -2.3689
  121OSM   C15F12879   4.059   6.612   9.289 -0.7076 -0.0807 -0.7539
  121OSM   H15F12880   4.155   6.652   9.250 -0.9015 -0.6073 -1.8188
  121OSM   H15G12881   3.990   6.698   9.306 -0.3401 -0.2517  1.9196
  121OSM   C16F12882   4.005   6.516   9.186  0.1033 -0.1126 -0.3056
  121OSM   H16F12883   3.897   6.499   9.206 -0.1875  1.2916 -0.5847
  121OSM   H16G12884   4.066   6.424   9.188 -0.7286 -0.6701  0.3335
  121OSM   C17F12885   4.007   6.589   9.050  0.0070  0.4823 -0.5030
  121OSM   H17F12886   4.117   6.598   9.035 -0.1330  0.0110 -1.9660
  121OSM   H17G12887   3.961   6.690   9.056 -0.1983  0.3436  0.4763
  121OSM   C18F12888   3.934   6.511   8.948  0.1427 -0.3271 -0.1284
  121OSM   H18F12889   3.829   6.546   8.944  0.9415  2.6442  1.7513
  121OSM   H18G12890   3.953   6.404   8.973  0.1208 -0.0306  1.1927
  121OSM   H18H12891   3.974   6.533   8.846  2.6185  1.3213  1.1027
  122OSM      N12892   0.208   5.168  10.959 -0.1924 -0.4863 -0.3214
  122OSM    C1512893   0.060   5.158  10.999 -0.0707 -0.3964  0.1820
  122OSM   H15A12894   0.052   5.146  11.106 -1.1176  0.0232  0.1549
  122OSM   H15B12895   0.019   5.069  10.953  0.7815  0.3838 -2.2880
  122OSM   H15C12896  -0.005   5.240  10.975 -0.5869 -0.3729  1.5964
  122OSM    C1412897   0.266   5.292  11.033 -0.0287 -0.3269 -0.3639
  122OSM   H14A12898   0.371   5.310  11.012  0.3170 -2.5313 -0.7964
  122OSM   H14B12899   0.242   5.290  11.138 -0.1824  2.0183 -0.3068
  122OSM   H14C12900   0.207   5.378  11.007 -1.3842 -0.7242  1.2158
  122OSM    C1312901   0.281   5.049  11.015 -0.3235  0.0624 -0.1124
  122OSM   H13A12902   0.381   5.046  10.973 -1.0053  0.8794 -1.9229
  122OSM   H13B12903   0.236   4.958  10.978  1.9908  1.0112 -6.5383
  122OSM   H13C12904   0.267   5.056  11.122 -1.8734 -0.6384 -0.2477
  122OSM    C1212905   0.232   5.172  10.808  0.0234 -0.1707 -0.6367
  122OSM   H12A12906   0.188   5.085  10.761  2.1221 -0.6114 -1.8718
  122OSM   H12B12907   0.336   5.168  10.782 -0.2092  1.4406 -2.0623
  122OSM    C1112908   0.176   5.291  10.720  0.5350 -0.2664 -0.2233
  122OSM   H11A12909   0.071   5.303  10.754  0.7831 -1.8017  1.2134
  122OSM   H11B12910   0.170   5.261  10.613  2.7541  1.4671 -0.9077
  122OSM      P12911   0.166   5.547  10.773  0.0220 -0.5251  0.5712
  122OSM    O1312912   0.131   5.545  10.914 -0.3409  0.4675 -0.3558
  122OSM    O1412913   0.241   5.663  10.716 -0.2889  0.5584  0.7398
  122OSM    O1112914   0.040   5.541  10.680 -0.3514 -0.2653  0.3894
  122OSM    O1212915   0.243   5.417  10.732 -0.0319 -0.1821  0.1378
  122OSM    C1S12916   0.045   5.560  10.541  0.3506  0.2791 -0.1993
  122OSM    H1S12917   0.138   5.516  10.497 -0.0936  1.1497 -2.1227
  122OSM    H1T12918   0.050   5.668  10.515  0.0530  0.5495  0.8244
  122OSM     NF12919  -0.071   5.545  10.321 -0.2246  0.1499 -0.2310
  122OSM    HNF12920  -0.138   5.607  10.281 -0.3799 -0.4588 -0.9329
  122OSM    C2S12921  -0.079   5.509  10.461  0.2696  0.1469  0.4785
  122OSM    H2S12922  -0.085   5.401  10.484 -0.6049 -0.1780 -1.1250
  122OSM    C3S12923  -0.213   5.567  10.529 -0.4834 -0.4518  0.0125
  122OSM    H3S12924  -0.229   5.672  10.495  0.3923  0.3525  1.9352
  122OSM     O312925  -0.214   5.567  10.672  0.4504  0.9994 -0.4418
  122OSM    HO312926  -0.121   5.553  10.690  0.2543  0.6472  0.3558
  122OSM    C4S12927  -0.332   5.493  10.475  0.6460 -0.5220  0.6088
  122OSM    H4S12928  -0.382   5.535  10.386  2.0838 -0.1588 -0.0529
  122OSM    C5S12929  -0.386   5.383  10.531  0.3325 -1.1610 -0.3294
  122OSM    H5S12930  -0.349   5.345  10.627 -2.3342  0.0570  1.2898
  122OSM    C6S12931  -0.511   5.333  10.478  0.3069 -0.1632  0.4676
  122OSM    H6S12932  -0.579   5.416  10.447 -4.7289 -4.8329 -2.8808
  122OSM    H6T12933  -0.577   5.279  10.549 -0.2013 -0.7634 -0.4354
  122OSM    C7S12934  -0.496   5.230  10.363 -0.1936 -0.6667  0.3960
  122OSM    H7S12935  -0.447   5.135  10.393 -4.3234 -3.8174 -1.7692
  122OSM    H7T12936  -0.439   5.276  10.279  1.5717 -0.3012  1.7192
  122OSM    C8S12937  -0.634   5.192  10.299 -0.1663 -0.0948 -0.0486
  122OSM    H8S12938  -0.694   5.285  10.293  1.2523  0.8705  0.4019
  122OSM    H8T12939  -0.705   5.134  10.363  0.6911 -1.7858 -0.5799
  122OSM    C9S12940  -0.613   5.105  10.178  0.3970  0.2320 -0.2365
  122OSM    H9S12941  -0.595   5.000  10.207  0.1105 -0.4496 -2.3154
  122OSM    H9T12942  -0.516   5.130  10.130  0.5641 -0.6568 -0.3780
  122OSM   C10S12943  -0.738   5.108  10.081 -0.3807 -0.0355 -0.1455
  122OSM   H10S12944  -0.785   5.207  10.097  0.3106 -0.0504  2.6016
  122OSM   H10T12945  -0.807   5.026  10.111  0.3208 -1.5415 -2.4254
  122OSM   C11S12946  -0.704   5.092   9.929  0.1036 -0.5081 -0.0508
  122OSM   H11S12947  -0.657   5.190   9.905  1.3136 -1.1915 -0.5501
  122OSM   H11T12948  -0.793   5.087   9.863  0.1810  1.0435 -0.3122
  122OSM   C12S12949  -0.601   4.984   9.898 -0.5167 -0.6295 -0.4766
  122OSM   H12S12950  -0.649   4.889   9.927  0.9319 -0.8430  1.4683
  122OSM   H12T12951  -0.508   4.994   9.959  0.4079  0.0997 -1.9213
  122OSM   C13S12952  -0.559   4.981   9.750 -0.1309  0.0371  0.3287
  122OSM   H13S12953  -0.480   4.903   9.744  2.0761  2.1470  0.2692
  122OSM   H13T12954  -0.509   5.078   9.726 -1.0412  0.8791  1.6488
  122OSM   C14S12955  -0.669   4.958   9.647  0.6648  0.0343 -0.8504
  122OSM   H14S12956  -0.724   5.048   9.612  0.9828 -0.0691 -1.6496
  122OSM   H14T12957  -0.742   4.876   9.663  1.0527 -0.5057 -1.7614
  122OSM   C15S12958  -0.597   4.919   9.512  0.1607  0.6713  0.0731
  122OSM   H15S12959  -0.537   4.828   9.530  1.3340  1.2906 -0.5597
  122OSM   H15T12960  -0.520   4.996   9.488  0.5733  0.3492  0.3314
  122OSM   C16S12961  -0.700   4.908   9.401  0.0871  0.1348  0.1426
  122OSM   H16S12962  -0.646   4.925   9.306 -0.2365  0.7707  0.0652
  122OSM   H16T12963  -0.768   4.996   9.409 -0.7151 -0.4818  0.1771
  122OSM   C17S12964  -0.768   4.771   9.409 -0.1464 -0.1852 -0.0483
  122OSM   H17S12965  -0.822   4.765   9.506 -1.7193 -0.1380 -0.8741
  122OSM   H17T12966  -0.684   4.699   9.405 -0.1379 -0.3770  2.2223
  122OSM   C18S12967  -0.875   4.747   9.303 -0.5746  0.3613 -0.0916
  122OSM   H18S12968  -0.944   4.835   9.297 -2.0610 -0.6964  0.7873
  122OSM   H18T12969  -0.935   4.658   9.331  0.4169 -1.2986 -2.9643
  122OSM   H18U12970  -0.832   4.727   9.203 -1.5974  2.5200 -1.0293
  122OSM    C1F12971   0.019   5.490  10.246 -0.1841  0.4029  0.6528
  122OSM     OF12972   0.096   5.401  10.287 -0.4253  0.2375  0.5770
  122OSM    C2F12973   0.038   5.553  10.112  0.0289 -0.2325 -0.0419
  122OSM    H2F12974   0.063   5.661  10.123  0.4243 -0.3797  0.5902
  122OSM    H2G12975  -0.059   5.540  10.059 -0.0883  1.2693 -0.2429
  122OSM    C3F12976   0.148   5.490  10.026  0.2968  0.2345 -0.2723
  122OSM    H3F12977   0.131   5.381  10.018 -0.9342  0.4356 -0.6878
  122OSM    H3G12978   0.253   5.508  10.058 -0.2482  0.6361  1.3971
  122OSM    C4F12979   0.138   5.546   9.884 -0.0087 -0.0830  0.0302
  122OSM    H4F12980   0.180   5.648   9.874 -1.0257  0.2202 -1.4767
  122OSM    H4G12981   0.031   5.548   9.853  0.1595 -0.1379 -0.5655
  122OSM    C5F12982   0.221   5.459   9.784  0.4823 -0.2138 -0.2440
  122OSM    H5F12983   0.185   5.354   9.779 -0.8869  0.2530 -0.8833
  122OSM    H5G12984   0.331   5.467   9.797  0.3442  3.1513 -0.1977
  122OSM    C6F12985   0.199   5.504   9.639 -0.2436 -0.3209  0.2657
  122OSM    H6F12986   0.261   5.596   9.631 -0.8251  0.0781  0.2986
  122OSM    H6G12987   0.098   5.540   9.611  0.1836  0.7184  0.0140
  122OSM    C7F12988   0.250   5.412   9.528 -1.1257  0.3341  0.0452
  122OSM    H7F12989   0.186   5.321   9.529 -0.1762 -0.3395  1.3637
  122OSM    H7G12990   0.347   5.367   9.556 -1.2929 -1.2779 -1.7273
  122OSM    C8F12991   0.263   5.490   9.401 -0.3094  0.7822  0.2577
  122OSM    H8F12992   0.334   5.446   9.329 -0.2011  1.6650 -0.1807
  122OSM    H8G12993   0.300   5.593   9.416 -1.8127  1.7089 -1.9340
  122OSM    C9F12994   0.135   5.520   9.333  1.0115 -0.2152 -0.3315
  122OSM    H9F12995   0.080   5.607   9.372  0.6929 -0.8992  0.7870
  122OSM   C10F12996   0.082   5.462   9.229 -0.5776 -0.8140  0.3621
  122OSM   H10F12997  -0.001   5.522   9.189  1.1716  1.8789  0.4708
  122OSM   C11F12998   0.132   5.342   9.156 -0.1455  0.2167 -0.0380
  122OSM   H11F12999   0.059   5.258   9.158  1.4188 -1.1884  1.6155
  122OSM   H11G13000   0.215   5.286   9.203  1.2016  1.1367 -1.2360
  122OSM   C12F13001   0.174   5.366   9.011  0.0135  0.3800  0.2597
  122OSM   H12F13002   0.271   5.420   9.003 -0.3391  1.0950  0.6518
  122OSM   H12G13003   0.099   5.429   8.959  1.0968 -0.3475 -2.3056
  122OSM   C13F13004   0.199   5.244   8.925  0.3520 -0.2593  0.2418
  122OSM   H13F13005   0.278   5.189   8.982 -0.1828  0.2672  1.5281
  122OSM   H13G13006   0.232   5.284   8.827 -2.1547 -0.4282 -0.7485
  122OSM   C14F13007   0.072   5.163   8.896  0.6253 -0.0403 -0.1259
  122OSM   H14F13008   0.001   5.238   8.854  0.6357  0.0937  0.0973
  122OSM   H14G13009   0.023   5.118   8.984  1.2949 -1.6051 -0.5244
  122OSM   C15F13010   0.095   5.054   8.799 -0.0358  0.2285  0.2136
  122OSM   H15F13011   0.151   4.976   8.855 -1.2048 -1.4582 -0.8668
  122OSM   H15G13012   0.155   5.086   8.712 -1.4898  3.0104  0.1164
  122OSM   C16F13013  -0.038   5.000   8.753 -0.1510  0.2168 -0.0096
  122OSM   H16F13014  -0.092   5.080   8.699  0.1517  1.9475  2.0918
  122OSM   H16G13015  -0.103   4.971   8.839  0.6695  0.2822  0.6524
  122OSM   C17F13016  -0.026   4.868   8.675  0.5543  0.2621 -0.5845
  122OSM   H17F13017   0.034   4.804   8.742  0.7713 -0.0746 -1.0984
  122OSM   H17G13018   0.038   4.880   8.585 -0.5778  0.2269 -1.4134
  122OSM   C18F13019  -0.155   4.802   8.626 -0.5948  0.0737  0.0048
  122OSM   H18F13020  -0.207   4.741   8.702  0.7732 -0.5555  0.4760
  122OSM   H18G13021  -0.116   4.727   8.553  1.1457  1.2178 -0.3048
  122OSM   H18H13022  -0.229   4.858   8.565 -3.6397 -0.5185  2.8722
  123OSM      N13023   3.266   3.246   5.959  0.4304  0.3880  0.3697
  123OSM    C1513024   3.256   3.116   6.024 -0.5944 -0.2704 -0.3005
  123OSM   H15A13025   3.314   3.037   5.979 -0.8295 -1.0523  0.7195
  123OSM   H15B13026   3.156   3.076   6.026 -0.4926 -0.5776 -1.0209
  123OSM   H15C13027   3.288   3.123   6.127 -2.2338 -0.6152  0.2595
  123OSM    C1413028   3.209   3.222   5.822  0.0333  0.3832 -0.4610
  123OSM   H14A13029   3.262   3.151   5.760 -1.9325 -1.0313 -0.6166
  123OSM   H14B13030   3.209   3.312   5.762 -1.1941 -0.5384 -1.9035
  123OSM   H14C13031   3.108   3.191   5.843  0.2922 -0.5275 -0.5254
  123OSM    C1313032   3.174   3.348   6.021 -0.2099 -0.9378  0.5677
  123OSM   H13A13033   3.173   3.445   5.974 -0.9052 -1.7281 -1.1090
  123OSM   H13B13034   3.187   3.349   6.128 -1.3341  3.4706  0.8886
  123OSM   H13C13035   3.073   3.311   6.011  0.2737 -1.9730 -0.6749
  123OSM    C1213036   3.403   3.304   5.948  0.0490 -0.1018 -0.4638
  123OSM   H12A13037   3.397   3.389   5.881  0.9038  1.4975  1.3727
  123OSM   H12B13038   3.464   3.232   5.896  1.0273  0.5050 -0.1892
  123OSM    C1113039   3.489   3.347   6.068 -0.4314 -0.4025 -0.0974
  123OSM   H11A13040   3.592   3.376   6.038 -0.3207 -1.2449 -0.5525
  123OSM   H11B13041   3.497   3.249   6.121 -1.0836 -1.9795 -2.7592
  123OSM      P13042   3.430   3.592   6.134 -0.1447 -0.0812  0.3556
  123OSM    O1313043   3.535   3.648   6.220 -0.2319 -0.1358  0.7597
  123OSM    O1413044   3.446   3.628   5.994 -0.2257  0.4764 -0.0178
  123OSM    O1113045   3.291   3.646   6.180 -0.2942 -0.1181  0.1919
  123OSM    O1213046   3.423   3.437   6.154 -0.1285  0.5077 -0.3807
  123OSM    C1S13047   3.219   3.582   6.278 -0.0478  0.1603 -0.6047
  123OSM    H1S13048   3.262   3.488   6.317  0.4208  0.2980 -0.7834
  123OSM    H1T13049   3.122   3.550   6.234 -0.1557  1.1124 -1.0820
  123OSM     NF13050   3.144   3.617   6.516  0.1695  0.0719 -0.3735
  123OSM    HNF13051   3.053   3.642   6.547  0.8969  1.0686  1.0487
  123OSM    C2S13052   3.196   3.680   6.394 -0.2420  0.4283 -0.5924
  123OSM    H2S13053   3.295   3.720   6.425 -0.0577  0.3170 -1.0258
  123OSM    C3S13054   3.107   3.805   6.357 -0.5071  0.2964 -0.1408
  123OSM    H3S13055   3.010   3.760   6.330  0.2385  0.2610 -3.1512
  123OSM     O313056   3.156   3.864   6.233  0.5024  0.2805  0.0119
  123OSM    HO313057   3.230   3.809   6.204  0.0842 -0.4203  0.2516
  123OSM    C4S13058   3.092   3.907   6.465 -0.2750  1.1099  0.3822
  123OSM    H4S13059   2.995   3.908   6.516  0.1281  1.1529  1.1518
  123OSM    C5S13060   3.184   4.000   6.491  0.3386  0.5782  0.0639
  123OSM    H5S13061   3.281   3.991   6.440 -1.3470 -3.3083 -2.9974
  123OSM    C6S13062   3.161   4.109   6.587 -0.3780  0.4269  0.2551
  123OSM    H6S13063   3.106   4.187   6.531  0.4484  0.0013 -1.1918
  123OSM    H6T13064   3.260   4.147   6.618 -0.8393  2.4656 -0.6074
  123OSM    C7S13065   3.077   4.083   6.711  0.0549 -0.2096 -0.6706
  123OSM    H7S13066   3.121   4.014   6.786 -0.2308 -2.0272 -2.0996
  123OSM    H7T13067   2.982   4.029   6.690  0.2082 -1.5914  1.8053
  123OSM    C8S13068   3.057   4.209   6.785  0.0487 -0.3242  0.1604
  123OSM    H8S13069   2.998   4.285   6.731 -1.2144  0.0021  1.9270
  123OSM    H8T13070   3.153   4.263   6.802 -0.6237  1.2553 -0.8479
  123OSM    C9S13071   2.992   4.186   6.919 -0.2590 -0.2647 -0.4747
  123OSM    H9S13072   3.053   4.105   6.965  0.8750  0.6961 -0.2277
  123OSM    H9T13073   2.888   4.161   6.890  0.9065 -0.3614 -5.5357
  123OSM   C10S13074   3.015   4.309   7.003  0.2685  0.5072 -0.2225
  123OSM   H10S13075   2.975   4.397   6.947 -0.3753  0.6184  0.3890
  123OSM   H10T13076   3.125   4.321   7.011  0.5463 -2.5261  2.4069
  123OSM   C11S13077   2.957   4.299   7.144 -0.6724  0.5165 -0.1788
  123OSM   H11S13078   2.998   4.202   7.178 -0.1766  0.5230 -0.7373
  123OSM   H11T13079   2.846   4.299   7.138 -0.8205  1.0613  1.9721
  123OSM   C12S13080   3.000   4.407   7.245  0.2324 -0.2663 -0.9281
  123OSM   H12S13081   2.969   4.512   7.227  0.6285 -0.0583 -0.4243
  123OSM   H12T13082   3.111   4.410   7.242  0.2836  2.0233  0.7539
  123OSM   C13S13083   2.978   4.377   7.395 -0.5549  0.6895 -0.0156
  123OSM   H13S13084   2.869   4.386   7.416 -0.3719  1.1558  0.7468
  123OSM   H13T13085   3.019   4.462   7.454 -1.5075  0.2985  1.2407
  123OSM   C14S13086   3.036   4.251   7.462  0.0055 -0.3949  0.2397
  123OSM   H14S13087   3.145   4.232   7.455 -0.1998 -1.2953 -0.8326
  123OSM   H14T13088   2.982   4.165   7.416 -0.4422  1.2408 -2.5386
  123OSM   C15S13089   3.018   4.241   7.613  0.3878 -0.0239  0.3149
  123OSM   H15S13090   3.015   4.132   7.631 -1.0740 -0.4008 -1.8811
  123OSM   H15T13091   2.924   4.281   7.658  0.7543  0.3164  0.7921
  123OSM   C16S13092   3.135   4.305   7.694  0.5393 -0.1893 -0.5520
  123OSM   H16S13093   3.136   4.412   7.663  0.7813  0.0173  0.1423
  123OSM   H16T13094   3.229   4.262   7.653  0.7937  0.1323 -0.3143
  123OSM   C17S13095   3.124   4.286   7.848  1.3509  0.5914 -0.0535
  123OSM   H17S13096   3.083   4.186   7.874 -0.1353  1.2808  0.3813
  123OSM   H17T13097   3.057   4.358   7.900  0.7369 -1.4845  2.1859
  123OSM   C18S13098   3.262   4.299   7.914 -0.0194  0.3957 -0.6672
  123OSM   H18S13099   3.256   4.285   8.024 -3.1407 -0.2003 -0.8279
  123OSM   H18T13100   3.308   4.399   7.896  1.9921 -0.2164  0.7482
  123OSM   H18U13101   3.327   4.225   7.863  0.5851  0.3945  0.1052
  123OSM    C1F13102   3.206   3.516   6.576 -0.7151 -0.1458 -0.5200
  123OSM     OF13103   3.323   3.477   6.537 -0.5069  0.1756  0.7006
  123OSM    C2F13104   3.138   3.450   6.690 -0.1931  0.0497  0.7618
  123OSM    H2F13105   3.163   3.342   6.689 -1.3299 -0.2181  0.8732
  123OSM    H2G13106   3.028   3.443   6.679  0.1239 -4.7237 -2.1583
  123OSM    C3F13107   3.187   3.512   6.825  0.5170 -0.2320 -0.1498
  123OSM    H3F13108   3.295   3.504   6.851  0.4839  0.2249  0.1287
  123OSM    H3G13109   3.136   3.442   6.895  0.4101 -0.6972 -0.6828
  123OSM    C4F13110   3.146   3.658   6.838  0.3051 -0.1602  0.0787
  123OSM    H4F13111   3.043   3.674   6.799  1.0818  0.5056 -1.8148
  123OSM    H4G13112   3.212   3.715   6.769  2.2452 -0.1966  1.8087
  123OSM    C5F13113   3.167   3.719   6.985  0.3541  0.2400  0.0465
  123OSM    H5F13114   3.127   3.823   6.987 -0.4408 -0.0715  1.6333
  123OSM    H5G13115   3.273   3.711   7.016  0.2489 -0.5151  0.2257
  123OSM    C6F13116   3.086   3.645   7.092  0.1548 -0.2907  0.2009
  123OSM    H6F13117   3.144   3.552   7.111 -0.8703 -0.4114  3.2684
  123OSM    H6G13118   2.985   3.632   7.048 -1.5633  3.3381  2.5759
  123OSM    C7F13119   3.070   3.718   7.224  0.6489  0.2312 -0.2045
  123OSM    H7F13120   3.162   3.778   7.240 -0.0831  1.3782 -0.1792
  123OSM    H7G13121   3.065   3.640   7.303 -0.1126 -0.8261 -1.2398
  123OSM    C8F13122   2.947   3.809   7.236  0.8664 -0.9944  0.4614
  123OSM    H8F13123   2.923   3.848   7.135 -0.1768 -2.0111  0.2933
  123OSM    H8G13124   2.986   3.899   7.289  0.9132  0.8371 -2.4384
  123OSM    C9F13125   2.830   3.754   7.308  0.0146  1.2493  0.2901
  123OSM    H9F13126   2.740   3.744   7.245 -0.4213 -0.9546  1.1750
  123OSM   C10F13127   2.836   3.706   7.438  0.7626 -0.4087  0.6033
  123OSM   H10F13128   2.741   3.665   7.473  0.3916  0.0469  0.1490
  123OSM   C11F13129   2.947   3.709   7.537 -0.2732  0.7154  0.0102
  123OSM   H11F13130   3.033   3.770   7.503  2.4390 -3.4587 -1.3154
  123OSM   H11G13131   2.984   3.606   7.551 -0.7607  0.6229  0.6416
  123OSM   C12F13132   2.886   3.751   7.670  0.1458  0.1720 -0.4154
  123OSM   H12F13133   2.825   3.668   7.712 -1.1898  1.9684  1.4005
  123OSM   H12G13134   2.820   3.839   7.657  2.0829  1.5628 -1.3525
  123OSM   C13F13135   2.999   3.775   7.772 -0.0757 -0.5321  0.0829
  123OSM   H13F13136   3.066   3.848   7.724  0.2425  0.3800  1.8326
  123OSM   H13G13137   3.067   3.689   7.790 -0.2666 -0.6170  0.4263
  123OSM   C14F13138   2.947   3.835   7.903  0.2056  0.2544  0.7476
  123OSM   H14F13139   2.870   3.910   7.874  0.6254  0.1102 -0.8015
  123OSM   H14G13140   3.032   3.881   7.957  0.5761  1.7919 -1.0528
  123OSM   C15F13141   2.895   3.724   7.991  0.0074  0.5481 -0.1024
  123OSM   H15F13142   2.978   3.657   8.023 -1.5794 -1.4877  0.0130
  123OSM   H15G13143   2.825   3.652   7.942 -0.6001 -1.0286  2.7993
  123OSM   C16F13144   2.810   3.761   8.116  0.4584  0.2021 -0.2443
  123OSM   H16F13145   2.760   3.667   8.149 -3.9941  3.1682  2.3808
  123OSM   H16G13146   2.735   3.832   8.074 -0.4005  0.3490  1.4587
  123OSM   C17F13147   2.884   3.827   8.232  0.4285 -1.1511 -0.2636
  123OSM   H17F13148   2.915   3.922   8.185 -1.8679 -0.2971 -0.1859
  123OSM   H17G13149   2.973   3.770   8.265  1.2835 -0.1525 -0.8218
  123OSM   C18F13150   2.806   3.861   8.358 -0.0947 -0.4473 -0.0562
  123OSM   H18F13151   2.808   3.767   8.418 -0.4313 -1.4093 -1.4976
  123OSM   H18G13152   2.701   3.888   8.335  0.6511  1.2022 -1.7366
  123OSM   H18H13153   2.850   3.944   8.416 -0.0920 -1.1479  0.9785
  124OSM      N13154   6.319   2.346   6.158  0.3604  0.3400  0.0868
  124OSM    C1513155   6.449   2.398   6.111 -0.7695  0.4468  0.3064
  124OSM   H15A13156   6.451   2.411   6.003 -1.1228 -0.6345  0.1519
  124OSM   H15B13157   6.527   2.328   6.138 -0.5218  0.8879  0.7401
  124OSM   H15C13158   6.478   2.487   6.165  0.8205  1.4197 -1.9611
  124OSM    C1413159   6.218   2.457   6.151  0.0349  0.3461  0.1932
  124OSM   H14A13160   6.117   2.420   6.162 -0.0998 -0.0486 -1.9063
  124OSM   H14B13161   6.213   2.495   6.050 -0.9093 -0.4974 -0.0973
  124OSM   H14C13162   6.230   2.542   6.216  0.0575 -0.2982  1.0517
  124OSM    C1313163   6.275   2.234   6.076 -0.4728 -0.1904  0.2029
  124OSM   H13A13164   6.185   2.182   6.107 -0.1116 -1.1600 -0.3401
  124OSM   H13B13165   6.356   2.164   6.065  1.3342  2.0520 -1.7118
  124OSM   H13C13166   6.242   2.272   5.980 -0.5024 -0.4727  0.1019
  124OSM    C1213167   6.339   2.308   6.299 -0.0702  0.1566  0.2258
  124OSM   H12A13168   6.360   2.401   6.351 -2.5122  1.4768 -0.9838
  124OSM   H12B13169   6.426   2.244   6.299 -0.3946 -0.3061 -0.5618
  124OSM    C1113170   6.233   2.233   6.377  0.5279 -0.3375 -0.5845
  124OSM   H11A13171   6.138   2.290   6.376  0.7241  0.0067  0.2796
  124OSM   H11B13172   6.247   2.239   6.487  0.6035  0.1635 -0.6191
  124OSM      P13173   6.351   2.004   6.355  0.3445 -0.0300 -0.4594
  124OSM    O1313174   6.301   1.867   6.335 -0.0481  0.2293  0.1874
  124OSM    O1413175   6.462   2.053   6.267 -0.2930  0.0286  0.5404
  124OSM    O1113176   6.387   2.022   6.512  0.2896  0.6994 -0.5683
  124OSM    O1213177   6.220   2.095   6.337  0.4713 -0.0130 -0.4504
  124OSM    C1S13178   6.508   1.960   6.553 -0.2326 -0.6211  0.7058
  124OSM    H1S13179   6.589   1.993   6.483 -0.0045 -1.6456  0.4700
  124OSM    H1T13180   6.515   1.850   6.565  2.3069 -0.5159  0.8074
  124OSM     NF13181   6.686   1.961   6.723 -0.1417 -0.2128  0.4538
  124OSM    HNF13182   6.712   1.871   6.757  0.4951 -0.1034  0.2630
  124OSM    C2S13183   6.549   2.000   6.691 -0.1610 -0.9501 -0.7666
  124OSM    H2S13184   6.540   2.110   6.681  0.0353 -0.9810 -1.3237
  124OSM    C3S13185   6.445   1.947   6.799 -0.1346  0.5286 -0.4749
  124OSM    H3S13186   6.444   1.836   6.805 -3.1055  0.4637 -0.5731
  124OSM     O313187   6.308   1.980   6.770  0.6703  0.4864  0.2535
  124OSM    HO313188   6.315   2.008   6.678  1.3972 -0.1695  0.0999
  124OSM    C4S13189   6.473   2.018   6.931  0.3625 -0.5992 -0.6300
  124OSM    H4S13190   6.461   2.127   6.929 -0.5378 -0.6676  0.2201
  124OSM    C5S13191   6.513   1.958   7.046  0.2013  0.7410 -0.2161
  124OSM    H5S13192   6.529   1.850   7.051 -2.5451  0.2129 -1.2264
  124OSM    C6S13193   6.565   2.029   7.169 -0.3468 -0.8830 -0.3148
  124OSM    H6S13194   6.555   2.139   7.164  0.6401 -0.7560  0.3646
  124OSM    H6T13195   6.672   2.009   7.191 -0.0279  0.8819 -0.1277
  124OSM    C7S13196   6.488   1.985   7.295  0.0739 -0.0830  0.4253
  124OSM    H7S13197   6.467   1.876   7.295 -0.4033  0.0079  0.4517
  124OSM    H7T13198   6.389   2.036   7.294  0.2097  0.7848  5.2396
  124OSM    C8S13199   6.552   2.014   7.427 -0.4053  0.0948  0.0581
  124OSM    H8S13200   6.583   2.120   7.435 -1.5733  0.2997  2.8042
  124OSM    H8T13201   6.637   1.949   7.457 -1.6069 -0.8427  1.5855
  124OSM    C9S13202   6.435   1.987   7.527 -0.5532 -0.1556  0.5154
  124OSM    H9S13203   6.402   1.883   7.504  0.6562 -0.8168  1.6032
  124OSM    H9T13204   6.345   2.050   7.511 -0.0933 -0.1762 -2.8864
  124OSM   C10S13205   6.484   1.998   7.671 -0.0497  0.0062 -0.1136
  124OSM   H10S13206   6.504   2.106   7.688 -0.4433  0.1762 -0.7186
  124OSM   H10T13207   6.581   1.946   7.686 -1.1645 -2.8073 -1.7892
  124OSM   C11S13208   6.381   1.940   7.775  0.7000  0.1058 -0.4881
  124OSM   H11S13209   6.333   1.850   7.732  2.7411 -0.8634 -0.8678
  124OSM   H11T13210   6.299   2.014   7.785  0.8050  0.7117 -3.1394
  124OSM   C12S13211   6.442   1.906   7.916  0.1142  0.0290  0.3766
  124OSM   H12S13212   6.475   1.998   7.971 -2.1471  0.8050  0.5479
  124OSM   H12T13213   6.535   1.849   7.895 -0.0270 -0.3925  0.8762
  124OSM   C13S13214   6.346   1.828   8.004  0.3939  0.1000 -0.0892
  124OSM   H13S13215   6.315   1.726   7.972  0.7562 -0.2717  0.7207
  124OSM   H13T13216   6.249   1.883   8.006 -0.2146 -0.9706  1.2443
  124OSM   C14S13217   6.389   1.819   8.151 -0.4278  0.1862 -0.1587
  124OSM   H14S13218   6.440   1.914   8.180 -0.6204 -0.1765  1.4566
  124OSM   H14T13219   6.461   1.734   8.159 -0.8469 -0.4105 -2.2112
  124OSM   C15S13220   6.268   1.801   8.243  0.9719  0.6522  0.4039
  124OSM   H15S13221   6.205   1.717   8.206  1.5230 -0.0802  1.0893
  124OSM   H15T13222   6.210   1.895   8.244 -0.9386 -0.4681  0.5749
  124OSM   C16S13223   6.314   1.767   8.382  0.4983  1.0699 -0.9502
  124OSM   H16S13224   6.405   1.704   8.366 -2.0177 -3.4790  0.7488
  124OSM   H16T13225   6.227   1.710   8.421  1.3231  0.9134  0.7756
  124OSM   C17S13226   6.352   1.887   8.473  0.3564 -0.1929  0.6951
  124OSM   H17S13227   6.351   1.854   8.579 -1.6629 -0.0553  0.7495
  124OSM   H17T13228   6.277   1.966   8.455  0.5849  0.1427  1.1881
  124OSM   C18S13229   6.489   1.948   8.430 -0.4961 -0.0559 -0.0032
  124OSM   H18S13230   6.477   2.013   8.340  1.6302 -0.1906 -0.4461
  124OSM   H18T13231   6.576   1.881   8.413 -0.1615  0.2002  0.6773
  124OSM   H18U13232   6.518   2.021   8.509 -3.1835 -0.6055  1.5989
  124OSM    C1F13233   6.796   2.035   6.684  0.0735  0.1602 -0.4864
  124OSM     OF13234   6.772   2.148   6.646  0.1357  0.1614  0.4473
  124OSM    C2F13235   6.930   1.964   6.689  0.2834  0.4696 -0.4512
  124OSM    H2F13236   6.992   1.986   6.600  0.0822  0.6806 -0.5382
  124OSM    H2G13237   6.930   1.855   6.710  1.4909  0.5154 -0.1264
  124OSM    C3F13238   7.016   2.026   6.804 -0.8170 -0.1764 -0.2255
  124OSM    H3F13239   7.032   2.135   6.790  0.7001 -0.2123  0.9343
  124OSM    H3G13240   7.114   1.975   6.794 -0.2456  1.0673 -1.2606
  124OSM    C4F13241   6.969   1.999   6.957  0.0982 -0.8052  0.9321
  124OSM    H4F13242   6.933   1.898   6.985 -3.3950 -0.1425 -0.6375
  124OSM    H4G13243   6.883   2.068   6.962  0.6503  0.4219 -2.9237
  124OSM    C5F13244   7.071   2.056   7.062  0.9805 -0.8382 -0.1636
  124OSM    H5F13245   7.101   2.155   7.021 -0.9270 -1.2983 -2.9737
  124OSM    H5G13246   7.163   1.993   7.057  1.1777 -0.6775  1.1698
  124OSM    C6F13247   7.004   2.052   7.201 -0.1889 -0.9010  0.3115
  124OSM    H6F13248   6.978   1.946   7.221 -2.8105 -0.3985 -0.0780
  124OSM    H6G13249   6.907   2.104   7.192  0.7011  0.7220 -0.3402
  124OSM    C7F13250   7.084   2.112   7.312 -0.1016  0.4969 -0.3355
  124OSM    H7F13251   7.100   2.220   7.289  2.0215  0.3939  0.4120
  124OSM    H7G13252   7.184   2.066   7.322 -0.6720 -0.7861 -0.3629
  124OSM    C8F13253   7.008   2.093   7.449  0.5153 -0.4615 -0.2810
  124OSM    H8F13254   7.033   1.991   7.482  0.7285 -1.4240 -3.1326
  124OSM    H8G13255   6.898   2.094   7.431  0.3166 -0.4312  0.8478
  124OSM    C9F13256   7.034   2.206   7.545  0.2389  0.5917 -0.6584
  124OSM    H9F13257   7.004   2.307   7.513  0.9259  0.8226 -0.5983
  124OSM   C10F13258   7.105   2.185   7.662  0.4096 -0.1905 -0.2553
  124OSM   H10F13259   7.112   2.267   7.735 -2.5467  0.4965 -0.6297
  124OSM   C11F13260   7.170   2.054   7.715  0.4512  0.2235 -0.4339
  124OSM   H11F13261   7.280   2.055   7.703  0.3452 -0.0833 -1.5084
  124OSM   H11G13262   7.125   1.968   7.662  0.3764 -0.9596  1.4465
  124OSM   C12F13263   7.157   2.036   7.867 -0.3351  0.5135  0.2334
  124OSM   H12F13264   7.184   1.934   7.900  2.1092  0.9568 -0.1860
  124OSM   H12G13265   7.056   2.065   7.904 -0.8663 -0.7890 -0.1477
  124OSM   C13F13266   7.258   2.130   7.943  0.5295 -0.1431  0.4150
  124OSM   H13F13267   7.216   2.232   7.957  1.6199  0.5039 -0.8787
  124OSM   H13G13268   7.344   2.153   7.877 -2.2260  2.0357 -2.7975
  124OSM   C14F13269   7.281   2.084   8.084  0.1225 -0.2100  0.7412
  124OSM   H14F13270   7.326   1.983   8.071  0.6810 -0.1622  2.1560
  124OSM   H14G13271   7.185   2.076   8.139 -0.4836  0.0186 -0.2599
  124OSM   C15F13272   7.386   2.175   8.157  0.0663 -0.0690  0.6833
  124OSM   H15F13273   7.334   2.269   8.186  0.4775 -0.0173  1.2689
  124OSM   H15G13274   7.462   2.209   8.083  0.1214  0.2227  0.8720
  124OSM   C16F13275   7.445   2.120   8.282 -0.4041 -0.3706 -0.1669
  124OSM   H16F13276   7.510   2.031   8.266 -0.0656 -0.5396  1.8436
  124OSM   H16G13277   7.371   2.088   8.359  2.4666  1.1367  3.5398
  124OSM   C17F13278   7.527   2.208   8.370 -0.1010 -0.1540  0.2053
  124OSM   H17F13279   7.466   2.297   8.398 -0.9508 -0.3635 -0.8904
  124OSM   H17G13280   7.618   2.237   8.312 -0.4215  1.2358  0.3523
  124OSM   C18F13281   7.584   2.132   8.494 -0.3192 -0.7352  0.7070
  124OSM   H18F13282   7.505   2.110   8.569 -0.9683 -1.8664 -0.2756
  124OSM   H18G13283   7.674   2.185   8.531 -0.0525 -1.4873  1.1552
  124OSM   H18H13284   7.626   2.036   8.458  1.0526  0.0164  0.2487
  125OSM      N13285   5.751   3.329   5.806 -0.1909 -0.1519 -0.2028
  125OSM    C1513286   5.877   3.399   5.765 -0.0354  0.1304  0.5364
  125OSM   H15A13287   5.961   3.339   5.733  0.8247  1.2951  0.5204
  125OSM   H15B13288   5.914   3.453   5.851 -2.9881  0.7322  1.5371
  125OSM   H15C13289   5.866   3.464   5.679 -3.8951 -0.5355  0.3629
  125OSM    C1413290   5.643   3.437   5.815 -0.1358 -0.1382  0.1402
  125OSM   H14A13291   5.663   3.522   5.878 -0.5252 -0.6591  0.9903
  125OSM   H14B13292   5.547   3.388   5.826  0.1537 -0.6859  0.2894
  125OSM   H14C13293   5.634   3.478   5.715 -2.5334 -3.8376 -1.3924
  125OSM    C1313294   5.710   3.234   5.693 -0.5039 -0.5582 -0.3073
  125OSM   H13A13295   5.715   3.289   5.600 -1.5524 -0.5882 -0.3904
  125OSM   H13B13296   5.611   3.195   5.712 -0.7397 -0.6176 -1.5831
  125OSM   H13C13297   5.772   3.146   5.682 -1.4088 -1.4628  1.3858
  125OSM    C1213298   5.766   3.249   5.931 -0.4701  0.3760  0.5123
  125OSM   H12A13299   5.845   3.176   5.919  0.4526  1.6583 -2.0936
  125OSM   H12B13300   5.679   3.191   5.956 -1.0944  1.9275  2.0901
  125OSM    C1113301   5.792   3.318   6.062 -0.0583 -0.3015 -0.7465
  125OSM   H11A13302   5.848   3.412   6.042  1.8544 -1.4885 -1.1155
  125OSM   H11B13303   5.841   3.242   6.125 -1.6001 -1.3844 -0.7987
  125OSM      P13304   5.559   3.271   6.164 -0.1585  0.1247 -0.0132
  125OSM    O1313305   5.457   3.353   6.221  0.2127 -0.1546  0.0121
  125OSM    O1413306   5.524   3.166   6.067  0.4994 -0.3755 -0.4766
  125OSM    O1113307   5.631   3.200   6.284  0.0430 -0.1380 -0.7188
  125OSM    O1213308   5.665   3.367   6.113  0.0278 -0.1784 -0.3698
  125OSM    C1S13309   5.705   3.253   6.395 -0.8071  0.6487  0.2630
  125OSM    H1S13310   5.752   3.348   6.362 -0.2344 -0.0312 -0.9644
  125OSM    H1T13311   5.793   3.189   6.421 -1.4451 -0.1236  0.5739
  125OSM     NF13312   5.713   3.360   6.612 -0.7405  0.3466 -0.2405
  125OSM    HNF13313   5.759   3.301   6.679 -1.3508  0.3134  0.1571
  125OSM    C2S13314   5.630   3.276   6.528 -0.0906  0.1369  0.5829
  125OSM    H2S13315   5.543   3.332   6.489  1.0149  0.0762 -2.1686
  125OSM    C3S13316   5.576   3.142   6.594  0.8512 -0.7348 -0.8564
  125OSM    H3S13317   5.654   3.070   6.626  0.1374 -1.2487 -0.2488
  125OSM     O313318   5.497   3.070   6.499  0.4225  0.3980 -0.6563
  125OSM    HO313319   5.486   3.135   6.430  3.2962  1.3152 -0.3497
  125OSM    C4S13320   5.497   3.188   6.722  0.4741 -0.7357 -0.4366
  125OSM    H4S13321   5.552   3.246   6.797  0.5204 -1.5438  0.1660
  125OSM    C5S13322   5.369   3.169   6.750  0.1536  0.9908  0.0524
  125OSM    H5S13323   5.306   3.119   6.675 -1.5674  2.2944  0.5653
  125OSM    C6S13324   5.294   3.212   6.880 -0.6556 -0.3162 -0.0782
  125OSM    H6S13325   5.195   3.258   6.861  0.2420  1.2231 -1.3378
  125OSM    H6T13326   5.354   3.299   6.914  1.1735 -2.1358  1.6987
  125OSM    C7S13327   5.299   3.110   7.001 -0.3883 -0.6342  0.0123
  125OSM    H7S13328   5.402   3.071   7.017 -0.0817  0.1590  0.0270
  125OSM    H7T13329   5.236   3.025   6.967 -0.5226 -0.5090 -0.0551
  125OSM    C8S13330   5.230   3.167   7.132 -0.1413  0.1446 -1.0882
  125OSM    H8S13331   5.124   3.196   7.113 -0.2573  0.2246 -0.3359
  125OSM    H8T13332   5.284   3.263   7.151  1.2028 -0.9212  0.7308
  125OSM    C9S13333   5.251   3.080   7.258  0.0329  0.6027 -0.6565
  125OSM    H9S13334   5.350   3.031   7.243 -0.2126  0.1288 -0.7418
  125OSM    H9T13335   5.176   2.997   7.261 -0.1597  0.7590 -1.1787
  125OSM   C10S13336   5.244   3.157   7.391  0.6781  0.4767 -0.1436
  125OSM   H10S13337   5.145   3.207   7.396 -0.1745 -1.2036  0.4408
  125OSM   H10T13338   5.317   3.240   7.377 -0.6612  1.3128 -3.1288
  125OSM   C11S13339   5.273   3.080   7.512 -0.1949 -0.0063 -0.3994
  125OSM   H11S13340   5.381   3.055   7.518  0.2596  0.8846 -3.3562
  125OSM   H11T13341   5.220   2.982   7.504  0.9668 -1.1143  3.4704
  125OSM   C12S13342   5.220   3.148   7.648 -0.0741 -0.0665  0.7665
  125OSM   H12S13343   5.110   3.147   7.660 -0.7346  1.6265 -3.4828
  125OSM   H12T13344   5.259   3.252   7.648 -1.2108  0.3705 -0.2430
  125OSM   C13S13345   5.293   3.077   7.773  0.6261  0.2870  0.0602
  125OSM   H13S13346   5.399   3.062   7.744  1.0152 -0.4630  1.7640
  125OSM   H13T13347   5.251   2.976   7.793  1.4124 -0.5090 -1.9752
  125OSM   C14S13348   5.271   3.149   7.900  0.1563 -0.9866  0.2702
  125OSM   H14S13349   5.161   3.156   7.914  0.3179  0.1191  1.1463
  125OSM   H14T13350   5.308   3.253   7.895 -0.8111 -0.6975 -1.8242
  125OSM   C15S13351   5.324   3.077   8.023 -0.5543 -0.1470  0.1885
  125OSM   H15S13352   5.432   3.100   8.016 -0.3256 -1.6067 -2.2988
  125OSM   H15T13353   5.320   2.966   8.015 -0.7402 -0.0003 -3.2321
  125OSM   C16S13354   5.250   3.121   8.150  0.5391  0.0353  0.2384
  125OSM   H16S13355   5.141   3.098   8.139  0.8035 -0.9567 -0.4501
  125OSM   H16T13356   5.257   3.231   8.165 -0.5390  0.1369  0.0860
  125OSM   C17S13357   5.301   3.043   8.275 -0.8951 -0.2616  0.3346
  125OSM   H17S13358   5.252   3.082   8.367 -0.8855 -0.9261  0.6238
  125OSM   H17T13359   5.407   3.074   8.290 -0.7608 -1.4842  2.1982
  125OSM   C18S13360   5.297   2.896   8.284  0.4999 -0.1202  0.4969
  125OSM   H18S13361   5.195   2.859   8.262 -0.2406  0.9609  1.9686
  125OSM   H18T13362   5.315   2.857   8.386  0.2908 -1.6985 -0.0343
  125OSM   H18U13363   5.361   2.848   8.206 -0.5574  0.4661 -0.7735
  125OSM    C1F13364   5.749   3.490   6.601  0.4278  0.6540  0.1834
  125OSM     OF13365   5.688   3.575   6.529 -0.2793  0.2398 -0.0276
  125OSM    C2F13366   5.862   3.527   6.699  0.2967 -0.4892 -0.5681
  125OSM    H2F13367   5.961   3.515   6.650  0.2423  0.7855 -1.0182
  125OSM    H2G13368   5.841   3.469   6.791 -1.4661 -0.1661 -0.7313
  125OSM    C3F13369   5.848   3.674   6.722 -0.1867  0.2794 -0.1628
  125OSM    H3F13370   5.746   3.704   6.753 -0.2254  1.2373 -1.1541
  125OSM    H3G13371   5.858   3.718   6.621 -1.7280 -2.5238 -1.6496
  125OSM    C4F13372   5.945   3.733   6.823  0.3347  0.1201  0.4709
  125OSM    H4F13373   5.927   3.842   6.825 -3.2655 -0.3144 -0.9516
  125OSM    H4G13374   6.050   3.708   6.797 -0.5563 -1.4605 -2.0430
  125OSM    C5F13375   5.916   3.689   6.964 -0.5143 -0.3115  0.0025
  125OSM    H5F13376   5.960   3.589   6.980 -1.9338 -1.0310 -0.4791
  125OSM    H5G13377   5.806   3.673   6.968 -0.5327 -1.6396 -3.0620
  125OSM    C6F13378   5.962   3.797   7.061  0.4748 -0.6361 -0.3966
  125OSM    H6F13379   5.877   3.868   7.050  0.1312 -1.1665 -1.3208
  125OSM    H6G13380   6.060   3.840   7.030 -0.5698  0.2700 -2.6765
  125OSM    C7F13381   5.976   3.749   7.205 -0.2943 -0.0660  0.2279
  125OSM    H7F13382   6.046   3.665   7.186 -1.6346 -0.8298 -1.6538
  125OSM    H7G13383   5.878   3.723   7.250 -0.8606  0.8124 -0.4482
  125OSM    C8F13384   6.049   3.836   7.311  0.8075 -0.3686  0.0184
  125OSM    H8F13385   6.135   3.874   7.251 -0.9311  1.0915 -1.6947
  125OSM    H8G13386   6.080   3.777   7.399  0.8637 -1.0275 -0.4369
  125OSM    C9F13387   5.965   3.951   7.365 -0.0355  0.3493  0.0866
  125OSM    H9F13388   5.876   3.986   7.311 -1.9718 -2.1043  1.4748
  125OSM   C10F13389   5.996   4.022   7.478  0.3912 -0.1506  0.2541
  125OSM   H10F13390   5.922   4.099   7.502 -1.2797 -0.1990 -3.9088
  125OSM   C11F13391   6.113   3.993   7.570  0.5490  0.9767  0.7672
  125OSM   H11F13392   6.193   4.067   7.549 -0.5353  1.8075 -0.6580
  125OSM   H11G13393   6.161   3.893   7.562 -0.7189  0.4018 -0.0712
  125OSM   C12F13394   6.068   4.016   7.717  0.1357 -0.1448  0.3976
  125OSM   H12F13395   6.027   4.119   7.721  0.2451 -0.0968  0.2853
  125OSM   H12G13396   6.155   4.010   7.787 -0.5986  0.6198  1.3907
  125OSM   C13F13397   5.967   3.917   7.759 -0.4692 -0.1173  0.6602
  125OSM   H13F13398   6.024   3.826   7.788  3.3211  1.4280 -1.3016
  125OSM   H13G13399   5.898   3.902   7.673 -0.4345  1.4479  0.3301
  125OSM   C14F13400   5.874   3.971   7.875 -0.5008 -0.2874  0.8142
  125OSM   H14F13401   5.818   4.058   7.836  0.4398  0.7251  1.6690
  125OSM   H14G13402   5.938   3.997   7.962  0.5606 -0.5655  0.1406
  125OSM   C15F13403   5.763   3.867   7.920 -0.7704 -0.3617 -0.4831
  125OSM   H15F13404   5.815   3.823   8.008  0.2143 -0.9517 -1.3391
  125OSM   H15G13405   5.754   3.771   7.865  0.3248 -1.1058  0.5841
  125OSM   C16F13406   5.631   3.912   7.987 -0.9352 -0.2289  0.4348
  125OSM   H16F13407   5.569   3.830   8.030 -0.1292 -0.5416  1.0240
  125OSM   H16G13408   5.580   3.954   7.898  0.3084  0.1876 -0.1017
  125OSM   C17F13409   5.649   4.026   8.088 -0.6261  0.0312  0.8550
  125OSM   H17F13410   5.546   4.048   8.124 -1.3063 -1.9567  0.2712
  125OSM   H17G13411   5.686   4.117   8.035  1.3548 -2.0363 -1.5627
  125OSM   C18F13412   5.729   3.987   8.223  0.4693 -0.1756  0.1753
  125OSM   H18F13413   5.675   3.907   8.278  2.1158 -1.1250  0.4700
  125OSM   H18G13414   5.748   4.076   8.287  0.4246  0.1805 -0.3007
  125OSM   H18H13415   5.828   3.943   8.200  0.9972  0.4510  1.1749
  126OSM      N13416   2.935   2.736   6.499  0.3165  0.0901  0.2002
  126OSM    C1513417   2.885   2.630   6.591  0.2584  0.1258  0.3418
  126OSM   H15A13418   2.972   2.585   6.637  0.1336 -1.2559 -0.7104
  126OSM   H15B13419   2.815   2.564   6.543  0.8893 -0.8997  0.7935
  126OSM   H15C13420   2.831   2.672   6.674 -2.3691  0.2629 -1.3371
  126OSM    C1413421   2.933   2.676   6.358  0.1632  0.2537 -0.1507
  126OSM   H14A13422   2.987   2.583   6.360 -1.2888 -0.6425  2.4713
  126OSM   H14B13423   2.981   2.736   6.282 -2.1303  1.1272 -1.0221
  126OSM   H14C13424   2.832   2.656   6.326 -0.0771 -0.2909  0.8927
  126OSM    C1313425   2.845   2.848   6.500  0.5236 -0.5302  0.1704
  126OSM   H13A13426   2.745   2.831   6.465 -0.2547  0.4854  1.7661
  126OSM   H13B13427   2.890   2.920   6.433 -0.7466  0.2404  0.1163
  126OSM   H13C13428   2.830   2.900   6.593 -0.2462 -0.2148 -0.1243
  126OSM    C1213429   3.072   2.787   6.527 -0.3178  0.0657  0.4133
  126OSM   H12A13430   3.139   2.703   6.527  0.1441  0.4145  1.8320
  126OSM   H12B13431   3.066   2.821   6.629 -0.5094  2.0716 -0.2133
  126OSM    C1113432   3.137   2.899   6.443  0.1704  0.1917 -0.0290
  126OSM   H11A13433   3.131   2.867   6.337  0.1316  0.0380  0.0192
  126OSM   H11B13434   3.247   2.895   6.460  0.3116 -0.9566 -1.0976
  126OSM      P13435   3.095   3.138   6.352  0.1882  0.0327  0.7025
  126OSM    O1313436   3.026   3.103   6.229  0.4930  0.5738 -0.2811
  126OSM    O1413437   3.041   3.268   6.403 -0.0236 -0.5193  0.2605
  126OSM    O1113438   3.251   3.133   6.334 -0.8915 -0.5239  0.0551
  126OSM    O1213439   3.075   3.024   6.464  0.1392  0.4767  0.3049
  126OSM    C1S13440   3.336   3.208   6.417 -0.2847  0.6208  0.3924
  126OSM    H1S13441   3.280   3.244   6.506 -0.7023 -0.1293  0.4486
  126OSM    H1T13442   3.383   3.293   6.364  0.0026 -1.8235 -3.7216
  126OSM     NF13443   3.543   3.231   6.551  0.2030  0.7924  0.1554
  126OSM    HNF13444   3.619   3.279   6.507  0.3856 -1.4701 -2.2239
  126OSM    C2S13445   3.465   3.133   6.471 -0.3760 -0.0537 -0.3627
  126OSM    H2S13446   3.417   3.049   6.524  1.3449  0.7076  2.6104
  126OSM    C3S13447   3.545   3.069   6.361 -0.1284 -0.3395  0.7875
  126OSM    H3S13448   3.584   3.155   6.303 -1.5616 -0.9820 -1.2365
  126OSM     O313449   3.467   2.994   6.267 -0.6792 -0.3584  0.2240
  126OSM    HO313450   3.378   3.028   6.278 -0.1409  0.8526  1.0165
  126OSM    C4S13451   3.658   2.986   6.414 -0.0088 -0.4409 -0.7078
  126OSM    H4S13452   3.757   3.028   6.389  1.4704 -3.5646 -0.5825
  126OSM    C5S13453   3.654   2.871   6.482  0.3297  0.3458 -0.2051
  126OSM    H5S13454   3.556   2.825   6.499  0.0391  1.4188  1.2224
  126OSM    C6S13455   3.769   2.793   6.543 -0.2093 -0.2681 -0.1333
  126OSM    H6S13456   3.869   2.838   6.526 -0.1471  0.7079  2.3815
  126OSM    H6T13457   3.760   2.688   6.506 -2.6262 -0.1333 -0.1140
  126OSM    C7S13458   3.767   2.788   6.699 -0.3512 -0.2506 -0.0513
  126OSM    H7S13459   3.680   2.728   6.734 -1.0618  1.2422  0.8302
  126OSM    H7T13460   3.767   2.884   6.755 -0.4378 -1.0050  1.2913
  126OSM    C8S13461   3.884   2.704   6.756  0.2474 -0.0299  0.5224
  126OSM    H8S13462   3.979   2.740   6.709  1.3281 -1.6010  1.4015
  126OSM    H8T13463   3.886   2.601   6.716  1.3624  1.0244 -2.4480
  126OSM    C9S13464   3.891   2.712   6.914 -0.2786 -0.2936  0.1070
  126OSM    H9S13465   3.909   2.816   6.948 -1.4558 -0.4219  1.1824
  126OSM    H9T13466   3.980   2.650   6.939 -1.5827 -2.8978 -1.2217
  126OSM   C10S13467   3.769   2.655   6.989  0.2942  0.0160  0.3623
  126OSM   H10S13468   3.769   2.545   6.980 -1.0033  0.0740 -0.6765
  126OSM   H10T13469   3.678   2.697   6.942  1.0619  1.0347 -0.2765
  126OSM   C11S13470   3.772   2.694   7.138  0.0741  0.0403 -0.0145
  126OSM   H11S13471   3.748   2.803   7.141  3.5161  1.1485 -3.5028
  126OSM   H11T13472   3.879   2.678   7.167  1.2359 -0.2285 -3.8930
  126OSM   C12S13473   3.674   2.605   7.215  0.7599  0.1216  0.0908
  126OSM   H12S13474   3.714   2.501   7.216  3.3051  1.0310  0.5020
  126OSM   H12T13475   3.572   2.604   7.170  1.5980  0.6221 -1.9196
  126OSM   C13S13476   3.658   2.640   7.362  0.1606  0.9695 -0.2153
  126OSM   H13S13477   3.578   2.579   7.408  0.7648  0.5950  0.3640
  126OSM   H13T13478   3.634   2.748   7.370  1.3546  1.2295  0.1100
  126OSM   C14S13479   3.777   2.619   7.452  0.3140  0.2115  1.0256
  126OSM   H14S13480   3.855   2.687   7.414 -1.7280  1.3793 -1.3712
  126OSM   H14T13481   3.815   2.515   7.440  0.2426  0.3041 -0.0784
  126OSM   C15S13482   3.742   2.656   7.598 -0.7052  0.4628  0.2954
  126OSM   H15S13483   3.716   2.764   7.601  0.8793  1.0325 -2.4214
  126OSM   H15T13484   3.835   2.632   7.654  1.4357  0.5416 -2.9201
  126OSM   C16S13485   3.638   2.562   7.664 -0.4494 -0.0297 -1.0639
  126OSM   H16S13486   3.685   2.462   7.653  1.6389  0.7447  0.2794
  126OSM   H16T13487   3.547   2.563   7.601  0.8002 -2.5606 -3.1391
  126OSM   C17S13488   3.622   2.591   7.813  0.0222 -0.6545 -0.7760
  126OSM   H17S13489   3.518   2.560   7.838 -0.7636  2.1599 -0.1859
  126OSM   H17T13490   3.645   2.695   7.845 -0.8913 -0.7012  0.0957
  126OSM   C18S13491   3.717   2.492   7.897  0.5160  0.1000 -0.2099
  126OSM   H18S13492   3.746   2.398   7.845  0.3922  0.2441 -0.5413
  126OSM   H18T13493   3.666   2.466   7.993  1.2496 -1.3673 -0.1946
  126OSM   H18U13494   3.810   2.551   7.910 -0.4845  1.6308  0.2228
  126OSM    C1F13495   3.508   3.265   6.671  0.2613  0.2261 -0.8274
  126OSM     OF13496   3.424   3.196   6.729  0.5366  0.2416  0.1925
  126OSM    C2F13497   3.567   3.383   6.737 -0.2376  0.4789 -0.1163
  126OSM    H2F13498   3.500   3.470   6.721 -1.0322  0.1572  1.2744
  126OSM    H2G13499   3.667   3.405   6.693 -0.0901  0.0278 -0.0131
  126OSM    C3F13500   3.582   3.380   6.895  0.4613 -0.1436  0.2262
  126OSM    H3F13501   3.649   3.303   6.940  0.6371  0.7366  1.5355
  126OSM    H3G13502   3.478   3.365   6.932  0.0234  1.2714 -0.3397
  126OSM    C4F13503   3.634   3.510   6.950  0.7141  0.2453 -0.7539
  126OSM    H4F13504   3.562   3.589   6.922  0.7434  0.4090 -0.3735
  126OSM    H4G13505   3.725   3.540   6.892  1.5320  0.1800  0.4553
  126OSM    C5F13506   3.660   3.516   7.104  0.0658 -0.5749  0.0568
  126OSM    H5F13507   3.707   3.612   7.137 -0.1330 -0.5269  0.2011
  126OSM    H5G13508   3.734   3.435   7.122 -0.7810 -2.3003 -3.3780
  126OSM    C6F13509   3.531   3.487   7.180 -0.0951 -0.1209 -0.5088
  126OSM    H6F13510   3.482   3.390   7.155  3.7238 -2.1553 -0.8473
  126OSM    H6G13511   3.455   3.565   7.159  0.5189  1.0127  1.2280
  126OSM    C7F13512   3.568   3.494   7.328 -0.4694 -0.3288 -0.3341
  126OSM    H7F13513   3.608   3.592   7.360  0.6155 -1.4845  2.1683
  126OSM    H7G13514   3.645   3.419   7.355  0.7922  1.1273  0.2283
  126OSM    C8F13515   3.448   3.454   7.413 -0.1442 -0.0358  0.1769
  126OSM    H8F13516   3.483   3.435   7.516 -0.0566  1.0628  0.3600
  126OSM    H8G13517   3.416   3.351   7.388  0.5044 -0.0506 -0.6738
  126OSM    C9F13518   3.334   3.554   7.420  0.1823 -0.5412  0.2367
  126OSM    H9F13519   3.317   3.627   7.340 -0.4202  0.4222  1.2112
  126OSM   C10F13520   3.249   3.553   7.522  0.7145 -0.1306  0.2001
  126OSM   H10F13521   3.179   3.637   7.530  2.7095  1.5275  1.0335
  126OSM   C11F13522   3.251   3.448   7.636  0.8098 -0.6928 -0.3106
  126OSM   H11F13523   3.291   3.348   7.607 -1.5452 -1.7908 -0.0298
  126OSM   H11G13524   3.150   3.424   7.676  0.7794  1.0035  0.7264
  126OSM   C12F13525   3.331   3.506   7.754 -0.3349 -0.0154  0.3231
  126OSM   H12F13526   3.324   3.617   7.767  2.4506  0.0019  2.8487
  126OSM   H12G13527   3.437   3.484   7.731 -0.4353  0.3766 -0.5409
  126OSM   C13F13528   3.307   3.441   7.887 -0.6715 -0.1768  0.4135
  126OSM   H13F13529   3.305   3.331   7.877 -1.2247 -0.2844  1.4954
  126OSM   H13G13530   3.202   3.461   7.921 -1.4432  0.8863 -2.3223
  126OSM   C14F13531   3.411   3.478   7.983  0.1209 -0.5297 -0.3738
  126OSM   H14F13532   3.386   3.573   8.036 -0.4473  0.2803 -2.0436
  126OSM   H14G13533   3.505   3.508   7.933  1.2686  0.0728  2.0037
  126OSM   C15F13534   3.435   3.361   8.069 -0.5706  0.0032  1.5765
  126OSM   H15F13535   3.471   3.275   8.008 -0.4753  0.5938  0.7841
  126OSM   H15G13536   3.338   3.331   8.114 -0.9135 -0.4503  0.5518
  126OSM   C16F13537   3.536   3.389   8.187 -0.5717 -0.8032 -0.6181
  126OSM   H16F13538   3.480   3.448   8.263 -0.6016 -0.9111 -0.5560
  126OSM   H16G13539   3.629   3.438   8.150 -0.8936 -0.8037 -1.4508
  126OSM   C17F13540   3.597   3.268   8.257  0.5442 -0.3383 -0.1369
  126OSM   H17F13541   3.670   3.301   8.334  0.0239 -0.2043  0.3071
  126OSM   H17G13542   3.643   3.203   8.179 -0.2313 -0.8501 -0.1773
  126OSM   C18F13543   3.495   3.176   8.326 -0.3562  0.1545  0.2963
  126OSM   H18F13544   3.425   3.227   8.395 -2.0197 -1.9981  0.3096
  126OSM   H18G13545   3.543   3.098   8.390  0.2773  0.1997 -0.1164
  126OSM   H18H13546   3.431   3.122   8.253 -0.5926 -0.7782  1.1566
  127OSM      N13547   4.047   0.160   5.955 -0.3449  0.1657  0.2996
  127OSM    C1513548   4.064   0.020   5.917 -0.0346  0.3819 -0.5888
  127OSM   H15A13549   3.993  -0.041   5.971  1.4037  0.4166  1.4645
  127OSM   H15B13550   4.159  -0.025   5.941 -0.2193 -0.4053 -1.2821
  127OSM   H15C13551   4.047   0.002   5.812 -2.3469  0.3490 -0.2627
  127OSM    C1413552   4.145   0.249   5.885  0.4128  0.2462  0.3708
  127OSM   H14A13553   4.146   0.252   5.777  2.9751  1.7312  0.3384
  127OSM   H14B13554   4.246   0.224   5.915 -0.4606 -1.2520  2.2673
  127OSM   H14C13555   4.132   0.354   5.907  3.6314  0.6681  0.7927
  127OSM    C1313556   3.914   0.204   5.918  0.2733 -0.0040 -0.1941
  127OSM   H13A13557   3.910   0.195   5.811  0.8143 -0.1268 -0.2107
  127OSM   H13B13558   3.895   0.305   5.951  0.8434 -0.0589  0.3235
  127OSM   H13C13559   3.834   0.148   5.963  0.2771  0.6351  0.6323
  127OSM    C1213560   4.071   0.161   6.112 -0.1833  0.0404  1.0328
  127OSM   H12A13561   3.997   0.106   6.168 -0.4095 -0.3840  0.3326
  127OSM   H12B13562   4.060   0.265   6.136 -0.0896  0.5192 -0.8153
  127OSM    C1113563   4.214   0.114   6.146  0.1710 -0.0489  0.2146
  127OSM   H11A13564   4.237   0.029   6.078  0.8196 -0.0283  0.3991
  127OSM   H11B13565   4.220   0.077   6.251  1.9120  0.1810  0.2278
  127OSM      P13566   4.361   0.322   6.233 -0.1842  0.1471 -0.1481
  127OSM    O1313567   4.466   0.405   6.171  0.3534 -0.5103  0.2923
  127OSM    O1413568   4.243   0.390   6.292  0.1847  0.1033  0.1752
  127OSM    O1113569   4.432   0.239   6.353 -0.1884 -0.0703 -0.5919
  127OSM    O1213570   4.317   0.209   6.122 -0.6079 -0.1011 -0.1520
  127OSM    C1S13571   4.392   0.259   6.487  0.2316  0.7738  0.9103
  127OSM    H1S13572   4.346   0.358   6.502 -0.3784  0.3762  1.7172
  127OSM    H1T13573   4.487   0.251   6.545  1.1329  0.2609 -0.5744
  127OSM     NF13574   4.250   0.178   6.674  0.1405  0.0251 -0.3662
  127OSM    HNF13575   4.294   0.133   6.751 -1.6471 -0.2436  0.5564
  127OSM    C2S13576   4.293   0.147   6.539  0.1820  0.3180 -0.1094
  127OSM    H2S13577   4.203   0.144   6.474 -1.3649 -1.5663  1.9765
  127OSM    C3S13578   4.353   0.003   6.525  0.0451 -0.2099  0.2030
  127OSM    H3S13579   4.447   0.007   6.584  1.3976 -3.7829 -1.4323
  127OSM     O313580   4.392  -0.022   6.390 -0.1253  0.3243  0.0393
  127OSM    HO313581   4.415   0.065   6.358 -1.5500  0.4664 -0.7004
  127OSM    C4S13582   4.258  -0.099   6.581 -1.1336  0.2442 -0.1648
  127OSM    H4S13583   4.158  -0.116   6.538 -0.2318 -2.1746 -1.5122
  127OSM    C5S13584   4.288  -0.177   6.686  0.2425  0.2683 -0.7344
  127OSM    H5S13585   4.386  -0.168   6.735  1.2098  1.1773 -2.7592
  127OSM    C6S13586   4.197  -0.282   6.742  0.4278  0.5013 -0.1916
  127OSM    H6S13587   4.227  -0.383   6.706 -0.9354  0.7431 -2.2023
  127OSM    H6T13588   4.094  -0.263   6.705  0.1740  0.9760  0.7488
  127OSM    C7S13589   4.179  -0.284   6.891 -0.0550 -0.0305  0.1013
  127OSM    H7S13590   4.139  -0.185   6.919 -1.1096 -0.0733 -1.1815
  127OSM    H7T13591   4.281  -0.303   6.932 -0.1890  0.5870  0.7377
  127OSM    C8S13592   4.099  -0.410   6.959 -0.6558 -0.5870 -0.5849
  127OSM    H8S13593   4.141  -0.510   6.933  0.7900 -0.3819  0.8112
  127OSM    H8T13594   3.991  -0.397   6.936 -0.4790 -0.4163 -1.3848
  127OSM    C9S13595   4.119  -0.412   7.116  0.2922  0.2023  0.0554
  127OSM    H9S13596   4.105  -0.310   7.157  1.1531  0.7401 -0.9559
  127OSM    H9T13597   4.224  -0.437   7.146  0.1033 -0.4284  0.2076
  127OSM   C10S13598   4.038  -0.510   7.198  0.0925  0.1041 -0.2274
  127OSM   H10S13599   4.055  -0.617   7.172 -1.9439 -1.0188  2.4682
  127OSM   H10T13600   3.931  -0.484   7.177  0.0132 -0.5409 -0.6420
  127OSM   C11S13601   4.059  -0.489   7.348 -0.2236  0.0838 -0.3404
  127OSM   H11S13602   4.018  -0.391   7.378 -1.9099 -1.9246  5.2306
  127OSM   H11T13603   4.167  -0.480   7.370 -0.1572  1.5387 -1.1528
  127OSM   C12S13604   3.992  -0.600   7.429 -0.1178  0.1056  0.2866
  127OSM   H12S13605   4.023  -0.702   7.397 -0.2103 -0.0007  0.5363
  127OSM   H12T13606   3.882  -0.599   7.416 -0.2931  2.1773  1.4361
  127OSM   C13S13607   4.011  -0.566   7.583  0.0268  0.3697 -0.1855
  127OSM   H13S13608   3.986  -0.467   7.625 -3.6769 -1.0224  1.3046
  127OSM   H13T13609   4.112  -0.601   7.615  0.2631  0.2153 -1.0717
  127OSM   C14S13610   3.916  -0.651   7.660 -0.1646  0.4991 -0.7487
  127OSM   H14S13611   3.921  -0.756   7.625 -0.5877 -0.2145  1.2059
  127OSM   H14T13612   3.813  -0.612   7.646 -0.6373  0.1379  1.4201
  127OSM   C15S13613   3.938  -0.661   7.813 -0.2374 -0.0091 -0.5688
  127OSM   H15S13614   3.985  -0.571   7.859  0.0493 -0.0700 -0.7398
  127OSM   H15T13615   4.015  -0.740   7.831  1.9107  2.3975  1.6911
  127OSM   C16S13616   3.808  -0.700   7.892  0.2050 -0.7304  0.9855
  127OSM   H16S13617   3.766  -0.778   7.825  1.3328 -0.0128 -0.6313
  127OSM   H16T13618   3.756  -0.602   7.881  0.8372 -0.5458 -0.7418
  127OSM   C17S13619   3.819  -0.717   8.039 -0.3682 -0.4888  0.2337
  127OSM   H17S13620   3.864  -0.817   8.059  1.6470  0.0240 -1.4274
  127OSM   H17T13621   3.725  -0.703   8.098  0.2692 -0.0658  1.1613
  127OSM   C18S13622   3.924  -0.625   8.112 -0.4864  0.0059  0.0794
  127OSM   H18S13623   3.898  -0.518   8.099  0.4691  0.4491  1.5325
  127OSM   H18T13624   4.024  -0.647   8.068  0.6435  0.8883  2.0478
  127OSM   H18U13625   3.932  -0.646   8.221  0.0031 -0.5249 -0.0491
  127OSM    C1F13626   4.174   0.277   6.704 -0.2762  0.3379 -0.0507
  127OSM     OF13627   4.122   0.336   6.610 -0.4363 -0.1978 -0.0675
  127OSM    C2F13628   4.178   0.328   6.853  0.0639  0.4416 -0.3552
  127OSM    H2F13629   4.283   0.339   6.889 -0.5072 -0.7091  1.8647
  127OSM    H2G13630   4.144   0.246   6.920 -1.3706  1.9438  0.8374
  127OSM    C3F13631   4.088   0.449   6.867  0.3639  0.1630  0.2595
  127OSM    H3F13632   3.997   0.437   6.804  1.0974 -1.3162 -0.5693
  127OSM    H3G13633   4.144   0.525   6.809  0.7893  0.5357  1.1418
  127OSM    C4F13634   4.065   0.494   7.016  0.1807 -0.1560  0.0896
  127OSM    H4F13635   4.169   0.500   7.056  1.2617 -0.8492 -2.4057
  127OSM    H4G13636   4.003   0.413   7.060 -0.4292 -0.8376 -1.9128
  127OSM    C5F13637   3.985   0.628   7.023 -0.2424  0.5453  0.1194
  127OSM    H5F13638   3.887   0.602   6.977 -0.3458 -1.8163  1.5230
  127OSM    H5G13639   4.024   0.712   6.962  1.3460  2.4459  3.4460
  127OSM    C6F13640   3.952   0.688   7.162  0.2739 -0.6801 -0.3355
  127OSM    H6F13641   4.036   0.753   7.194  0.7185 -1.4074 -0.0125
  127OSM    H6G13642   3.939   0.609   7.239 -3.1080  1.3027  1.3377
  127OSM    C7F13643   3.820   0.770   7.159 -0.2092  0.1969 -0.6103
  127OSM    H7F13644   3.743   0.700   7.121  0.9389 -1.7433  0.4508
  127OSM    H7G13645   3.844   0.853   7.088  3.0269 -1.1118 -1.2228
  127OSM    C8F13646   3.780   0.841   7.293  0.8234  0.5789  0.4292
  127OSM    H8F13647   3.679   0.879   7.269  0.6387 -2.0367 -4.2625
  127OSM    H8G13648   3.857   0.920   7.299  0.8038  0.5680  0.8117
  127OSM    C9F13649   3.775   0.747   7.417  0.2611 -0.5388 -0.1687
  127OSM    H9F13650   3.677   0.698   7.423 -1.7265  3.2632  1.2838
  127OSM   C10F13651   3.861   0.745   7.525  0.6620 -0.5185 -0.0725
  127OSM   H10F13652   3.854   0.668   7.603 -0.1811 -1.0512 -0.6542
  127OSM   C11F13653   3.985   0.830   7.533 -0.4047 -0.2528  0.5765
  127OSM   H11F13654   4.010   0.871   7.434 -1.0322  0.6529  0.7740
  127OSM   H11G13655   4.066   0.759   7.562  0.3544 -1.0738 -3.1248
  127OSM   C12F13656   3.987   0.933   7.652  0.3323  0.0577  0.0144
  127OSM   H12F13657   3.922   1.018   7.622  0.6295  0.2651 -0.0519
  127OSM   H12G13658   4.088   0.978   7.660  0.0342  0.3921  3.0261
  127OSM   C13F13659   3.952   0.880   7.793 -0.2761  0.0804 -0.7806
  127OSM   H13F13660   3.859   0.820   7.786  0.5811 -1.4093  0.1749
  127OSM   H13G13661   3.938   0.972   7.854  0.5526 -0.6900  0.6150
  127OSM   C14F13662   4.061   0.799   7.859 -0.9415  0.0784 -0.1459
  127OSM   H14F13663   4.156   0.857   7.851 -0.6435 -0.2542  0.8097
  127OSM   H14G13664   4.081   0.703   7.806  0.7020  0.3927 -0.1685
  127OSM   C15F13665   4.030   0.777   8.007  0.0056 -0.5766 -0.1318
  127OSM   H15F13666   3.932   0.728   8.022 -0.3312  0.4583  1.2596
  127OSM   H15G13667   4.006   0.877   8.050 -1.4453 -1.8080  2.1106
  127OSM   C16F13668   4.139   0.712   8.093 -0.2655  0.5730 -0.0206
  127OSM   H16F13669   4.228   0.778   8.097  0.0996  0.5585 -3.9684
  127OSM   H16G13670   4.161   0.620   8.036 -1.9134 -0.5727  1.0931
  127OSM   C17F13671   4.077   0.663   8.232 -0.0034 -0.0186  0.6131
  127OSM   H17F13672   3.984   0.607   8.205 -1.3295  2.0182  0.7410
  127OSM   H17G13673   4.052   0.747   8.301  0.8959  1.5844 -0.9359
  127OSM   C18F13674   4.160   0.547   8.303  0.6661  0.2020  0.4226
  127OSM   H18F13675   4.122   0.546   8.408 -0.6265 -1.0681 -0.0361
  127OSM   H18G13676   4.265   0.578   8.281  0.5840 -0.8336 -1.6310
  127OSM   H18H13677   4.139   0.453   8.248  1.5689  1.0673 -1.5072
  128OSM      N13678   0.037   4.069   6.453 -0.4751  0.0640 -0.0804
  128OSM    C1513679   0.006   3.972   6.558 -0.6091  0.6373  0.2136
  128OSM   H15A13680  -0.049   4.009   6.644 -1.2918 -0.5712  0.3235
  128OSM   H15B13681   0.104   3.934   6.584  1.5445  2.8322 -3.8616
  128OSM   H15C13682  -0.044   3.888   6.511  0.2169  1.6285 -2.6071
  128OSM    C1413683   0.087   4.195   6.512 -0.1873 -0.0958 -0.2827
  128OSM   H14A13684   0.006   4.246   6.562  1.2985  2.2690 -0.1282
  128OSM   H14B13685   0.124   4.263   6.438 -1.1101 -1.4770 -2.0933
  128OSM   H14C13686   0.161   4.163   6.583 -0.6985 -0.9255 -0.1014
  128OSM    C1313687   0.136   4.004   6.365 -0.4565  0.5945  0.8695
  128OSM   H13A13688   0.232   4.003   6.415  1.0133 -0.0660 -1.7279
  128OSM   H13B13689   0.142   4.058   6.271 -1.5527  0.2785  0.5993
  128OSM   H13C13690   0.102   3.908   6.330  0.2800  0.7669 -0.3993
  128OSM    C1213691  -0.090   4.097   6.373  0.1854  0.0554  0.9893
  128OSM   H12A13692  -0.168   4.127   6.441 -1.9936  0.1582 -1.4004
  128OSM   H12B13693  -0.118   4.007   6.321  0.1855  1.4753 -1.6480
  128OSM    C1113694  -0.086   4.209   6.270  0.8647  0.0330  1.1606
  128OSM   H11A13695  -0.024   4.182   6.182 -1.3976 -0.0833 -0.4835
  128OSM   H11B13696  -0.044   4.307   6.302 -0.3300  1.7233 -1.9131
  128OSM      P13697  -0.293   4.347   6.155 -0.2950 -0.1967  0.2623
  128OSM    O1313698  -0.221   4.386   6.031 -0.8065 -0.3639 -0.8580
  128OSM    O1413699  -0.438   4.314   6.154  0.0163  1.1841  0.7178
  128OSM    O1113700  -0.269   4.456   6.261 -0.6831 -0.0436 -0.3008
  128OSM    O1213701  -0.224   4.215   6.219 -0.0362 -0.3594 -0.9488
  128OSM    C1S13702  -0.322   4.419   6.392 -0.2285 -0.2774 -0.4292
  128OSM    H1S13703  -0.291   4.316   6.421  2.8549  1.2450  2.4314
  128OSM    H1T13704  -0.432   4.408   6.397 -0.0667 -1.8454  0.5336
  128OSM     NF13705  -0.304   4.467   6.638  0.3525  0.1298  0.0616
  128OSM    HNF13706  -0.374   4.513   6.693 -0.9015 -0.5085 -0.9429
  128OSM    C2S13707  -0.284   4.518   6.501 -0.3773 -0.0395 -0.6116
  128OSM    H2S13708  -0.173   4.525   6.495 -0.1286 -1.6163  1.2012
  128OSM    C3S13709  -0.343   4.657   6.467 -0.3275  0.1430 -0.5497
  128OSM    H3S13710  -0.453   4.646   6.478 -0.5973  0.7439 -2.2838
  128OSM     O313711  -0.324   4.705   6.334  0.3533 -0.4988 -0.0677
  128OSM    HO313712  -0.287   4.625   6.296  1.6311  1.3347 -3.0146
  128OSM    C4S13713  -0.279   4.754   6.565 -0.3031 -0.3336  0.4825
  128OSM    H4S13714  -0.354   4.771   6.644 -0.3579  1.6303  0.0528
  128OSM    C5S13715  -0.177   4.839   6.547 -0.0044 -0.8312  0.4662
  128OSM    H5S13716  -0.126   4.841   6.449  0.0101  1.0543  0.4616
  128OSM    C6S13717  -0.145   4.953   6.642 -0.2192  0.1169 -0.2696
  128OSM    H6S13718  -0.203   4.939   6.736  0.7986 -1.0927  0.2287
  128OSM    H6T13719  -0.182   5.046   6.596  0.0226  0.2126 -0.2733
  128OSM    C7S13720   0.007   4.964   6.659 -0.6196 -0.1704 -0.8192
  128OSM    H7S13721   0.027   5.054   6.720 -0.1617 -1.5834  1.2208
  128OSM    H7T13722   0.046   4.973   6.555  1.8730  0.2367  0.0924
  128OSM    C8S13723   0.085   4.859   6.727  0.0119  0.5669 -0.2563
  128OSM    H8S13724   0.195   4.877   6.722  0.4068 -1.5367  0.0008
  128OSM    H8T13725   0.069   4.771   6.660 -1.6461 -0.3759  1.2925
  128OSM    C9S13726   0.034   4.818   6.862 -0.6642 -0.3236 -0.1469
  128OSM    H9S13727  -0.064   4.770   6.839 -0.4130 -2.1927  2.3457
  128OSM    H9T13728   0.017   4.899   6.936  1.6034  2.0858 -2.0733
  128OSM   C10S13729   0.129   4.713   6.926 -0.2916 -0.4473  0.1910
  128OSM   H10S13730   0.230   4.759   6.928 -0.0532 -0.9595  0.4142
  128OSM   H10T13731   0.141   4.633   6.850 -0.3449 -1.0330  0.7826
  128OSM   C11S13732   0.082   4.666   7.067 -0.5927  0.5613 -0.6444
  128OSM   H11S13733   0.024   4.753   7.105  1.5028  1.5522  0.4527
  128OSM   H11T13734   0.173   4.649   7.129 -0.4871  0.0569 -0.9314
  128OSM   C12S13735   0.004   4.533   7.053 -0.2036 -1.2178 -0.1260
  128OSM   H12S13736   0.069   4.448   7.024  0.9267 -0.3230 -0.2845
  128OSM   H12T13737  -0.074   4.546   6.975 -1.2807  1.8640  1.3179
  128OSM   C13S13738  -0.076   4.489   7.181 -0.2921  0.1702  0.8290
  128OSM   H13S13739  -0.107   4.383   7.170  0.2924  0.1987 -1.6471
  128OSM   H13T13740  -0.168   4.552   7.182 -0.4795 -0.1034  1.1408
  128OSM   C14S13741  -0.011   4.503   7.327  0.4017  0.0222  0.5733
  128OSM   H14S13742   0.013   4.611   7.334  0.1655  0.3999 -2.6414
  128OSM   H14T13743   0.083   4.444   7.330  0.6657  0.2968 -1.2944
  128OSM   C15S13744  -0.101   4.448   7.444  0.0602  0.2070 -0.8507
  128OSM   H15S13745  -0.122   4.339   7.437 -1.9197  0.4441  0.4341
  128OSM   H15T13746  -0.199   4.497   7.424 -0.6391  0.0760  1.8518
  128OSM   C16S13747  -0.062   4.489   7.586 -0.2603  0.1956 -0.3993
  128OSM   H16S13748   0.042   4.456   7.611 -1.0890 -1.2002  1.4318
  128OSM   H16T13749  -0.110   4.423   7.661  4.1728 -1.2088  1.5825
  128OSM   C17S13750  -0.083   4.634   7.617  0.4947  0.2640 -0.3631
  128OSM   H17S13751  -0.190   4.660   7.608  0.7444  1.2211 -0.7813
  128OSM   H17T13752  -0.024   4.697   7.546 -0.5805  3.9838  1.7390
  128OSM   C18S13753  -0.026   4.678   7.754 -0.4351 -0.0006  0.1999
  128OSM   H18S13754  -0.034   4.788   7.765  1.2311 -0.0361  2.4282
  128OSM   H18T13755   0.080   4.645   7.755 -1.2100 -2.6659  0.9554
  128OSM   H18U13756  -0.063   4.620   7.840 -1.2391 -0.1231 -0.2212
  128OSM    C1F13757  -0.238   4.364   6.679  0.2037  0.7210 -0.3333
  128OSM     OF13758  -0.159   4.308   6.606 -0.1202  0.4372 -0.0090
  128OSM    C2F13759  -0.270   4.312   6.823  0.1621  0.5552  0.9659
  128OSM    H2F13760  -0.361   4.248   6.814  0.9034 -0.7260  2.0900
  128OSM    H2G13761  -0.287   4.402   6.885 -0.8171 -0.3133  1.9946
  128OSM    C3F13762  -0.164   4.223   6.894  0.2685  0.0611  0.3104
  128OSM    H3F13763  -0.097   4.289   6.953  0.3932  1.4461 -1.2980
  128OSM    H3G13764  -0.119   4.157   6.817  0.8801 -0.7834  1.3771
  128OSM    C4F13765  -0.227   4.145   7.015  0.0474 -0.3997  0.7089
  128OSM    H4F13766  -0.334   4.122   6.994  0.3270 -1.8244  0.7052
  128OSM    H4G13767  -0.238   4.217   7.099  1.7337  1.0529 -0.2449
  128OSM    C5F13768  -0.162   4.007   7.056 -0.5162  0.1395  0.1052
  128OSM    H5F13769  -0.051   4.016   7.048 -0.3151 -2.8437 -2.5203
  128OSM    H5G13770  -0.186   3.935   6.975  1.3282 -0.1363 -0.2598
  128OSM    C6F13771  -0.219   3.954   7.185 -0.0488 -0.0906 -0.0383
  128OSM    H6F13772  -0.183   3.853   7.212  2.5104  0.9272  0.7231
  128OSM    H6G13773  -0.326   3.927   7.175 -0.6730  1.5845  1.5672
  128OSM    C7F13774  -0.191   4.046   7.311 -0.0469 -0.2922  1.2145
  128OSM    H7F13775  -0.268   4.126   7.310  1.0746  0.8264  0.1122
  128OSM    H7G13776  -0.085   4.075   7.292 -0.5432 -0.0128 -1.7002
  128OSM    C8F13777  -0.199   3.972   7.444  0.4989  0.3910 -0.1122
  128OSM    H8F13778  -0.126   3.888   7.451  1.2619  1.0968  0.7519
  128OSM    H8G13779  -0.307   3.951   7.456  0.2474  1.8390  0.3248
  128OSM    C9F13780  -0.147   4.060   7.558 -0.0465  0.2673  0.8755
  128OSM    H9F13781  -0.063   4.127   7.534  0.2098 -0.4274 -0.2824
  128OSM   C10F13782  -0.196   4.070   7.682  0.0867 -0.0965  0.0539
  128OSM   H10F13783  -0.146   4.143   7.747  0.7820  0.6860 -1.3097
  128OSM   C11F13784  -0.321   4.001   7.735 -0.1880 -0.6902 -0.6407
  128OSM   H11F13785  -0.393   3.967   7.658 -0.6587  0.3147 -0.6546
  128OSM   H11G13786  -0.376   4.077   7.795  0.4390 -0.5268 -0.2597
  128OSM   C12F13787  -0.291   3.883   7.833  0.1707 -0.3099 -0.3619
  128OSM   H12F13788  -0.225   3.926   7.910 -2.7302 -0.6672  2.5438
  128OSM   H12G13789  -0.245   3.808   7.765  0.4893 -1.0982  0.7054
  128OSM   C13F13790  -0.417   3.826   7.902 -0.1311 -0.4612 -0.4313
  128OSM   H13F13791  -0.382   3.729   7.943 -0.9932 -0.5373  0.1239
  128OSM   H13G13792  -0.503   3.807   7.835  1.2640 -1.3533 -2.0629
  128OSM   C14F13793  -0.458   3.923   8.014  1.2672 -0.1532 -0.1684
  128OSM   H14F13794  -0.500   4.018   7.975 -1.9638 -0.7255  1.5672
  128OSM   H14G13795  -0.372   3.945   8.080 -0.6865  2.0185  1.8236
  128OSM   C15F13796  -0.574   3.857   8.094  0.1943 -0.2098  0.3410
  128OSM   H15F13797  -0.526   3.757   8.096  3.0027  0.9596 -1.5395
  128OSM   H15G13798  -0.660   3.846   8.024  0.6114 -1.8846  0.0250
  128OSM   C16F13799  -0.606   3.917   8.234 -0.2295  0.2896 -0.0864
  128OSM   H16F13800  -0.512   3.942   8.288  1.1648  0.8801 -2.6492
  128OSM   H16G13801  -0.681   3.853   8.286  1.3494 -2.4946 -1.0306
  128OSM   C17F13802  -0.671   4.052   8.221 -0.2234  0.3345 -0.0807
  128OSM   H17F13803  -0.753   4.054   8.146 -0.1783  0.7241 -0.1231
  128OSM   H17G13804  -0.590   4.116   8.181  1.0306 -0.8618  0.4627
  128OSM   C18F13805  -0.721   4.111   8.357  0.4467  0.0043  0.2930
  128OSM   H18F13806  -0.642   4.119   8.435  0.4425  2.9424  0.0980
  128OSM   H18G13807  -0.812   4.055   8.388  0.7220  0.2243  1.5372
  128OSM   H18H13808  -0.758   4.215   8.347  2.2776  0.9111  2.2154
  129OSM      N13809   3.420   0.407   5.942 -0.2564  0.5148  0.1854
  129OSM    C1513810   3.342   0.318   6.021 -0.3153  0.7118 -0.4555
  129OSM   H15A13811   3.388   0.319   6.118 -1.1955  1.2354 -0.0313
  129OSM   H15B13812   3.351   0.220   5.975  0.3009  0.7073 -0.3243
  129OSM   H15C13813   3.236   0.341   6.027  0.0523  2.5069 -0.3125
  129OSM    C1413814   3.374   0.378   5.798  0.4892 -0.6287  0.6443
  129OSM   H14A13815   3.434   0.416   5.716  1.2761  0.8456  1.8516
  129OSM   H14B13816   3.271   0.405   5.780  0.6503  0.3576  1.1444
  129OSM   H14C13817   3.366   0.271   5.788 -0.7306 -0.6654  1.7768
  129OSM    C1313818   3.398   0.548   5.977  0.4040  0.3218 -0.3218
  129OSM   H13A13819   3.424   0.560   6.081  1.1015 -0.3281 -0.4106
  129OSM   H13B13820   3.292   0.570   5.971  0.1748 -0.7804 -0.6127
  129OSM   H13C13821   3.446   0.619   5.911  0.1938 -2.9993 -4.4995
  129OSM    C1213822   3.570   0.370   5.958 -0.6735  0.2018  0.1733
  129OSM   H12A13823   3.623   0.445   5.902  0.2385 -0.8510 -0.3980
  129OSM   H12B13824   3.592   0.270   5.925 -1.9684 -0.1757  0.3920
  129OSM    C1113825   3.636   0.385   6.101 -0.1684  1.0414 -0.9633
  129OSM   H11A13826   3.613   0.487   6.138  0.2870  0.1182  2.1386
  129OSM   H11B13827   3.747   0.388   6.091  0.1993 -3.0646  0.1668
  129OSM      P13828   3.657   0.152   6.215  0.2783  0.4205 -0.1879
  129OSM    O1313829   3.574   0.082   6.315 -0.3445 -0.3086 -0.4110
  129OSM    O1413830   3.667   0.086   6.081 -0.7592 -0.0994 -0.7366
  129OSM    O1113831   3.797   0.176   6.280  0.1423 -0.7100 -0.4772
  129OSM    O1213832   3.591   0.292   6.195 -0.1165  0.0713 -0.1443
  129OSM    C1S13833   3.816   0.275   6.384  0.3040  0.1818  0.2593
  129OSM    H1S13834   3.751   0.364   6.370 -1.3550 -0.9455  0.4260
  129OSM    H1T13835   3.922   0.307   6.379 -0.3413  2.3177 -1.1926
  129OSM     NF13836   3.793   0.330   6.618  0.4399  0.0429  0.4636
  129OSM    HNF13837   3.881   0.339   6.665 -0.5739  0.6906  2.3470
  129OSM    C2S13838   3.786   0.215   6.523  0.1620 -0.2240 -0.7508
  129OSM    H2S13839   3.682   0.176   6.513 -0.9892  1.9073  1.8571
  129OSM    C3S13840   3.883   0.095   6.552  0.7853 -0.0005 -0.1167
  129OSM    H3S13841   3.984   0.132   6.581  0.1666  2.2529 -0.6763
  129OSM     O313842   3.906   0.016   6.435 -0.0837 -0.5641  0.5061
  129OSM    HO313843   3.904   0.086   6.369  1.1610 -0.3531  0.6770
  129OSM    C4S13844   3.825  -0.002   6.650 -0.1285  0.3640  0.2396
  129OSM    H4S13845   3.774  -0.083   6.597  1.6879 -1.2166  0.8029
  129OSM    C5S13846   3.860   0.001   6.783  0.2802  0.3652  0.4087
  129OSM    H5S13847   3.925   0.079   6.825  0.1960  0.1123  1.0173
  129OSM    C6S13848   3.809  -0.088   6.888 -0.1108  0.8397 -0.7923
  129OSM    H6S13849   3.841  -0.192   6.867 -0.4449  0.4807  0.3926
  129OSM    H6T13850   3.698  -0.094   6.886 -0.4815  4.6916  0.3159
  129OSM    C7S13851   3.861  -0.071   7.032 -0.0778 -1.4469 -0.6107
  129OSM    H7S13852   3.829   0.027   7.073  0.4812 -0.1814 -3.0111
  129OSM    H7T13853   3.972  -0.062   7.026 -0.0756 -1.0746 -0.0276
  129OSM    C8S13854   3.815  -0.165   7.143  0.3358  0.3451  0.8469
  129OSM    H8S13855   3.827  -0.269   7.107 -2.2316  0.3072 -0.0882
  129OSM    H8T13856   3.705  -0.154   7.154 -0.1243 -0.8586 -1.7779
  129OSM    C9S13857   3.881  -0.127   7.271 -0.4793 -0.2681 -0.0968
  129OSM    H9S13858   3.891  -0.018   7.288 -0.3163  0.4902 -4.1235
  129OSM    H9T13859   3.983  -0.171   7.265 -1.4388 -2.5942 -0.3359
  129OSM   C10S13860   3.818  -0.170   7.407  0.2398 -0.3705  0.1394
  129OSM   H10S13861   3.795  -0.278   7.396  0.2705 -0.2637 -1.2400
  129OSM   H10T13862   3.721  -0.117   7.404 -0.2831 -1.3372 -1.5350
  129OSM   C11S13863   3.897  -0.135   7.527  0.2688  0.1791 -0.6043
  129OSM   H11S13864   3.939  -0.032   7.516 -0.4623  0.7348  1.3960
  129OSM   H11T13865   3.983  -0.204   7.541  0.3173  0.6255  1.6204
  129OSM   C12S13866   3.805  -0.133   7.647  0.9523 -0.9334 -0.1916
  129OSM   H12S13867   3.715  -0.069   7.635  0.0351 -1.6857  1.9935
  129OSM   H12T13868   3.863  -0.092   7.733 -0.8354 -0.9991  1.1106
  129OSM   C13S13869   3.759  -0.280   7.686  0.0225 -0.1159  0.3966
  129OSM   H13S13870   3.851  -0.339   7.710  1.2425  2.3319  2.1706
  129OSM   H13T13871   3.711  -0.334   7.602 -0.0871  1.8356 -0.8348
  129OSM   C14S13872   3.677  -0.271   7.815  0.4577  0.7220  0.0812
  129OSM   H14S13873   3.639  -0.373   7.840  1.7750  0.2900  0.4107
  129OSM   H14T13874   3.590  -0.202   7.817  0.1048  0.2684  1.0853
  129OSM   C15S13875   3.767  -0.240   7.936  0.0438 -0.1280  0.0566
  129OSM   H15S13876   3.804  -0.135   7.943  1.1828 -0.5498  0.6064
  129OSM   H15T13877   3.857  -0.305   7.939 -1.6632 -2.6018  0.2476
  129OSM   C16S13878   3.697  -0.281   8.067  0.0342 -0.1505 -0.3915
  129OSM   H16S13879   3.765  -0.257   8.152 -1.9469  0.1311  1.2057
  129OSM   H16T13880   3.668  -0.388   8.071 -1.5535  0.2264  3.6132
  129OSM   C17S13881   3.580  -0.188   8.105 -1.1075 -0.3222  0.4006
  129OSM   H17S13882   3.505  -0.215   8.029 -0.4422  2.9152 -1.5983
  129OSM   H17T13883   3.607  -0.081   8.091  0.6141 -0.8051 -0.2448
  129OSM   C18S13884   3.543  -0.207   8.252  0.6654  0.7189 -0.7692
  129OSM   H18S13885   3.478  -0.122   8.282 -1.3594 -0.7429 -0.7808
  129OSM   H18T13886   3.627  -0.205   8.325 -1.6500  0.5204  2.1011
  129OSM   H18U13887   3.484  -0.301   8.266  0.8627  0.4768 -1.4922
  129OSM    C1F13888   3.690   0.409   6.646 -0.4669  0.2979  0.0564
  129OSM     OF13889   3.601   0.430   6.560  0.4025  0.2315  0.0855
  129OSM    C2F13890   3.688   0.468   6.782  0.0924  0.1163  0.0524
  129OSM    H2F13891   3.585   0.509   6.788  0.6269  1.4568  0.4647
  129OSM    H2G13892   3.756   0.556   6.789 -0.6043  0.6109  0.7959
  129OSM    C3F13893   3.702   0.363   6.898  0.3718 -0.0353 -0.6852
  129OSM    H3F13894   3.803   0.317   6.893  1.0310  1.0781  1.2845
  129OSM    H3G13895   3.622   0.288   6.877  0.2970  0.4534 -2.3021
  129OSM    C4F13896   3.673   0.416   7.037 -0.4863  0.2305  0.1786
  129OSM    H4F13897   3.587   0.487   7.045 -0.7638 -0.2627  2.1808
  129OSM    H4G13898   3.751   0.492   7.059 -0.4253  0.3101 -0.3057
  129OSM    C5F13899   3.679   0.307   7.144  0.6363 -0.3105  1.0628
  129OSM    H5F13900   3.782   0.266   7.146  0.8847 -0.1776 -2.4969
  129OSM    H5G13901   3.609   0.222   7.125 -0.7638  1.0172 -0.0269
  129OSM    C6F13902   3.646   0.362   7.280 -0.7259  0.3887  0.1376
  129OSM    H6F13903   3.544   0.405   7.282 -0.0373  2.0411  0.9267
  129OSM    H6G13904   3.717   0.437   7.320 -0.5819  0.4515 -0.2240
  129OSM    C7F13905   3.636   0.241   7.382  0.1384 -0.3258  0.4048
  129OSM    H7F13906   3.729   0.180   7.386  1.1937  1.2399  0.5292
  129OSM    H7G13907   3.556   0.174   7.342  0.3366  0.2864 -1.0816
  129OSM    C8F13908   3.618   0.296   7.526  0.8082 -0.0068  0.3071
  129OSM    H8F13909   3.534   0.368   7.536  0.1278 -0.9877  2.1128
  129OSM    H8G13910   3.703   0.363   7.552 -0.6467  2.2987 -0.5625
  129OSM    C9F13911   3.596   0.190   7.630 -0.2231  0.1638  0.5529
  129OSM    H9F13912   3.526   0.113   7.594 -1.6618  0.7878  1.8960
  129OSM   C10F13913   3.642   0.195   7.760  0.4533 -0.1343 -0.4847
  129OSM   H10F13914   3.637   0.103   7.821  0.3045 -0.2670 -0.6954
  129OSM   C11F13915   3.737   0.299   7.820 -0.1043  0.7653 -0.2068
  129OSM   H11F13916   3.695   0.347   7.911 -0.6663  1.6991 -0.9347
  129OSM   H11G13917   3.766   0.380   7.749  1.3573  0.9356  0.5492
  129OSM   C12F13918   3.858   0.215   7.853 -0.3152 -0.0561  0.1818
  129OSM   H12F13919   3.896   0.161   7.763  1.8178  0.2446  0.8474
  129OSM   H12G13920   3.833   0.139   7.930 -2.1274  1.0570  0.7672
  129OSM   C13F13921   3.976   0.305   7.889  0.0411  0.0164 -0.5349
  129OSM   H13F13922   4.056   0.261   7.952  0.5804  3.6531  1.6420
  129OSM   H13G13923   3.953   0.373   7.975 -0.8136 -0.3550 -0.4514
  129OSM   C14F13924   4.034   0.394   7.774 -0.6892  0.0446  0.3804
  129OSM   H14F13925   4.103   0.472   7.814  1.3232 -1.0457 -0.8032
  129OSM   H14G13926   3.952   0.442   7.717  0.8024  2.5305  0.1599
  129OSM   C15F13927   4.124   0.324   7.672 -0.0370 -0.1520  0.1202
  129OSM   H15F13928   4.073   0.237   7.625  1.4757 -0.9211 -0.1657
  129OSM   H15G13929   4.205   0.282   7.735 -0.0482 -0.3243  0.0216
  129OSM   C16F13930   4.203   0.419   7.581  0.1590  0.3836  0.0204
  129OSM   H16F13931   4.276   0.475   7.643  0.4045 -0.6966  0.7490
  129OSM   H16G13932   4.132   0.492   7.538 -1.1988 -0.6414  0.4727
  129OSM   C17F13933   4.278   0.334   7.470  0.6702 -0.0760  0.3987
  129OSM   H17F13934   4.204   0.260   7.432  1.5055 -0.2555 -0.9532
  129OSM   H17G13935   4.362   0.272   7.509 -1.6632 -2.3795  2.1022
  129OSM   C18F13936   4.319   0.418   7.349 -0.2348  0.0263  0.4358
  129OSM   H18F13937   4.351   0.357   7.261  1.3029  1.6670 -0.1979
  129OSM   H18G13938   4.405   0.481   7.380 -0.6414  0.2042  1.2137
  129OSM   H18H13939   4.240   0.479   7.299  2.0574  0.6974 -2.6414
  130OSM      N13940   0.580   2.393   6.135 -0.4191  0.2859  0.1977
  130OSM    C1513941   0.623   2.253   6.110 -0.0002  0.7944  0.7737
  130OSM   H15A13942   0.731   2.247   6.117 -0.0973  0.8572  3.6645
  130OSM   H15B13943   0.604   2.225   6.008  0.4625 -3.5230  1.6623
  130OSM   H15C13944   0.580   2.177   6.174  0.3051 -0.7520 -0.7887
  130OSM    C1413945   0.643   2.485   6.037 -0.0830  0.3042 -0.4633
  130OSM   H14A13946   0.586   2.491   5.945  1.2361  0.8214 -1.2838
  130OSM   H14B13947   0.743   2.457   6.008 -0.6618 -1.5417 -0.8014
  130OSM   H14C13948   0.639   2.584   6.081 -3.5107 -0.7770  2.1001
  130OSM    C1313949   0.437   2.405   6.119  0.7722 -0.6343  0.1037
  130OSM   H13A13950   0.404   2.507   6.134 -2.2006 -1.4830 -0.0122
  130OSM   H13B13951   0.376   2.348   6.187 -1.2637  1.0661 -0.1966
  130OSM   H13C13952   0.400   2.377   6.022  0.1010 -0.0202  0.1748
  130OSM    C1213953   0.630   2.426   6.277  0.1102  0.6674 -0.1010
  130OSM   H12A13954   0.736   2.444   6.268  0.0287  0.7059 -1.0711
  130OSM   H12B13955   0.611   2.342   6.343 -2.1991  2.2432  1.4056
  130OSM    C1113956   0.568   2.547   6.351  0.1645  0.1945 -0.0043
  130OSM   H11A13957   0.617   2.535   6.450  0.9261 -1.6379 -0.5489
  130OSM   H11B13958   0.458   2.544   6.366  0.0148  1.6970 -0.6586
  130OSM      P13959   0.547   2.809   6.305 -0.0749 -0.0552 -0.1597
  130OSM    O1313960   0.590   2.890   6.193 -0.0158 -0.4679  0.2217
  130OSM    O1413961   0.401   2.802   6.318 -0.2551 -0.6127 -0.2311
  130OSM    O1113962   0.623   2.872   6.436  0.1833  0.9803  0.0856
  130OSM    O1213963   0.608   2.668   6.295  0.6825  0.0156  0.0409
  130OSM    C1S13964   0.558   2.970   6.517  0.1719  0.5930  0.1359
  130OSM    H1S13965   0.483   3.024   6.456 -0.5553 -0.9291 -0.3689
  130OSM    H1T13966   0.639   3.041   6.545  0.8992  0.9839 -2.7118
  130OSM     NF13967   0.451   3.030   6.723  0.2196  0.2409 -0.0513
  130OSM    HNF13968   0.513   3.103   6.751  1.0407 -0.3085 -0.4021
  130OSM    C2S13969   0.515   2.918   6.658 -0.8377  0.3604  0.3351
  130OSM    H2S13970   0.436   2.841   6.651 -1.7616  1.1766  1.2495
  130OSM    C3S13971   0.643   2.863   6.737 -0.9987  0.6458  0.6992
  130OSM    H3S13972   0.709   2.952   6.743  0.2134 -0.2661  1.2929
  130OSM     O313973   0.714   2.762   6.665  0.1275  0.2020  0.1795
  130OSM    HO313974   0.667   2.774   6.583 -0.6337 -0.9545  0.4180
  130OSM    C4S13975   0.605   2.812   6.872  0.1281  0.0072 -0.1828
  130OSM    H4S13976   0.551   2.716   6.866  2.0239 -1.1781  0.5290
  130OSM    C5S13977   0.616   2.868   6.993 -0.1333  0.6845  0.4175
  130OSM    H5S13978   0.652   2.971   7.008  0.4432  0.2802  2.0478
  130OSM    C6S13979   0.562   2.802   7.114  0.5623 -0.5900 -0.1681
  130OSM    H6S13980   0.645   2.775   7.183 -0.4290 -1.1882  0.8391
  130OSM    H6T13981   0.513   2.706   7.085  1.3044 -0.8931 -0.4407
  130OSM    C7S13982   0.455   2.885   7.179 -0.2874 -0.4894 -0.1472
  130OSM    H7S13983   0.365   2.900   7.116  0.1456 -2.2252 -1.2377
  130OSM    H7T13984   0.505   2.979   7.209 -2.2971  0.9770 -1.1861
  130OSM    C8S13985   0.408   2.821   7.316 -0.6119 -0.2391 -0.0530
  130OSM    H8S13986   0.407   2.712   7.295 -0.7749 -0.3409  0.4624
  130OSM    H8T13987   0.309   2.859   7.349 -0.5718  0.0230 -0.2276
  130OSM    C9S13988   0.500   2.858   7.436  0.3678  0.3143 -0.1949
  130OSM    H9S13989   0.500   2.968   7.450  0.0470  0.0031  2.8804
  130OSM    H9T13990   0.598   2.825   7.395  0.3197 -1.2991  0.9046
  130OSM   C10S13991   0.472   2.801   7.574 -0.2433  0.6451  0.0541
  130OSM   H10S13992   0.481   2.690   7.563  1.2412  0.9046 -1.8089
  130OSM   H10T13993   0.366   2.819   7.600 -0.6569 -1.7050  0.2251
  130OSM   C11S13994   0.557   2.857   7.683  0.3199  0.0691  0.3920
  130OSM   H11S13995   0.555   2.967   7.699 -1.0090  0.0857  0.2576
  130OSM   H11T13996   0.664   2.834   7.667  0.4742  1.3393 -0.5487
  130OSM   C12S13997   0.525   2.787   7.816 -0.0307 -0.2136 -0.3633
  130OSM   H12S13998   0.559   2.681   7.812 -0.2620 -0.3280  0.4878
  130OSM   H12T13999   0.417   2.783   7.843 -0.4417  0.5236 -1.7815
  130OSM   C13S14000   0.618   2.847   7.925 -0.1805 -0.5619 -0.2231
  130OSM   H13S14001   0.601   2.956   7.943 -0.9341 -0.7583  0.3101
  130OSM   H13T14002   0.724   2.831   7.897  0.2871  0.4579  0.9029
  130OSM   C14S14003   0.597   2.771   8.066 -0.6479 -0.4270 -0.0256
  130OSM   H14S14004   0.684   2.787   8.134  1.2608  0.1110 -2.4249
  130OSM   H14T14005   0.591   2.662   8.045 -0.5891 -0.1733 -1.4218
  130OSM   C15S14006   0.462   2.813   8.124 -0.0988 -0.6271  0.5279
  130OSM   H15S14007   0.386   2.805   8.044  1.1449  0.4142 -0.7979
  130OSM   H15T14008   0.469   2.923   8.140  1.2664 -0.1882 -2.4468
  130OSM   C16S14009   0.429   2.744   8.262  0.2363  0.7538 -0.0791
  130OSM   H16S14010   0.341   2.791   8.311  0.0661 -1.8558  2.3957
  130OSM   H16T14011   0.510   2.765   8.335 -0.6851  1.3792  0.7992
  130OSM   C17S14012   0.415   2.589   8.254 -0.3900 -0.3257 -0.5430
  130OSM   H17S14013   0.504   2.547   8.203 -1.3035 -0.8945 -1.7186
  130OSM   H17T14014   0.330   2.568   8.186  1.1735 -1.2622 -2.2792
  130OSM   C18S14015   0.385   2.523   8.388  0.2034 -0.3151 -0.4133
  130OSM   H18S14016   0.479   2.519   8.447  0.2060 -3.8229 -0.4343
  130OSM   H18T14017   0.360   2.416   8.371  0.3371 -0.7547  1.8675
  130OSM   H18U14018   0.310   2.581   8.445  3.0689  1.6033  1.7106
  130OSM    C1F14019   0.323   3.069   6.695  0.0738  1.1440  0.5702
  130OSM     OF14020   0.249   3.007   6.615 -0.4329 -0.3760 -0.3947
  130OSM    C2F14021   0.272   3.196   6.757  0.6016  1.0744 -0.2138
  130OSM    H2F14022   0.270   3.288   6.695  0.2478  1.4264  0.3078
  130OSM    H2G14023   0.335   3.219   6.847  0.8661 -1.3230  0.2634
  130OSM    C3F14024   0.133   3.174   6.814  0.1303 -0.5504 -1.3385
  130OSM    H3F14025   0.057   3.129   6.746 -0.8658 -0.1238 -0.5385
  130OSM    H3G14026   0.084   3.269   6.844 -1.4135 -1.1047 -2.0046
  130OSM    C4F14027   0.132   3.087   6.946 -0.0022 -0.2091  0.7246
  130OSM    H4F14028   0.218   3.016   6.947  0.6938  0.5078 -1.6864
  130OSM    H4G14029   0.044   3.020   6.936 -0.0227  0.0839 -1.5215
  130OSM    C5F14030   0.107   3.161   7.081  0.8344 -0.1969  0.6228
  130OSM    H5F14031   0.018   3.225   7.064  0.2621 -0.9792  0.5980
  130OSM    H5G14032   0.193   3.232   7.089  0.6391  0.0749  0.2949
  130OSM    C6F14033   0.091   3.073   7.204  0.0496 -0.1461 -0.3786
  130OSM    H6F14034   0.173   2.997   7.203  0.0759 -0.1783  1.5023
  130OSM    H6G14035  -0.007   3.024   7.187 -0.1711  0.3216 -0.4511
  130OSM    C7F14036   0.079   3.153   7.331 -0.1332  0.2328 -0.1263
  130OSM    H7F14037  -0.006   3.223   7.316  0.1754  0.2996 -1.8519
  130OSM    H7G14038   0.170   3.216   7.346 -0.9972  1.4034  0.3165
  130OSM    C8F14039   0.060   3.064   7.456 -0.1425 -0.2250  0.3991
  130OSM    H8F14040   0.152   3.003   7.459  0.0047 -0.1426 -1.4308
  130OSM    H8G14041  -0.032   3.004   7.442 -0.3959 -0.1644  1.7211
  130OSM    C9F14042   0.054   3.147   7.583  0.0617  0.4382 -0.2359
  130OSM    H9F14043   0.017   3.248   7.564 -1.3406  0.0774  0.4856
  130OSM   C10F14044   0.068   3.100   7.709 -0.7216 -0.0847  0.4050
  130OSM   H10F14045   0.062   3.168   7.795 -0.3063 -1.7054  1.7915
  130OSM   C11F14046   0.100   2.955   7.731 -0.1570  0.3226 -0.3638
  130OSM   H11F14047   0.189   2.932   7.669 -0.5220  0.4012 -0.9287
  130OSM   H11G14048   0.021   2.889   7.688 -0.0720 -1.1408  1.5873
  130OSM   C12F14049   0.124   2.907   7.874 -0.5007 -1.0380 -0.3753
  130OSM   H12F14050   0.195   2.987   7.903  1.3071 -1.2777 -3.6865
  130OSM   H12G14051   0.172   2.807   7.872 -0.8657 -1.2335  0.3601
  130OSM   C13F14052  -0.005   2.896   7.957  1.0077  0.3209 -0.3618
  130OSM   H13F14053  -0.071   2.814   7.920 -0.6041  1.3914  0.0586
  130OSM   H13G14054  -0.060   2.991   7.944  0.6632 -0.0187 -1.4871
  130OSM   C14F14055   0.017   2.875   8.105 -0.0108  0.7340  0.2393
  130OSM   H14F14056   0.043   2.973   8.151  0.2827  0.2974  1.0275
  130OSM   H14G14057   0.100   2.802   8.101 -0.7071 -0.0274 -1.0570
  130OSM   C15F14058  -0.107   2.811   8.178  0.1370  0.9839 -0.0056
  130OSM   H15F14059  -0.071   2.799   8.283 -0.5036  1.9959  0.3443
  130OSM   H15G14060  -0.129   2.710   8.136  1.3699  1.3201 -1.5344
  130OSM   C16F14061  -0.242   2.892   8.167  0.1500  0.2368 -0.0591
  130OSM   H16F14062  -0.322   2.851   8.232  0.2841 -0.7663 -0.5084
  130OSM   H16G14063  -0.279   2.902   8.063  1.4922 -2.1163 -0.8324
  130OSM   C17F14064  -0.235   3.035   8.227 -0.0375  0.0269  0.0163
  130OSM   H17F14065  -0.326   3.095   8.204  0.7411  0.2711 -2.8615
  130OSM   H17G14066  -0.156   3.100   8.185 -0.1661  2.2238  2.8836
  130OSM   C18F14067  -0.213   3.034   8.379 -0.5695  0.4256 -0.0870
  130OSM   H18F14068  -0.123   2.981   8.418 -2.1500 -0.8683  2.0442
  130OSM   H18G14069  -0.297   2.977   8.425 -0.5709 -0.6583 -1.3627
  130OSM   H18H14070  -0.197   3.139   8.413 -0.0886  0.2899  0.1163
  131OSM      N14071   4.974   6.498   5.566  0.1581 -0.7211 -0.1293
  131OSM    C1514072   4.833   6.445   5.547 -0.1339 -0.2741  0.3621
  131OSM   H15A14073   4.772   6.532   5.529 -0.5085 -0.1544  2.1124
  131OSM   H15B14074   4.813   6.397   5.641 -0.1805  1.0460  1.0488
  131OSM   H15C14075   4.831   6.371   5.468  1.9792 -0.7498  0.6909
  131OSM    C1414076   5.069   6.386   5.590 -0.0709 -0.1640 -0.2867
  131OSM   H14A14077   5.038   6.332   5.678  1.7174 -1.2547 -0.2824
  131OSM   H14B14078   5.169   6.416   5.618  0.1243  1.1495 -2.1891
  131OSM   H14C14079   5.074   6.314   5.510 -1.9233 -2.2582  1.3577
  131OSM    C1314080   5.024   6.568   5.444  0.7383  0.0176  0.4129
  131OSM   H13A14081   5.130   6.585   5.457  1.1740 -0.2979 -2.1700
  131OSM   H13B14082   4.984   6.666   5.420  1.1453 -0.4696 -2.6912
  131OSM   H13C14083   5.022   6.504   5.357 -0.4098  0.0313  0.4075
  131OSM    C1214084   4.977   6.603   5.680  0.1808  0.1475  0.4024
  131OSM   H12A14085   4.960   6.703   5.642 -1.0339 -0.0424  0.4031
  131OSM   H12B14086   5.083   6.608   5.701  0.4155  1.5980 -0.9471
  131OSM    C1114087   4.916   6.560   5.812 -0.4992 -0.5886  0.3940
  131OSM   H11A14088   4.805   6.562   5.803 -0.5672 -0.0420  1.2679
  131OSM   H11B14089   4.938   6.642   5.884 -1.3459  1.0214 -1.0927
  131OSM      P14090   5.060   6.407   5.976  0.2708 -0.0415 -0.5791
  131OSM    O1314091   4.993   6.292   6.043  0.4824  0.0871  0.3656
  131OSM    O1414092   5.197   6.393   5.926 -0.0432  0.2365 -0.1699
  131OSM    O1114093   5.053   6.535   6.073  0.1363  0.2073 -0.5574
  131OSM    O1214094   4.966   6.441   5.860 -0.1995  0.3055  0.2283
  131OSM    C1S14095   4.935   6.564   6.149  0.1273  0.1178  0.3646
  131OSM    H1S14096   4.844   6.513   6.109  0.7060 -0.6395 -0.0050
  131OSM    H1T14097   4.922   6.674   6.145  0.3226  0.1175 -0.4384
  131OSM     NF14098   4.827   6.534   6.372 -0.9772  0.3001  0.3454
  131OSM    HNF14099   4.836   6.617   6.427  1.0609  0.1617  0.3171
  131OSM    C2S14100   4.949   6.513   6.295 -0.7587 -0.1851  0.5013
  131OSM    H2S14101   4.958   6.403   6.298 -0.0255 -0.1287  3.0549
  131OSM    C3S14102   5.077   6.566   6.359  0.3479  0.0704  0.0993
  131OSM    H3S14103   5.075   6.676   6.347  0.3895 -0.0150 -0.7929
  131OSM     O314104   5.201   6.528   6.303 -0.1263  0.0316 -0.1493
  131OSM    HO314105   5.176   6.508   6.212 -2.5146  2.0167 -0.0233
  131OSM    C4S14106   5.082   6.528   6.503  0.0517 -0.5752  0.2909
  131OSM    H4S14107   5.063   6.424   6.533  0.2265 -0.3406  1.2304
  131OSM    C5S14108   5.110   6.614   6.598 -0.0162  0.6181 -0.4277
  131OSM    H5S14109   5.121   6.722   6.575  2.9620  0.7030  0.9520
  131OSM    C6S14110   5.115   6.583   6.748 -0.6215  0.7077 -0.1480
  131OSM    H6S14111   5.022   6.624   6.793 -1.6814 -2.6633  1.0345
  131OSM    H6T14112   5.199   6.641   6.793 -0.3987 -0.2262  0.6635
  131OSM    C7S14113   5.137   6.437   6.784  0.1673  0.5323 -0.0331
  131OSM    H7S14114   5.224   6.389   6.735  0.2070 -1.1755  1.6146
  131OSM    H7T14115   5.040   6.393   6.753  0.6086 -0.4705 -0.0070
  131OSM    C8S14116   5.147   6.422   6.937  0.2145  0.8174 -0.1276
  131OSM    H8S14117   5.060   6.477   6.981 -0.7167 -0.1826 -0.6588
  131OSM    H8T14118   5.244   6.465   6.969  0.2216  0.5578  0.2046
  131OSM    C9S14119   5.125   6.278   6.995 -0.4212 -0.6074  0.2471
  131OSM    H9S14120   5.196   6.202   6.957  2.0029  0.1667  2.8988
  131OSM    H9T14121   5.017   6.260   6.972 -1.0625  1.4845  1.3457
  131OSM   C10S14122   5.127   6.288   7.148  0.2976 -0.1626  0.1304
  131OSM   H10S14123   5.034   6.341   7.176 -0.7576 -0.9240 -1.7305
  131OSM   H10T14124   5.203   6.362   7.183 -1.4118  2.0166 -0.5287
  131OSM   C11S14125   5.132   6.156   7.222 -0.3384  0.2411  1.4178
  131OSM   H11S14126   5.235   6.115   7.210 -0.2467  0.5670  1.0565
  131OSM   H11T14127   5.068   6.084   7.166 -1.0317  0.3534  2.0547
  131OSM   C12S14128   5.074   6.139   7.360 -0.3043  0.0791  0.4342
  131OSM   H12S14129   5.021   6.042   7.369  0.7095 -0.5856 -0.4900
  131OSM   H12T14130   4.992   6.214   7.372  0.6452  1.1446  0.4413
  131OSM   C13S14131   5.165   6.156   7.482  0.2060  0.3665 -0.3240
  131OSM   H13S14132   5.091   6.178   7.563  0.2588  0.4248 -0.2909
  131OSM   H13T14133   5.235   6.241   7.466  1.1145 -0.6191 -1.7253
  131OSM   C14S14134   5.245   6.035   7.522  0.0560 -0.0863 -0.3281
  131OSM   H14S14135   5.337   6.077   7.568  0.2302  0.1965 -0.9156
  131OSM   H14T14136   5.286   5.990   7.429 -1.3500  2.0760 -2.0932
  131OSM   C15S14137   5.180   5.928   7.611 -0.4894 -0.2095 -0.1004
  131OSM   H15S14138   5.129   5.853   7.547 -1.5377  0.7073 -0.3693
  131OSM   H15T14139   5.104   5.979   7.673 -0.2070 -0.7633  0.7087
  131OSM   C16S14140   5.267   5.870   7.723  0.0958  0.0023 -0.3563
  131OSM   H16S14141   5.347   5.942   7.753  1.1543 -1.5311  0.6534
  131OSM   H16T14142   5.311   5.778   7.679  0.2888 -1.4191  2.5259
  131OSM   C17S14143   5.184   5.839   7.850 -0.1337  0.0711 -0.1067
  131OSM   H17S14144   5.080   5.823   7.815  0.6985  0.5526 -3.0836
  131OSM   H17T14145   5.178   5.929   7.915 -0.0075  1.9698 -2.5282
  131OSM   C18S14146   5.230   5.720   7.929 -0.4617 -0.8995  0.4563
  131OSM   H18S14147   5.252   5.631   7.866 -0.9302  0.3157 -1.5001
  131OSM   H18T14148   5.151   5.676   7.994 -1.7293 -0.5548 -0.8054
  131OSM   H18U14149   5.322   5.751   7.982 -0.4004  0.5888 -0.4813
  131OSM    C1F14150   4.716   6.464   6.355 -0.6665 -0.1772 -0.1758
  131OSM     OF14151   4.698   6.375   6.269 -0.0171  0.4546  0.3059
  131OSM    C2F14152   4.602   6.500   6.445  0.7532 -0.5316 -0.5482
  131OSM    H2F14153   4.517   6.533   6.382 -0.9151  0.5520  2.0939
  131OSM    H2G14154   4.629   6.587   6.509 -1.5073  0.0479 -0.2675
  131OSM    C3F14155   4.560   6.376   6.528  0.1829 -0.4841 -0.1535
  131OSM    H3F14156   4.563   6.287   6.462  0.1699 -0.1387 -0.6276
  131OSM    H3G14157   4.462   6.404   6.571  0.3206 -1.5193  0.8828
  131OSM    C4F14158   4.651   6.366   6.654 -0.1916  0.8058  0.1484
  131OSM    H4F14159   4.648   6.458   6.716  0.3275  1.5068 -0.8361
  131OSM    H4G14160   4.756   6.343   6.627  0.1987  3.4419 -0.8114
  131OSM    C5F14161   4.594   6.254   6.745  0.0379  0.7560  0.3279
  131OSM    H5F14162   4.579   6.166   6.678 -1.0325 -1.1671  2.9264
  131OSM    H5G14163   4.495   6.290   6.778 -0.5435 -0.2629 -0.2474
  131OSM    C6F14164   4.697   6.199   6.842 -0.8077  0.4515  0.1399
  131OSM    H6F14165   4.782   6.154   6.786 -0.4323 -1.3953  2.0656
  131OSM    H6G14166   4.648   6.112   6.891  0.6481 -0.8294 -0.5980
  131OSM    C7F14167   4.756   6.304   6.943  0.4162  0.1671  0.7352
  131OSM    H7F14168   4.819   6.373   6.881 -0.8599  0.2224 -0.5489
  131OSM    H7G14169   4.818   6.254   7.020  0.5516 -4.1460 -1.8442
  131OSM    C8F14170   4.652   6.388   7.022 -0.0210  0.2478  0.3786
  131OSM    H8F14171   4.574   6.430   6.954 -1.3040 -3.5255 -0.7416
  131OSM    H8G14172   4.704   6.473   7.070  2.0907 -2.6775  3.7191
  131OSM    C9F14173   4.564   6.323   7.126 -0.2673  0.3365 -0.1190
  131OSM    H9F14174   4.481   6.264   7.085  1.8656 -1.5641 -2.0373
  131OSM   C10F14175   4.592   6.308   7.257  0.0983 -0.7356 -0.0349
  131OSM   H10F14176   4.510   6.269   7.319 -1.1519 -2.5735 -2.6339
  131OSM   C11F14177   4.715   6.357   7.325 -0.7436  0.0744  0.8425
  131OSM   H11F14178   4.786   6.414   7.262 -0.7902 -0.1441  0.5930
  131OSM   H11G14179   4.774   6.272   7.366 -0.9963 -0.9382 -0.8348
  131OSM   C12F14180   4.672   6.451   7.445 -0.0632 -0.5636  0.0928
  131OSM   H12F14181   4.609   6.538   7.419  1.1328  1.2704  2.8759
  131OSM   H12G14182   4.765   6.497   7.483 -0.5195 -0.1807  0.7709
  131OSM   C13F14183   4.603   6.370   7.555  0.1946  0.8274  0.3490
  131OSM   H13F14184   4.643   6.267   7.565 -0.3073  0.7516  1.9917
  131OSM   H13G14185   4.496   6.363   7.526  0.1631  1.0115  0.4170
  131OSM   C14F14186   4.608   6.422   7.705  0.9630 -0.4395 -0.0763
  131OSM   H14F14187   4.569   6.519   7.742 -2.8467 -1.3818 -1.1636
  131OSM   H14G14188   4.717   6.441   7.714  0.4567  2.2212  1.3368
  131OSM   C15F14189   4.572   6.301   7.796  0.1709 -0.5918  0.2507
  131OSM   H15F14190   4.607   6.204   7.754  0.4214  0.1605 -1.3398
  131OSM   H15G14191   4.462   6.297   7.781  0.1965  1.3360 -0.7062
  131OSM   C16F14192   4.596   6.322   7.953 -0.1814 -1.1565  0.4095
  131OSM   H16F14193   4.544   6.413   7.988  2.2792  0.1586  0.9088
  131OSM   H16G14194   4.706   6.321   7.967 -0.0762 -2.4965 -0.2902
  131OSM   C17F14195   4.557   6.196   8.034  0.1036  0.3920 -0.1472
  131OSM   H17F14196   4.581   6.189   8.142 -3.6513  1.4812  0.8997
  131OSM   H17G14197   4.618   6.115   7.988  1.0100  0.8377  0.2610
  131OSM   C18F14198   4.410   6.158   8.023 -0.0472  0.5955 -0.0205
  131OSM   H18F14199   4.358   6.149   8.121 -1.4994 -0.0721 -0.8216
  131OSM   H18G14200   4.389   6.067   7.963 -0.1824  0.9738 -0.5503
  131OSM   H18H14201   4.367   6.249   7.977 -0.6232  0.0509 -0.5858
  132OSM      N14202   5.440   0.562   6.245 -0.3552  0.4733 -0.2964
  132OSM    C1514203   5.451   0.684   6.157  0.7189 -0.1871 -0.3566
  132OSM   H15A14204   5.502   0.755   6.220 -0.2819 -0.6652  1.0397
  132OSM   H15B14205   5.362   0.725   6.110  1.9008  2.0134 -0.8246
  132OSM   H15C14206   5.515   0.673   6.071 -1.2077  1.1449 -2.0550
  132OSM    C1414207   5.370   0.596   6.369  0.0050 -0.0873 -0.1204
  132OSM   H14A14208   5.356   0.511   6.434 -0.8539 -0.9757 -1.4203
  132OSM   H14B14209   5.274   0.642   6.351 -1.0561 -2.9555 -2.7089
  132OSM   H14C14210   5.426   0.668   6.426 -0.8235 -0.4450  1.1984
  132OSM    C1314211   5.372   0.453   6.166  0.8538 -0.0406 -0.8928
  132OSM   H13A14212   5.404   0.448   6.062  0.0727 -1.3585 -1.0980
  132OSM   H13B14213   5.272   0.487   6.144  0.7741 -0.1334 -0.6775
  132OSM   H13C14214   5.374   0.353   6.206 -2.0242  0.1830 -0.0401
  132OSM    C1214215   5.582   0.518   6.277 -0.5728 -0.5585 -0.0102
  132OSM   H12A14216   5.638   0.511   6.185  0.0943 -0.4196  0.3732
  132OSM   H12B14217   5.570   0.417   6.315 -1.7575  0.0409  1.3078
  132OSM    C1114218   5.661   0.607   6.374 -0.3690 -0.3586  0.4041
  132OSM   H11A14219   5.759   0.560   6.399 -1.6835 -3.0203  0.9343
  132OSM   H11B14220   5.607   0.602   6.471 -0.5231 -1.8626  0.2790
  132OSM      P14221   5.788   0.801   6.242 -0.3733  0.4073  0.2154
  132OSM    O1314222   5.786   0.742   6.111  0.3392  0.2268  0.2064
  132OSM    O1414223   5.752   0.940   6.254  0.3733 -0.0115 -0.1000
  132OSM    O1114224   5.922   0.769   6.321 -0.4668 -0.1992 -0.0150
  132OSM    O1214225   5.673   0.739   6.330  0.1629 -0.6074 -0.6257
  132OSM    C1S14226   5.939   0.787   6.460  0.5425  0.2933  0.1011
  132OSM    H1S14227   5.842   0.754   6.504 -1.5016  3.4730 -1.6450
  132OSM    H1T14228   5.951   0.896   6.473 -2.0318  0.7892 -1.1607
  132OSM     NF14229   6.050   0.711   6.663 -0.3348 -0.6155 -0.1190
  132OSM    HNF14230   6.117   0.770   6.708  0.8352 -1.5781 -0.5352
  132OSM    C2S14231   6.050   0.695   6.515 -0.2249 -0.3564 -0.5019
  132OSM    H2S14232   6.027   0.587   6.500  3.1532 -1.3436  0.5897
  132OSM    C3S14233   6.188   0.717   6.446  0.3400 -0.1059  0.5224
  132OSM    H3S14234   6.232   0.811   6.487  1.2835 -0.3685  0.1599
  132OSM     O314235   6.183   0.726   6.302 -0.1556  0.0064 -0.8113
  132OSM    HO314236   6.089   0.744   6.296 -0.3841 -1.2284 -1.2694
  132OSM    C4S14237   6.284   0.609   6.478  0.5365  0.8790  0.8342
  132OSM    H4S14238   6.274   0.522   6.412 -1.5517  2.3271 -0.8805
  132OSM    C5S14239   6.386   0.614   6.563  0.3152  0.1409 -0.5932
  132OSM    H5S14240   6.394   0.710   6.616 -2.1543  0.2592 -0.3457
  132OSM    C6S14241   6.484   0.501   6.593 -0.4284  0.0661 -0.3419
  132OSM    H6S14242   6.586   0.509   6.550  0.8302 -0.4021  2.3368
  132OSM    H6T14243   6.442   0.405   6.556  1.1415 -1.8815  2.4743
  132OSM    C7S14244   6.509   0.476   6.742  0.5588  0.4379  0.2157
  132OSM    H7S14245   6.572   0.390   6.773  0.7328  1.3475  2.5481
  132OSM    H7T14246   6.409   0.458   6.788 -0.2889  0.3937 -1.5429
  132OSM    C8S14247   6.565   0.594   6.818  0.1146 -0.0415 -0.7898
  132OSM    H8S14248   6.500   0.684   6.821 -1.3986 -1.0782  2.5197
  132OSM    H8T14249   6.657   0.621   6.763  0.4777 -1.7136 -1.0577
  132OSM    C9S14250   6.605   0.557   6.962 -0.4148  1.0313 -0.8009
  132OSM    H9S14251   6.661   0.641   7.009  1.3469 -0.0006 -0.9699
  132OSM    H9T14252   6.659   0.460   6.966 -2.9263 -0.3832  0.8396
  132OSM   C10S14253   6.482   0.545   7.057 -0.5522 -0.7096 -0.0084
  132OSM   H10S14254   6.410   0.464   7.036  0.5873 -1.8989  0.5571
  132OSM   H10T14255   6.427   0.640   7.037 -0.5660 -0.9001 -0.9295
  132OSM   C11S14256   6.549   0.519   7.191  0.3076 -0.0207  0.3899
  132OSM   H11S14257   6.610   0.606   7.225  1.5130  0.5080 -2.8281
  132OSM   H11T14258   6.616   0.431   7.180  0.9285  0.5743 -0.7132
  132OSM   C12S14259   6.444   0.474   7.296 -0.0640 -0.0751  0.3472
  132OSM   H12S14260   6.391   0.381   7.267 -0.9177 -0.3083  2.4939
  132OSM   H12T14261   6.361   0.547   7.301  0.8696  0.9800  0.9234
  132OSM   C13S14262   6.502   0.451   7.433  0.1448 -0.9457  1.0067
  132OSM   H13S14263   6.529   0.552   7.471  1.4975 -1.2830  0.9712
  132OSM   H13T14264   6.589   0.384   7.418  0.5123  0.1232 -2.3537
  132OSM   C14S14265   6.397   0.393   7.538  0.1630  0.1648  0.2953
  132OSM   H14S14266   6.367   0.289   7.511 -1.5191  0.2953  1.5678
  132OSM   H14T14267   6.306   0.455   7.530  1.7308  2.8587  1.9963
  132OSM   C15S14268   6.448   0.393   7.679  0.5199 -0.3403 -0.2012
  132OSM   H15S14269   6.459   0.503   7.690 -1.3768  0.2271 -2.9874
  132OSM   H15T14270   6.539   0.329   7.680  0.2810 -0.6985 -1.1340
  132OSM   C16S14271   6.347   0.357   7.791  0.0922  0.6999 -0.2634
  132OSM   H16S14272   6.338   0.247   7.786  2.1170  0.4982 -0.2863
  132OSM   H16T14273   6.249   0.403   7.763  0.5342  1.5612 -0.4514
  132OSM   C17S14274   6.386   0.405   7.934  0.0924  0.0222 -0.2466
  132OSM   H17S14275   6.390   0.516   7.941  0.1233 -0.0561  1.5221
  132OSM   H17T14276   6.486   0.362   7.956  1.7832  2.5724 -2.3502
  132OSM   C18S14277   6.284   0.355   8.043 -0.2997 -0.0209 -0.2190
  132OSM   H18S14278   6.183   0.397   8.024 -1.0007 -1.3257  0.5214
  132OSM   H18T14279   6.313   0.386   8.146  0.4400  0.9476 -0.7006
  132OSM   H18U14280   6.294   0.245   8.035  0.1422  0.0357 -0.4622
  132OSM    C1F14281   5.945   0.664   6.740 -0.3719 -0.5453 -0.4509
  132OSM     OF14282   5.860   0.586   6.697 -0.4358  0.1994 -0.1664
  132OSM    C2F14283   5.935   0.725   6.881  0.5954  0.6359 -0.5015
  132OSM    H2F14284   5.916   0.834   6.876  0.1735  0.5393 -1.0843
  132OSM    H2G14285   6.033   0.701   6.928 -0.3440 -0.0228  1.2090
  132OSM    C3F14286   5.828   0.659   6.971  0.1541 -0.3366  0.0946
  132OSM    H3F14287   5.827   0.549   6.956  0.1019 -0.2239 -0.7551
  132OSM    H3G14288   5.732   0.703   6.939 -0.7509 -2.2601  0.0451
  132OSM    C4F14289   5.856   0.689   7.118  0.4775 -0.1756  0.4682
  132OSM    H4F14290   5.877   0.796   7.141 -1.2919  0.2065  0.4855
  132OSM    H4G14291   5.940   0.623   7.146 -0.0030 -0.4818  1.2372
  132OSM    C5F14292   5.735   0.649   7.205 -0.0003 -0.5249 -0.0571
  132OSM    H5F14293   5.728   0.541   7.180  2.4157 -0.6932 -0.2180
  132OSM    H5G14294   5.642   0.689   7.160  0.7640  0.7167 -0.5709
  132OSM    C6F14295   5.754   0.668   7.361  0.6244 -0.9093 -0.1583
  132OSM    H6F14296   5.774   0.775   7.380  0.1729 -0.7863 -0.3726
  132OSM    H6G14297   5.844   0.613   7.398  1.9974  0.6120 -1.0969
  132OSM    C7F14298   5.631   0.630   7.453  0.4775 -0.0866  0.3965
  132OSM    H7F14299   5.593   0.532   7.416 -0.1810  0.0675  0.6491
  132OSM    H7G14300   5.541   0.694   7.442  0.6818  0.3067  0.9855
  132OSM    C8F14301   5.663   0.619   7.599  0.5839 -0.2496 -0.1935
  132OSM    H8F14302   5.738   0.538   7.615  0.1342 -1.2564 -2.6333
  132OSM    H8G14303   5.568   0.590   7.649  1.1297 -0.5643  0.6862
  132OSM    C9F14304   5.713   0.747   7.656 -0.1092  0.1461  0.1553
  132OSM    H9F14305   5.823   0.756   7.658 -0.0682 -0.1355 -0.6210
  132OSM   C10F14306   5.642   0.866   7.685 -0.2210 -0.0191 -0.5728
  132OSM   H10F14307   5.692   0.956   7.723  0.3848 -1.0063  1.0678
  132OSM   C11F14308   5.491   0.876   7.670  0.1250 -0.0649 -0.3663
  132OSM   H11F14309   5.458   0.823   7.577  1.6444 -0.6815 -0.5827
  132OSM   H11G14310   5.462   0.983   7.659  1.2696  0.3984  0.9322
  132OSM   C12F14311   5.412   0.807   7.786  0.4374  0.1683 -0.8315
  132OSM   H12F14312   5.425   0.697   7.779 -0.7846 -0.0787  0.2821
  132OSM   H12G14313   5.304   0.827   7.773  0.0085 -0.6172  1.0927
  132OSM   C13F14314   5.440   0.868   7.918 -0.0591  0.0703 -0.2745
  132OSM   H13F14315   5.411   0.975   7.907 -1.3467 -0.1016  1.1406
  132OSM   H13G14316   5.547   0.872   7.947  0.1948 -0.4650 -1.1219
  132OSM   C14F14317   5.367   0.805   8.039  0.1678  0.4462 -0.5488
  132OSM   H14F14318   5.259   0.829   8.034 -0.1746 -0.8282  0.2277
  132OSM   H14G14319   5.408   0.856   8.128  0.0335 -0.2726 -0.0639
  132OSM   C15F14320   5.387   0.656   8.045 -0.4928 -0.1075  0.4153
  132OSM   H15F14321   5.496   0.638   8.052 -0.7078 -2.7853 -1.3740
  132OSM   H15G14322   5.351   0.603   7.954  0.6956  1.3061 -0.9222
  132OSM   C16F14323   5.338   0.591   8.178 -0.3085  0.8230 -0.4620
  132OSM   H16F14324   5.227   0.587   8.185 -0.3823 -4.7463 -0.1633
  132OSM   H16G14325   5.375   0.642   8.269 -3.8490  0.8538  1.1393
  132OSM   C17F14326   5.372   0.440   8.186 -0.3338 -0.2837  0.0047
  132OSM   H17F14327   5.482   0.432   8.178 -0.4321 -2.0969  0.1843
  132OSM   H17G14328   5.325   0.395   8.096  0.9885 -0.9101 -0.3945
  132OSM   C18F14329   5.311   0.375   8.301 -0.6436 -0.0906 -1.7843
  132OSM   H18F14330   5.344   0.406   8.403  0.0958 -2.6808 -1.1571
  132OSM   H18G14331   5.332   0.266   8.310  0.9978  0.3567  1.2424
  132OSM   H18H14332   5.201   0.383   8.315 -0.9170 -3.2876 -1.3005
  133OSM      N14333   5.966   0.526   5.769  0.4001 -0.0745  0.0845
  133OSM    C1514334   6.086   0.434   5.748  0.3714 -0.0612  0.2032
  133OSM   H15A14335   6.054   0.331   5.758  0.1141 -0.1406 -1.2380
  133OSM   H15B14336   6.159   0.453   5.824  0.4629 -0.2084  0.1526
  133OSM   H15C14337   6.124   0.438   5.647 -1.6354  0.4284 -0.5856
  133OSM    C1414338   6.002   0.665   5.733  0.1158  0.0958  0.0116
  133OSM   H14A14339   5.934   0.744   5.761 -0.6360  0.1632 -1.8777
  133OSM   H14B14340   6.015   0.671   5.626 -0.9012 -1.3841 -0.2240
  133OSM   H14C14341   6.100   0.687   5.773 -0.6092  0.9329  1.4350
  133OSM    C1314342   5.859   0.493   5.667  0.1174 -0.1677 -0.7896
  133OSM   H13A14343   5.777   0.556   5.696  1.5069  1.0770  0.6305
  133OSM   H13B14344   5.822   0.394   5.687 -0.7740  0.5591  1.3747
  133OSM   H13C14345   5.877   0.498   5.560 -1.1618 -0.0838 -1.0129
  133OSM    C1214346   5.908   0.505   5.912  0.3755  0.0781  0.1531
  133OSM   H12A14347   5.878   0.401   5.916  2.7982 -0.7010 -0.1794
  133OSM   H12B14348   5.821   0.566   5.933  2.0565  2.3300  0.9708
  133OSM    C1114349   6.015   0.508   6.028  0.6701  0.4634  0.3702
  133OSM   H11A14350   5.962   0.520   6.125  0.2992  0.1379  0.2099
  133OSM   H11B14351   6.064   0.607   6.018  2.5796 -0.3584  1.1956
  133OSM      P14352   6.065   0.268   6.083  0.1468  0.0044  0.1994
  133OSM    O1314353   5.926   0.241   6.043  0.5206  0.5987  0.1440
  133OSM    O1414354   6.162   0.164   6.048 -0.3339  0.0190  0.0610
  133OSM    O1114355   6.071   0.303   6.234  0.3403 -0.1151 -0.6251
  133OSM    O1214356   6.111   0.406   6.025 -0.0023  0.0705 -0.2874
  133OSM    C1S14357   5.969   0.354   6.320 -0.0737  0.1614  0.1467
  133OSM    H1S14358   5.866   0.338   6.283  0.3873  1.7600 -1.9817
  133OSM    H1T14359   5.970   0.465   6.325 -0.6604  0.1647  0.3430
  133OSM     NF14360   5.854   0.355   6.546 -0.3306  0.1563  0.3494
  133OSM    HNF14361   5.864   0.426   6.615 -2.6900  1.0103 -0.0888
  133OSM    C2S14362   5.964   0.292   6.469  0.4276 -0.4416 -0.4271
  133OSM    H2S14363   5.933   0.186   6.459 -1.9813  0.1885 -0.2230
  133OSM    C3S14364   6.101   0.296   6.535 -0.1632 -0.0315 -0.4807
  133OSM    H3S14365   6.129   0.402   6.550 -2.1277  0.3378  1.0734
  133OSM     O314366   6.203   0.238   6.462  0.3266  0.2742 -0.0492
  133OSM    HO314367   6.175   0.258   6.372  2.8008 -1.2067 -1.2679
  133OSM    C4S14368   6.102   0.242   6.669 -0.1736 -0.4912 -0.3215
  133OSM    H4S14369   6.073   0.135   6.670  0.0196 -0.5394  0.8693
  133OSM    C5S14370   6.144   0.303   6.777 -0.2142 -0.7911  0.3406
  133OSM    H5S14371   6.184   0.406   6.776 -2.3858  0.1378  1.5297
  133OSM    C6S14372   6.133   0.227   6.904 -0.0854 -0.1207  1.0825
  133OSM    H6S14373   6.229   0.178   6.931  0.2786 -0.6957 -1.0497
  133OSM    H6T14374   6.055   0.148   6.898 -0.4972  0.3815 -1.2244
  133OSM    C7S14375   6.079   0.318   7.018 -0.8595  0.2214 -0.2164
  133OSM    H7S14376   5.976   0.351   6.992 -1.7067 -1.2506  1.1185
  133OSM    H7T14377   6.158   0.397   7.026 -0.4613 -0.2798  1.0071
  133OSM    C8S14378   6.056   0.251   7.153 -0.4954  0.2108  0.3200
  133OSM    H8S14379   6.148   0.196   7.183 -0.6052  0.0524  0.3653
  133OSM    H8T14380   5.972   0.179   7.144  0.4195 -0.9742  1.0164
  133OSM    C9S14381   6.026   0.344   7.269  0.8146  0.1569 -0.0954
  133OSM    H9S14382   5.928   0.395   7.264  0.4779  0.3805  4.2819
  133OSM    H9T14383   6.104   0.423   7.276 -1.6152  3.1583 -3.6710
  133OSM   C10S14384   6.021   0.265   7.405  0.0476  0.4899  0.0676
  133OSM   H10S14385   6.125   0.239   7.432 -0.2496 -0.8334  0.0389
  133OSM   H10T14386   5.969   0.169   7.381  2.7725 -0.9093 -0.6171
  133OSM   C11S14387   5.958   0.342   7.520 -0.3091 -0.5985 -0.1610
  133OSM   H11S14388   5.850   0.371   7.515 -0.0574  0.3786 -0.2629
  133OSM   H11T14389   6.022   0.433   7.521  2.0409 -2.1737  0.5604
  133OSM   C12S14390   5.972   0.279   7.657  0.2156  0.7946 -0.8937
  133OSM   H12S14391   6.074   0.235   7.666  0.3362  0.9479 -1.4479
  133OSM   H12T14392   5.901   0.194   7.653  2.5695 -1.3682  0.7837
  133OSM   C13S14393   5.945   0.389   7.768  0.1379 -0.5015 -1.1406
  133OSM   H13S14394   5.850   0.443   7.747  0.1753 -0.6946 -1.8502
  133OSM   H13T14395   6.035   0.452   7.784 -1.4419  2.3881 -2.7697
  133OSM   C14S14396   5.917   0.329   7.910  0.3595  0.1029 -0.4385
  133OSM   H14S14397   5.992   0.253   7.941  0.0030  0.4259  1.3072
  133OSM   H14T14398   5.823   0.269   7.899 -0.9299  1.5783  1.7944
  133OSM   C15S14399   5.871   0.429   8.018 -0.4804  0.7543 -0.2958
  133OSM   H15S14400   5.782   0.479   7.975  1.1861  0.6386 -4.2764
  133OSM   H15T14401   5.954   0.501   8.033 -0.9195  1.0917  0.5637
  133OSM   C16S14402   5.848   0.363   8.154 -0.0642 -0.1751 -0.4970
  133OSM   H16S14403   5.945   0.335   8.200 -0.4627  0.0689  0.5122
  133OSM   H16T14404   5.789   0.271   8.134  0.9952 -1.1428  0.6588
  133OSM   C17S14405   5.778   0.462   8.252  0.2838  0.3729 -0.4262
  133OSM   H17S14406   5.679   0.489   8.210 -1.0358 -2.9784  0.2329
  133OSM   H17T14407   5.835   0.558   8.252  1.0591 -0.0252  1.9741
  133OSM   C18S14408   5.759   0.404   8.394 -0.2576  0.0698 -0.5323
  133OSM   H18S14409   5.858   0.384   8.442 -1.1649  1.3670  2.0336
  133OSM   H18T14410   5.711   0.304   8.393  0.1811 -0.1443 -0.8675
  133OSM   H18U14411   5.696   0.475   8.451  0.3084  0.9546 -0.9852
  133OSM    C1F14412   5.733   0.309   6.531  0.4781 -0.1432 -0.4678
  133OSM     OF14413   5.701   0.236   6.435  0.5020  0.2104 -0.2050
  133OSM    C2F14414   5.630   0.346   6.631 -0.0788 -0.5119  0.1621
  133OSM    H2F14415   5.556   0.402   6.571 -0.8575  0.2330  1.7629
  133OSM    H2G14416   5.671   0.394   6.723 -1.3397  1.9967 -0.5072
  133OSM    C3F14417   5.549   0.222   6.681 -0.1812  0.0955  0.4100
  133OSM    H3F14418   5.504   0.158   6.603  2.2761  0.2131 -1.2058
  133OSM    H3G14419   5.473   0.258   6.754 -1.3932 -0.1122 -0.7071
  133OSM    C4F14420   5.640   0.113   6.754  0.1866  0.1634  0.4278
  133OSM    H4F14421   5.712   0.076   6.679  0.7893 -0.9442  1.5082
  133OSM    H4G14422   5.583   0.022   6.780  1.2906 -0.3807  1.0247
  133OSM    C5F14423   5.716   0.160   6.882 -0.4503  0.6530  0.9767
  133OSM    H5F14424   5.789   0.235   6.844  0.1112 -0.8561 -1.0862
  133OSM    H5G14425   5.771   0.073   6.925  1.6259  0.7165 -1.2911
  133OSM    C6F14426   5.624   0.223   6.988  0.4661 -0.1153  1.2023
  133OSM    H6F14427   5.531   0.163   6.998 -0.2218  0.4210 -1.3667
  133OSM    H6G14428   5.577   0.320   6.961 -1.2298 -0.8312  1.4218
  133OSM    C7F14429   5.695   0.230   7.124  0.8983  0.2486  0.7448
  133OSM    H7F14430   5.778   0.303   7.111  1.1256 -0.2634 -0.9584
  133OSM    H7G14431   5.744   0.132   7.140 -0.6115 -0.2577  2.7307
  133OSM    C8F14432   5.616   0.274   7.244 -0.5342  0.2397  0.1328
  133OSM    H8F14433   5.585   0.379   7.222 -0.7943  0.2257  0.4287
  133OSM    H8G14434   5.686   0.278   7.330  2.8193 -0.3031 -2.3713
  133OSM    C9F14435   5.494   0.181   7.272 -0.3485  0.4895  0.1336
  133OSM    H9F14436   5.425   0.186   7.187  1.7728 -1.8271 -1.8760
  133OSM   C10F14437   5.472   0.102   7.384  0.2145  0.3927 -0.0307
  133OSM   H10F14438   5.383   0.038   7.398 -0.0590  0.3620 -1.7756
  133OSM   C11F14439   5.563   0.097   7.506  0.6131 -0.2087 -0.1727
  133OSM   H11F14440   5.670   0.119   7.486  0.5136  0.3322 -0.1253
  133OSM   H11G14441   5.563  -0.003   7.555  1.4219 -0.7888 -1.3135
  133OSM   C12F14442   5.516   0.204   7.604  0.2796 -0.2141  0.5489
  133OSM   H12F14443   5.410   0.190   7.635 -0.1790  1.3463 -0.2021
  133OSM   H12G14444   5.523   0.300   7.548  0.5344  0.0751  1.0622
  133OSM   C13F14445   5.599   0.215   7.730  0.0159 -0.5880 -0.4188
  133OSM   H13F14446   5.559   0.304   7.783  0.3009 -0.6471 -0.1059
  133OSM   H13G14447   5.705   0.228   7.702  0.3620  0.5322  1.2769
  133OSM   C14F14448   5.568   0.089   7.817  0.3734 -0.0927  0.0640
  133OSM   H14F14449   5.635   0.002   7.800  0.3826 -0.1280  0.2659
  133OSM   H14G14450   5.461   0.063   7.801 -0.0273  0.9910  0.7889
  133OSM   C15F14451   5.565   0.112   7.969  0.6304 -0.8399 -0.1865
  133OSM   H15F14452   5.503   0.202   7.987  0.5432 -1.1130  0.9876
  133OSM   H15G14453   5.668   0.150   7.991  0.0903 -0.0117  1.0142
  133OSM   C16F14454   5.517  -0.015   8.043 -0.2590 -0.9095  0.6357
  133OSM   H16F14455   5.592  -0.098   8.043  0.4321 -0.4252 -2.3610
  133OSM   H16G14456   5.415  -0.048   8.016 -0.7834  0.1798  1.2650
  133OSM   C17F14457   5.508   0.014   8.190  0.3700 -0.0657 -0.0136
  133OSM   H17F14458   5.462   0.114   8.203  0.9681  0.0304  1.4798
  133OSM   H17G14459   5.616   0.022   8.211 -0.0609  0.3283  2.2827
  133OSM   C18F14460   5.439  -0.091   8.274  0.6110  0.5672 -0.2091
  133OSM   H18F14461   5.330  -0.084   8.252  0.9716  1.2761 -1.9553
  133OSM   H18G14462   5.450  -0.079   8.384  1.2276 -1.8003  0.0383
  133OSM   H18H14463   5.467  -0.197   8.256 -0.0136  0.0023  1.9227
  134OSM      N14464   1.361   3.954   6.383 -0.2431  0.0219  0.2849
  134OSM    C1514465   1.418   3.826   6.335 -0.3835 -0.5989  0.5160
  134OSM   H15A14466   1.369   3.791   6.245  1.2654  0.5092 -0.8698
  134OSM   H15B14467   1.418   3.742   6.403 -0.0928 -0.7556  0.3273
  134OSM   H15C14468   1.518   3.843   6.298 -0.4249 -1.0295  0.2039
  134OSM    C1414469   1.454   4.015   6.477 -0.7221 -0.0532  0.1392
  134OSM   H14A14470   1.458   3.949   6.563 -0.3130 -1.3523 -0.8368
  134OSM   H14B14471   1.419   4.110   6.515 -0.7072  0.7440 -1.7258
  134OSM   H14C14472   1.558   4.026   6.451 -0.8928  1.3251 -0.0217
  134OSM    C1314473   1.348   4.045   6.263 -0.4123 -0.4296 -0.8361
  134OSM   H13A14474   1.294   4.010   6.177 -1.1429  0.1206 -0.6151
  134OSM   H13B14475   1.443   4.072   6.219 -1.3178 -0.3772 -2.8677
  134OSM   H13C14476   1.303   4.137   6.297 -0.3453 -0.7797  0.2473
  134OSM    C1214477   1.227   3.926   6.438  0.0500 -0.5021  0.0349
  134OSM   H12A14478   1.161   3.876   6.370  0.1982  1.5693 -1.7261
  134OSM   H12B14479   1.183   4.021   6.466 -0.1925 -1.0505  1.6324
  134OSM    C1114480   1.216   3.833   6.565  0.4370  0.3053  0.2890
  134OSM   H11A14481   1.115   3.844   6.609 -0.0232  0.6512 -0.8287
  134OSM   H11B14482   1.285   3.875   6.642  1.1934 -0.1885 -0.0996
  134OSM      P14483   1.149   3.608   6.467 -0.0424 -0.0225 -0.0924
  134OSM    O1314484   1.051   3.687   6.390 -0.2003 -0.1848 -0.0370
  134OSM    O1414485   1.229   3.506   6.390  0.3702  0.3409  0.4108
  134OSM    O1114486   1.070   3.521   6.574 -0.3561  0.0490  0.1204
  134OSM    O1214487   1.250   3.697   6.538  0.1709  0.8087 -0.0384
  134OSM    C1S14488   1.122   3.503   6.705 -0.3688  0.2889 -0.8223
  134OSM    H1S14489   1.101   3.594   6.764  2.5798  0.8650 -0.4785
  134OSM    H1T14490   1.231   3.478   6.700 -0.4394 -0.5027  0.7898
  134OSM     NF14491   1.085   3.384   6.914 -0.1320 -0.7974 -0.2041
  134OSM    HNF14492   1.168   3.343   6.951  0.0836 -0.9464 -0.8403
  134OSM    C2S14493   1.045   3.386   6.775 -0.1729  0.1386 -0.2056
  134OSM    H2S14494   0.935   3.399   6.768 -0.1240 -0.2834 -3.0881
  134OSM    C3S14495   1.067   3.255   6.689  0.0654  0.3992  0.5622
  134OSM    H3S14496   1.175   3.229   6.692 -0.4565 -2.0489  0.4129
  134OSM     O314497   1.023   3.264   6.554  0.5304  0.1263  0.3989
  134OSM    HO314498   1.013   3.358   6.538 -1.2325 -0.2670 -1.0891
  134OSM    C4S14499   0.997   3.134   6.758 -0.9412  0.3513  0.1382
  134OSM    H4S14500   0.887   3.140   6.757 -0.9039  2.8004 -1.8245
  134OSM    C5S14501   1.069   3.026   6.797  0.0156 -0.1333  0.1505
  134OSM    H5S14502   1.177   3.008   6.787 -0.2807 -2.7719  0.8376
  134OSM    C6S14503   1.000   2.924   6.884  1.0218  0.4371  0.0760
  134OSM    H6S14504   1.052   2.827   6.870 -4.0330 -2.6818  0.2901
  134OSM    H6T14505   0.896   2.896   6.855  1.5383 -1.3186 -0.2234
  134OSM    C7S14506   1.009   2.957   7.038  0.8383  0.3206 -0.0462
  134OSM    H7S14507   1.113   2.968   7.076 -0.4774  3.1079  3.3037
  134OSM    H7T14508   0.967   2.874   7.098  1.4278  0.5429  0.6877
  134OSM    C8S14509   0.942   3.088   7.080 -0.4262  1.0434  0.1435
  134OSM    H8S14510   0.835   3.075   7.052 -0.6526 -2.1017  1.9841
  134OSM    H8T14511   0.982   3.172   7.020  0.5525  0.8327  0.4876
  134OSM    C9S14512   0.952   3.119   7.229 -0.1841 -0.1189  0.1188
  134OSM    H9S14513   0.908   3.221   7.238  2.3566  0.9615  1.4186
  134OSM    H9T14514   1.058   3.114   7.262 -0.0886 -2.7396 -0.3689
  134OSM   C10S14515   0.856   3.034   7.321 -0.3980  0.0927 -0.1880
  134OSM   H10S14516   0.891   2.929   7.307  1.6377  1.0375 -3.1814
  134OSM   H10T14517   0.752   3.042   7.283  0.1055 -0.3482 -1.7518
  134OSM   C11S14518   0.873   3.065   7.466 -0.4910 -0.7863 -0.5447
  134OSM   H11S14519   0.790   3.021   7.526 -1.8079 -0.0234 -1.7548
  134OSM   H11T14520   0.852   3.173   7.476  1.1494 -0.5166  0.2089
  134OSM   C12S14521   1.001   3.018   7.526 -0.1197  0.6269  0.0813
  134OSM   H12S14522   1.084   3.061   7.465  0.1233  1.4977  0.9992
  134OSM   H12T14523   1.009   2.907   7.523  1.5995  0.7224 -0.4449
  134OSM   C13S14524   1.019   3.059   7.673  0.1477  0.7953  0.0755
  134OSM   H13S14525   0.971   3.158   7.690  0.8779  0.9733  1.2509
  134OSM   H13T14526   1.129   3.065   7.689  0.2114 -2.2852  1.4524
  134OSM   C14S14527   0.962   2.966   7.784  0.4183  0.1366  1.0179
  134OSM   H14S14528   0.997   2.861   7.783 -0.4577 -0.1745 -0.4344
  134OSM   H14T14529   0.853   2.960   7.763  0.7744  0.4193 -1.1645
  134OSM   C15S14530   0.975   3.016   7.928  0.3517 -0.1278  0.4580
  134OSM   H15S14531   0.926   2.936   7.988 -1.7674  0.0909 -0.8871
  134OSM   H15T14532   0.926   3.112   7.957 -1.1992 -0.7208 -0.1308
  134OSM   C16S14533   1.125   3.027   7.967  0.5542  0.2676  0.5498
  134OSM   H16S14534   1.176   3.096   7.896  1.1543  0.4847  1.1820
  134OSM   H16T14535   1.169   2.925   7.962 -1.1635 -0.5331  1.0685
  134OSM   C17S14536   1.135   3.072   8.111 -0.1097  0.8651 -0.3405
  134OSM   H17S14537   1.039   3.112   8.150 -0.7256 -0.9652  0.1218
  134OSM   H17T14538   1.214   3.148   8.128  0.2352  0.5180 -0.3710
  134OSM   C18S14539   1.171   2.946   8.195  0.1954  0.1418  1.0339
  134OSM   H18S14540   1.251   2.885   8.148 -1.0498 -1.8719  1.4450
  134OSM   H18T14541   1.076   2.889   8.198 -0.5211  0.9643 -2.2789
  134OSM   H18U14542   1.206   2.963   8.299  4.3045 -1.3508  0.0899
  134OSM    C1F14543   1.041   3.470   7.005  0.0828  0.0346  0.5225
  134OSM     OF14544   0.952   3.550   6.980  0.4217 -0.0743  0.5790
  134OSM    C2F14545   1.107   3.469   7.142 -0.0916  0.5196 -0.3438
  134OSM    H2F14546   1.180   3.552   7.150 -1.4171  1.6532  0.5441
  134OSM    H2G14547   1.159   3.371   7.147 -0.2436  0.4383 -0.3649
  134OSM    C3F14548   1.005   3.489   7.255  0.3021 -0.0954  0.7813
  134OSM    H3F14549   0.923   3.414   7.248  1.4625 -1.2741 -1.8827
  134OSM    H3G14550   0.956   3.588   7.243 -0.8944 -0.7060  0.4764
  134OSM    C4F14551   1.059   3.478   7.402  0.4698  0.0033  0.2113
  134OSM    H4F14552   1.123   3.568   7.419  0.2615  0.7145 -2.3620
  134OSM    H4G14553   1.133   3.398   7.422  0.7163 -0.0689 -0.9376
  134OSM    C5F14554   0.955   3.481   7.520  0.3708 -0.5585  0.0194
  134OSM    H5F14555   0.897   3.386   7.510  1.5958 -1.4152  0.7017
  134OSM    H5G14556   0.891   3.571   7.513 -1.5441 -1.8271  0.4158
  134OSM    C6F14557   1.027   3.479   7.656 -0.0565 -0.1466 -0.5774
  134OSM    H6F14558   1.102   3.560   7.666 -2.5735  2.6885 -2.8310
  134OSM    H6G14559   1.086   3.386   7.672  0.4616 -0.2314 -2.6123
  134OSM    C7F14560   0.932   3.485   7.773 -0.0680 -0.2247  0.5578
  134OSM    H7F14561   0.879   3.388   7.786 -1.7052  0.4490 -0.8221
  134OSM    H7G14562   0.850   3.559   7.760  0.2812 -0.0655 -0.8959
  134OSM    C8F14563   0.992   3.536   7.910 -0.5110 -0.6694 -0.3186
  134OSM    H8F14564   0.910   3.552   7.984  2.1869  2.8136  2.2535
  134OSM    H8G14565   1.029   3.636   7.880 -3.1519 -0.3476 -3.0997
  134OSM    C9F14566   1.101   3.433   7.962  0.6291  0.5786  0.9135
  134OSM    H9F14567   1.096   3.336   7.910 -2.2276  1.7065 -1.1734
  134OSM   C10F14568   1.194   3.459   8.059  0.0655  0.0401  0.7322
  134OSM   H10F14569   1.263   3.375   8.077  1.0939  0.4295 -1.2031
  134OSM   C11F14570   1.214   3.585   8.141 -0.2867  0.1918 -0.0306
  134OSM   H11F14571   1.172   3.667   8.080 -1.8282  0.1463  0.9253
  134OSM   H11G14572   1.325   3.597   8.150 -0.0403 -0.2530 -2.0333
  134OSM   C12F14573   1.145   3.576   8.283 -0.5090 -0.6606  0.2448
  134OSM   H12F14574   1.035   3.564   8.283 -1.0399  2.5026 -2.7973
  134OSM   H12G14575   1.171   3.667   8.340  2.9861 -0.3334 -1.6027
  134OSM   C13F14576   1.205   3.456   8.362 -0.6678 -0.1008 -0.4322
  134OSM   H13F14577   1.310   3.480   8.389 -0.2263 -1.4997 -0.8316
  134OSM   H13G14578   1.217   3.369   8.294  1.4913  1.3184 -2.0134
  134OSM   C14F14579   1.124   3.423   8.489  0.1446  0.2584  0.2991
  134OSM   H14F14580   1.170   3.333   8.536  0.1660  0.6232  0.9919
  134OSM   H14G14581   1.019   3.396   8.468  0.8359 -2.0126 -0.6680
  134OSM   C15F14582   1.132   3.541   8.590 -0.7186 -0.0443  0.5310
  134OSM   H15F14583   1.058   3.617   8.557 -1.4532 -1.2441 -0.6761
  134OSM   H15G14584   1.233   3.587   8.591 -0.2317 -1.0822  1.6678
  134OSM   C16F14585   1.115   3.486   8.728  0.2485  0.0524 -0.0777
  134OSM   H16F14586   1.185   3.403   8.750  0.9530  0.7005  0.1610
  134OSM   H16G14587   1.010   3.450   8.732  1.2119 -3.3864 -2.0167
  134OSM   C17F14588   1.131   3.595   8.831  0.0997 -0.2143  0.1218
  134OSM   H17F14589   1.239   3.623   8.830  0.4009 -1.3106 -0.0069
  134OSM   H17G14590   1.090   3.553   8.925  0.6537 -0.3169  0.3239
  134OSM   C18F14591   1.040   3.715   8.801 -0.0422 -0.1545 -0.3683
  134OSM   H18F14592   1.030   3.789   8.883  0.5004  1.3572 -1.6212
  134OSM   H18G14593   0.938   3.680   8.771 -0.0473  0.1782 -0.7505
  134OSM   H18H14594   1.090   3.768   8.717  0.7617 -1.9807 -1.0938
  135OSM      N14595   0.798   3.440   6.128  0.3602  0.1379 -0.0933
  135OSM    C1514596   0.717   3.558   6.106 -0.2751 -0.6812  0.1274
  135OSM   H15A14597   0.732   3.628   6.187 -2.4693 -1.0318  0.8767
  135OSM   H15B14598   0.611   3.543   6.100 -1.2407  3.8468  2.0768
  135OSM   H15C14599   0.751   3.610   6.018  0.9678 -0.2226  0.8509
  135OSM    C1414600   0.802   3.353   6.004 -0.4563 -0.1685  0.4268
  135OSM   H14A14601   0.704   3.313   5.980 -0.5079 -1.0190  1.9054
  135OSM   H14B14602   0.874   3.273   6.016 -0.4525  0.0529  2.2043
  135OSM   H14C14603   0.846   3.409   5.923 -0.1119  0.9343  1.3563
  135OSM    C1314604   0.935   3.478   6.163 -0.5070  0.3924 -0.2192
  135OSM   H13A14605   0.973   3.549   6.091  0.7782 -0.5310 -0.4921
  135OSM   H13B14606   1.004   3.395   6.159 -0.5721  0.3127  0.3549
  135OSM   H13C14607   0.945   3.528   6.258 -0.1035  0.3496 -0.2347
  135OSM    C1214608   0.738   3.349   6.237  0.3946  0.2599 -0.1754
  135OSM   H12A14609   0.791   3.255   6.240  1.9524  1.1278  1.3899
  135OSM   H12B14610   0.634   3.341   6.210  1.0829 -0.4892 -2.9197
  135OSM    C1114611   0.754   3.391   6.385  0.4599 -0.1539  0.4507
  135OSM   H11A14612   0.851   3.441   6.404  0.3029  0.3169  0.0363
  135OSM   H11B14613   0.755   3.296   6.443 -2.0684  0.4986  1.7085
  135OSM      P14614   0.526   3.452   6.482 -0.1656  0.2182 -0.1934
  135OSM    O1314615   0.437   3.566   6.508  0.0486  0.3857 -0.6087
  135OSM    O1414616   0.479   3.329   6.410 -0.2032 -0.4403  0.4716
  135OSM    O1114617   0.570   3.405   6.626 -0.3254 -0.6254 -0.5591
  135OSM    O1214618   0.664   3.497   6.416 -0.0015  0.5760 -0.7249
  135OSM    C1S14619   0.638   3.504   6.714  0.1527 -0.3066  0.4298
  135OSM    H1S14620   0.608   3.606   6.683 -0.4098 -0.5878  0.0129
  135OSM    H1T14621   0.748   3.491   6.702 -0.0513 -2.6464  0.5041
  135OSM     NF14622   0.677   3.588   6.939 -0.3929  0.2890 -0.4520
  135OSM    HNF14623   0.776   3.578   6.932 -0.7213 -3.1814 -2.5330
  135OSM    C2S14624   0.619   3.481   6.863 -0.2095 -0.3407  0.4893
  135OSM    H2S14625   0.509   3.474   6.880 -0.3145 -0.2342 -0.1264
  135OSM    C3S14626   0.681   3.340   6.894 -0.3317  0.4296 -0.5202
  135OSM    H3S14627   0.785   3.355   6.858 -0.3237  1.3878 -0.1151
  135OSM     O314628   0.622   3.236   6.817  0.1930  0.4571 -0.5945
  135OSM    HO314629   0.590   3.275   6.736  0.7732 -0.2600 -1.1900
  135OSM    C4S14630   0.671   3.327   7.045 -0.6061 -0.4754  0.4441
  135OSM    H4S14631   0.746   3.375   7.109 -0.1508  0.2481 -0.6029
  135OSM    C5S14632   0.567   3.273   7.106 -0.3141 -0.6243 -0.1083
  135OSM    H5S14633   0.493   3.226   7.039 -0.2537  0.9120 -1.3117
  135OSM    C6S14634   0.539   3.266   7.250  0.2297 -0.2269  0.3494
  135OSM    H6S14635   0.551   3.163   7.288  1.5419 -0.0651  0.4075
  135OSM    H6T14636   0.435   3.300   7.269  0.2197 -0.4900  0.7743
  135OSM    C7S14637   0.635   3.357   7.341  0.2753 -0.1108 -0.3822
  135OSM    H7S14638   0.645   3.462   7.305 -1.1250  0.5021  0.8783
  135OSM    H7T14639   0.731   3.302   7.344 -0.3580 -1.2971 -0.9482
  135OSM    C8S14640   0.570   3.365   7.478 -0.3411 -0.3367 -0.5274
  135OSM    H8S14641   0.481   3.431   7.473  1.1531  1.8242  0.0266
  135OSM    H8T14642   0.635   3.425   7.546 -0.0894 -0.3606 -0.7460
  135OSM    C9S14643   0.522   3.229   7.544 -0.1381 -0.7521 -0.2538
  135OSM    H9S14644   0.608   3.159   7.546  1.1657  0.8095  1.1158
  135OSM    H9T14645   0.441   3.177   7.487  0.0671 -1.3664  0.0026
  135OSM   C10S14646   0.457   3.245   7.680 -0.0627 -0.2500 -0.7739
  135OSM   H10S14647   0.427   3.146   7.719  1.5855 -0.6794 -0.4899
  135OSM   H10T14648   0.371   3.312   7.662 -1.2362 -1.7872 -1.0699
  135OSM   C11S14649   0.552   3.308   7.786  0.3835 -0.5735  0.0137
  135OSM   H11S14650   0.589   3.406   7.748  1.7072 -1.4909 -1.1692
  135OSM   H11T14651   0.642   3.250   7.815  0.0400 -2.3192 -2.1428
  135OSM   C12S14652   0.471   3.350   7.908 -0.4144  0.1798  0.5985
  135OSM   H12S14653   0.381   3.409   7.881  1.6905  2.5236 -1.9048
  135OSM   H12T14654   0.533   3.413   7.976  1.0794 -0.3937 -0.1813
  135OSM   C13S14655   0.425   3.229   7.993  0.6172  0.0214 -0.6266
  135OSM   H13S14656   0.510   3.173   8.037  0.2550 -0.9472 -1.1157
  135OSM   H13T14657   0.365   3.146   7.951  0.0919 -0.1573  0.4359
  135OSM   C14S14658   0.322   3.279   8.102  0.0142  0.1005  0.2612
  135OSM   H14S14659   0.229   3.219   8.091 -0.4517  1.0890 -1.6169
  135OSM   H14T14660   0.277   3.378   8.081 -1.1285 -0.7365 -1.5063
  135OSM   C15S14661   0.385   3.289   8.241  0.9305 -0.2245  0.5729
  135OSM   H15S14662   0.474   3.356   8.242  0.8056 -0.0655  1.4851
  135OSM   H15T14663   0.426   3.190   8.268 -0.2540 -0.5010  1.4374
  135OSM   C16S14664   0.298   3.343   8.358  0.2065 -0.5370  0.2524
  135OSM   H16S14665   0.279   3.451   8.343 -0.5059 -0.6297  0.4210
  135OSM   H16T14666   0.365   3.338   8.447  1.0711  1.4198 -0.2470
  135OSM   C17S14667   0.172   3.277   8.379  0.2202 -0.1829 -0.2352
  135OSM   H17S14668   0.182   3.167   8.392  1.4155 -0.0995 -0.3141
  135OSM   H17T14669   0.110   3.294   8.289 -0.9154  0.9289  0.7130
  135OSM   C18S14670   0.096   3.353   8.494  0.0649 -0.7398 -0.2748
  135OSM   H18S14671   0.172   3.382   8.571 -0.4760  0.8963 -0.3049
  135OSM   H18T14672   0.008   3.297   8.530 -0.2029 -0.9725 -1.2726
  135OSM   H18U14673   0.055   3.446   8.450 -0.1641 -0.9370 -0.4764
  135OSM    C1F14674   0.620   3.710   6.952  0.0706 -0.7819 -0.0164
  135OSM     OF14675   0.506   3.741   6.925  0.2710 -0.0449  0.2773
  135OSM    C2F14676   0.724   3.809   6.993 -0.8966  0.7710 -0.4360
  135OSM    H2F14677   0.740   3.878   6.907  1.2651  0.4119 -0.3826
  135OSM    H2G14678   0.817   3.752   7.017 -1.3557 -0.7512 -2.0305
  135OSM    C3F14679   0.681   3.883   7.119 -0.6333  1.1115 -0.1155
  135OSM    H3F14680   0.598   3.950   7.089  0.1940  0.7959 -3.4234
  135OSM    H3G14681   0.769   3.944   7.150  2.0114 -2.7223  0.5966
  135OSM    C4F14682   0.647   3.791   7.245  0.3482 -0.6581  0.1787
  135OSM    H4F14683   0.742   3.742   7.273  1.3920  1.6064  0.8827
  135OSM    H4G14684   0.566   3.722   7.213  0.0696  0.4136 -1.6003
  135OSM    C5F14685   0.604   3.872   7.372  0.4533 -0.1919  0.3556
  135OSM    H5F14686   0.495   3.892   7.366  0.3319 -0.4245  1.5644
  135OSM    H5G14687   0.652   3.972   7.358 -0.9963  0.4916  0.0885
  135OSM    C6F14688   0.660   3.797   7.496  0.1226  0.3630 -0.2067
  135OSM    H6F14689   0.769   3.791   7.476 -0.0554  0.5802 -1.2890
  135OSM    H6G14690   0.611   3.697   7.499 -0.9977  0.9042  0.0934
  135OSM    C7F14691   0.643   3.877   7.624 -0.5752 -0.0728  1.2064
  135OSM    H7F14692   0.536   3.888   7.651 -1.8118 -0.7970 -2.8560
  135OSM    H7G14693   0.708   3.967   7.613 -2.0278  0.8007 -0.6775
  135OSM    C8F14694   0.709   3.802   7.743 -0.0783  0.2255 -0.0974
  135OSM    H8F14695   0.808   3.764   7.710  0.1943  0.6782  0.1827
  135OSM    H8G14696   0.656   3.706   7.758  1.6787 -0.5622  1.6038
  135OSM    C9F14697   0.724   3.891   7.863 -0.2781 -0.3157  0.3250
  135OSM    H9F14698   0.767   3.991   7.841  2.4154 -1.1428  1.3718
  135OSM   C10F14699   0.693   3.868   7.992  0.2076  0.0396 -0.0362
  135OSM   H10F14700   0.723   3.940   8.069 -0.1576  1.6386 -1.3381
  135OSM   C11F14701   0.622   3.747   8.052  0.2852  0.2258  0.9544
  135OSM   H11F14702   0.594   3.664   7.985 -0.4994  2.3604 -1.5349
  135OSM   H11G14703   0.519   3.778   8.078  0.2650  0.8937  0.1097
  135OSM   C12F14704   0.689   3.696   8.178  0.5020 -0.6528  0.0677
  135OSM   H12F14705   0.674   3.780   8.250  0.1180  0.7970 -1.6277
  135OSM   H12G14706   0.800   3.691   8.172  0.6161  0.7384  0.6704
  135OSM   C13F14707   0.646   3.556   8.195 -0.6729  0.0995 -0.5494
  135OSM   H13F14708   0.663   3.505   8.098  2.3781 -2.0451  0.9338
  135OSM   H13G14709   0.537   3.558   8.216 -0.9502  1.9639 -1.8813
  135OSM   C14F14710   0.732   3.500   8.306 -0.3059 -0.2213 -0.1536
  135OSM   H14F14711   0.706   3.571   8.386 -3.4114 -2.3169  0.8932
  135OSM   H14G14712   0.834   3.525   8.270 -0.4629 -0.5005 -0.8052
  135OSM   C15F14713   0.733   3.353   8.344  0.3662 -0.4019 -0.2931
  135OSM   H15F14714   0.633   3.314   8.375 -0.5589  0.6823 -1.7961
  135OSM   H15G14715   0.791   3.334   8.437 -0.5640 -0.1734  0.3534
  135OSM   C16F14716   0.807   3.264   8.242  0.2089 -0.2282 -1.0953
  135OSM   H16F14717   0.910   3.303   8.228  0.1910  0.3569  0.2296
  135OSM   H16G14718   0.748   3.257   8.148 -0.7729 -2.4230 -0.3779
  135OSM   C17F14719   0.816   3.123   8.284  0.1356  1.4385  0.1123
  135OSM   H17F14720   0.875   3.106   8.377 -1.5659 -3.6016  0.5954
  135OSM   H17G14721   0.860   3.061   8.203  3.2081  1.8448  1.3498
  135OSM   C18F14722   0.681   3.055   8.317  0.7837  0.1699 -0.1261
  135OSM   H18F14723   0.700   2.957   8.364  0.4721  0.6364  1.0030
  135OSM   H18G14724   0.631   3.022   8.223  0.4911  1.1274 -0.3166
  135OSM   H18H14725   0.616   3.113   8.386  0.3048  1.5189 -1.6349
  136OSM      N14726   5.028   4.425   5.867  0.1352 -0.0433 -0.2628
  136OSM    C1514727   4.914   4.433   5.771  0.3038 -1.1497  0.6964
  136OSM   H15A14728   4.949   4.453   5.671 -0.8415  1.0770  0.6628
  136OSM   H15B14729   4.849   4.518   5.788 -1.8395 -2.1252 -1.8498
  136OSM   H15C14730   4.842   4.352   5.771 -0.9589 -0.0715  1.8294
  136OSM    C1414731   5.105   4.306   5.817 -0.4583 -0.3825  0.2922
  136OSM   H14A14732   5.202   4.300   5.864  0.8682 -0.6081 -2.2642
  136OSM   H14B14733   5.124   4.312   5.710 -0.5047 -0.2844  0.2894
  136OSM   H14C14734   5.069   4.207   5.837  0.3178 -1.0150 -1.2405
  136OSM    C1314735   5.115   4.543   5.855  0.4167 -0.0965 -0.3033
  136OSM   H13A14736   5.062   4.632   5.884  0.5036 -0.2528  0.3530
  136OSM   H13B14737   5.155   4.554   5.755 -0.0002 -0.9635 -0.5806
  136OSM   H13C14738   5.197   4.539   5.924 -1.5689  0.3754  2.2370
  136OSM    C1214739   4.989   4.409   6.012  0.3497 -0.1764  0.2559
  136OSM   H12A14740   4.899   4.349   6.001 -0.2874  0.7308  0.4205
  136OSM   H12B14741   4.949   4.505   6.042 -0.4457 -0.3123 -0.3239
  136OSM    C1114742   5.094   4.344   6.104 -0.5022 -0.4995 -0.4396
  136OSM   H11A14743   5.108   4.236   6.082  3.2956 -0.2158 -0.0041
  136OSM   H11B14744   5.049   4.357   6.205 -1.5531 -1.0972 -0.8134
  136OSM      P14745   5.366   4.368   6.141 -0.2682 -0.7168 -0.1983
  136OSM    O1314746   5.374   4.223   6.137 -0.6581  0.0137  0.4791
  136OSM    O1414747   5.474   4.443   6.068  0.5677  0.0869 -0.2255
  136OSM    O1114748   5.374   4.409   6.286 -0.0347 -0.2790 -0.1013
  136OSM    O1214749   5.220   4.414   6.095  0.0045 -0.0348  0.5861
  136OSM    C1S14750   5.268   4.399   6.381 -0.1170  0.7269 -0.0033
  136OSM    H1S14751   5.205   4.311   6.356  0.0785  0.4231  0.5471
  136OSM    H1T14752   5.225   4.501   6.389  1.8102  1.6556 -0.8645
  136OSM     NF14753   5.229   4.321   6.620 -0.0818 -0.6800  0.1867
  136OSM    HNF14754   5.198   4.392   6.683 -0.9335 -1.2737  0.4541
  136OSM    C2S14755   5.333   4.370   6.521 -0.0923  0.1146 -0.2789
  136OSM    H2S14756   5.404   4.285   6.506  0.5566  0.7493 -0.8366
  136OSM    C3S14757   5.415   4.495   6.565 -0.0926 -0.1107 -0.0487
  136OSM    H3S14758   5.347   4.581   6.583  2.1858  1.6070  0.9599
  136OSM     O314759   5.510   4.540   6.467 -0.8026 -0.4339  0.5416
  136OSM    HO314760   5.506   4.488   6.386 -0.3919 -0.5454  0.5901
  136OSM    C4S14761   5.490   4.473   6.691  0.0023 -0.3112  0.3131
  136OSM    H4S14762   5.428   4.505   6.777  0.2137 -1.9388  1.1187
  136OSM    C5S14763   5.612   4.414   6.702 -0.2078 -0.6967  0.2819
  136OSM    H5S14764   5.676   4.391   6.615 -0.0846  0.7839 -0.0495
  136OSM    C6S14765   5.692   4.391   6.833  0.6654 -0.8314  0.0549
  136OSM    H6S14766   5.793   4.437   6.833  0.2169  0.1918  0.3728
  136OSM    H6T14767   5.710   4.281   6.841  1.9418 -0.6243  0.2615
  136OSM    C7S14768   5.624   4.431   6.965  0.1597 -0.4251 -1.0482
  136OSM    H7S14769   5.515   4.409   6.959  0.1795 -0.5284 -1.0267
  136OSM    H7T14770   5.631   4.542   6.973 -1.0062 -0.4724  2.3688
  136OSM    C8S14771   5.704   4.382   7.089 -0.0804 -0.6119  0.6050
  136OSM    H8S14772   5.812   4.409   7.080  0.2025 -1.5454  0.9739
  136OSM    H8T14773   5.697   4.271   7.098  1.3104 -0.6621  1.4528
  136OSM    C9S14774   5.654   4.427   7.225  0.1040  0.0611  0.0384
  136OSM    H9S14775   5.547   4.398   7.225  0.3668 -0.9591  0.1874
  136OSM    H9T14776   5.666   4.537   7.231 -0.3642  0.1512 -0.5602
  136OSM   C10S14777   5.725   4.364   7.343  0.8559 -0.7621  0.2750
  136OSM   H10S14778   5.833   4.349   7.321  0.8662  2.2022 -2.3861
  136OSM   H10T14779   5.688   4.262   7.366  1.9281 -0.6370  2.9452
  136OSM   C11S14780   5.707   4.450   7.471 -0.0149 -0.2106  1.4362
  136OSM   H11S14781   5.601   4.485   7.465 -1.3898 -4.2253 -0.9784
  136OSM   H11T14782   5.770   4.540   7.456 -0.0960 -0.3326  0.2820
  136OSM   C12S14783   5.750   4.374   7.595  0.2933 -0.1471  0.0499
  136OSM   H12S14784   5.811   4.284   7.573  0.0812  0.0862 -1.5719
  136OSM   H12T14785   5.656   4.328   7.635  0.3500  0.5083  0.9806
  136OSM   C13S14786   5.823   4.455   7.701  0.5113 -0.2709 -1.0090
  136OSM   H13S14787   5.746   4.531   7.726  0.6447  0.3421 -2.3557
  136OSM   H13T14788   5.901   4.518   7.653 -0.7003  3.0084  0.9779
  136OSM   C14S14789   5.874   4.377   7.825 -0.5872 -0.0450 -0.1157
  136OSM   H14S14790   5.939   4.298   7.782 -1.3612 -0.8677  0.1915
  136OSM   H14T14791   5.792   4.340   7.891  0.7155 -0.3710  1.3889
  136OSM   C15S14792   5.964   4.463   7.919 -0.5343  0.3493  1.3546
  136OSM   H15S14793   5.898   4.539   7.966 -0.6779  0.1703  1.4408
  136OSM   H15T14794   6.050   4.513   7.869  0.5833 -0.3785  2.4839
  136OSM   C16S14795   6.012   4.381   8.039  0.2887 -0.1366 -0.2940
  136OSM   H16S14796   6.090   4.313   7.999 -2.9511 -4.1862 -0.2822
  136OSM   H16T14797   5.919   4.325   8.063  0.3795  0.2904  1.1511
  136OSM   C17S14798   6.068   4.460   8.162  0.1634  0.5188 -0.6956
  136OSM   H17S14799   6.144   4.528   8.119 -0.6398  1.8082 -0.1280
  136OSM   H17T14800   6.118   4.381   8.223 -1.3945 -2.4488 -2.9656
  136OSM   C18S14801   5.959   4.529   8.235 -0.3769 -0.3019  0.8977
  136OSM   H18S14802   5.878   4.454   8.241 -0.7922 -0.2283 -2.3155
  136OSM   H18T14803   5.912   4.608   8.173 -0.4977 -0.2710  1.0289
  136OSM   H18U14804   5.996   4.554   8.337  0.1167 -3.0466  1.4805
  136OSM    C1F14805   5.159   4.203   6.610 -0.7546 -0.3312  0.2280
  136OSM     OF14806   5.183   4.117   6.528 -0.0325 -0.2307 -0.2638
  136OSM    C2F14807   5.045   4.186   6.702  0.4754 -0.2468  0.6579
  136OSM    H2F14808   4.957   4.251   6.683  0.2909 -0.7335 -0.1919
  136OSM    H2G14809   5.089   4.205   6.802  0.9798 -1.0032  0.5959
  136OSM    C3F14810   5.014   4.037   6.721  0.0909  1.2637 -0.8547
  136OSM    H3F14811   5.109   3.981   6.737  0.2622  2.3542  3.0701
  136OSM    H3G14812   4.964   3.997   6.631 -0.7659  1.4048 -0.4508
  136OSM    C4F14813   4.924   4.027   6.846 -0.8126 -0.2448  0.0095
  136OSM    H4F14814   4.855   3.943   6.823  1.0241 -1.6442 -0.6535
  136OSM    H4G14815   4.855   4.113   6.853  0.0685  0.3611  2.4078
  136OSM    C5F14816   5.003   3.998   6.984  0.7015  0.2240  0.7568
  136OSM    H5F14817   5.072   4.081   7.008 -1.3883  2.0364  0.9021
  136OSM    H5G14818   5.050   3.898   6.976 -1.8933 -0.9496 -3.3199
  136OSM    C6F14819   4.905   3.984   7.102  0.4862 -0.1897  0.4181
  136OSM    H6F14820   4.842   3.897   7.074  0.9785 -0.3516 -0.2224
  136OSM    H6G14821   4.850   4.078   7.081  0.5775 -0.0377  0.8552
  136OSM    C7F14822   4.969   3.986   7.241 -0.9447  0.7063  0.5863
  136OSM    H7F14823   5.050   4.062   7.232 -0.3657 -0.0199 -0.4614
  136OSM    H7G14824   5.016   3.886   7.249 -0.1443  0.8402 -1.7167
  136OSM    C8F14825   4.882   4.022   7.358  0.1957 -0.3463  0.0104
  136OSM    H8F14826   4.783   3.976   7.339 -0.8886  1.5137  0.9802
  136OSM    H8G14827   4.864   4.131   7.348 -1.6425 -0.6793 -0.6093
  136OSM    C9F14828   4.956   4.000   7.489 -0.5320 -0.0656  0.7016
  136OSM    H9F14829   5.065   4.010   7.485 -0.3987 -1.6129 -1.6717
  136OSM   C10F14830   4.899   3.952   7.600  0.4907 -1.1756 -0.5461
  136OSM   H10F14831   4.958   3.922   7.688 -1.4669 -1.3060  0.7995
  136OSM   C11F14832   4.754   3.921   7.622  0.4986 -0.0692 -0.4486
  136OSM   H11F14833   4.731   3.834   7.557  1.7870 -0.5058 -0.3563
  136OSM   H11G14834   4.679   3.997   7.593  1.9008  1.3212 -0.5670
  136OSM   C12F14835   4.744   3.887   7.770  0.3090  0.5966 -0.3015
  136OSM   H12F14836   4.813   3.810   7.812 -1.5436 -0.0040  1.8446
  136OSM   H12G14837   4.638   3.856   7.782  1.1982 -2.0233  2.1653
  136OSM   C13F14838   4.757   4.016   7.865 -0.4663  0.0526 -0.0007
  136OSM   H13F14839   4.687   4.091   7.823 -3.4354 -2.4060  0.1839
  136OSM   H13G14840   4.861   4.054   7.857 -0.8032  1.2899  1.2103
  136OSM   C14F14841   4.738   3.977   8.017 -0.2064  0.1073  0.9346
  136OSM   H14F14842   4.645   3.917   8.021  0.9060 -1.7618 -0.0545
  136OSM   H14G14843   4.723   4.069   8.077  1.1062 -0.0408  1.5128
  136OSM   C15F14844   4.863   3.904   8.081  0.0096  0.6490 -0.6322
  136OSM   H15F14845   4.949   3.957   8.035  0.5950 -1.5079 -2.1293
  136OSM   H15G14846   4.874   3.799   8.046  3.0248  1.2236 -1.6476
  136OSM   C16F14847   4.887   3.923   8.229 -0.8349  0.0110  0.1675
  136OSM   H16F14848   4.947   4.013   8.256 -2.2353  0.3675  2.3331
  136OSM   H16G14849   4.948   3.838   8.267 -1.7647 -0.4729  0.6264
  136OSM   C17F14850   4.757   3.924   8.305  0.4694  0.3168  0.0626
  136OSM   H17F14851   4.697   3.835   8.278  3.2846 -1.6365 -0.1833
  136OSM   H17G14852   4.699   4.017   8.287  1.7563  1.0588 -0.4640
  136OSM   C18F14853   4.765   3.924   8.454  0.5848  0.3481 -0.4342
  136OSM   H18F14854   4.661   3.920   8.493  0.2372 -0.5420 -1.4074
  136OSM   H18G14855   4.816   4.015   8.492 -0.3219  1.1495 -1.0950
  136OSM   H18H14856   4.820   3.836   8.495 -1.1333  0.6191  2.7781
  137OSM      N14857   2.052   2.991   6.248 -0.4597  0.5549 -0.1498
  137OSM    C1514858   1.942   3.088   6.209  0.1062  0.3939 -0.5069
  137OSM   H15A14859   1.927   3.074   6.103  1.4853  0.1400 -0.6859
  137OSM   H15B14860   1.980   3.187   6.229 -1.4307  0.6465  1.5423
  137OSM   H15C14861   1.863   3.069   6.280  1.6920  1.3469  1.5968
  137OSM    C1414862   2.027   2.856   6.182 -0.2491  0.3473 -0.7337
  137OSM   H14A14863   2.001   2.862   6.078  0.0521 -0.9699 -0.8966
  137OSM   H14B14864   1.963   2.793   6.242  0.7039  0.5629  0.5666
  137OSM   H14C14865   2.116   2.795   6.178 -0.2086  0.0978  2.0034
  137OSM    C1314866   2.179   3.049   6.186  0.8334  0.4911 -0.3231
  137OSM   H13A14867   2.167   3.080   6.083 -0.0925  4.2708  0.7761
  137OSM   H13B14868   2.271   2.993   6.198 -0.0422 -0.9503 -0.0219
  137OSM   H13C14869   2.185   3.143   6.239 -2.5463  0.2775  0.7170
  137OSM    C1214870   2.057   2.979   6.403  0.3332  0.1877 -0.1981
  137OSM   H12A14871   1.957   2.974   6.442  0.4702  2.0204  0.4857
  137OSM   H12B14872   2.087   3.072   6.450  1.8374 -0.0218 -0.6942
  137OSM    C1114873   2.152   2.877   6.466 -0.2184 -0.4222 -0.3655
  137OSM   H11A14874   2.122   2.786   6.410 -1.5560 -0.2006 -0.0528
  137OSM   H11B14875   2.135   2.867   6.575 -0.3582 -1.0564 -0.4439
  137OSM      P14876   2.397   2.789   6.406  0.5644  0.2399 -0.0107
  137OSM    O1314877   2.361   2.714   6.282 -0.1615 -0.4413 -0.6129
  137OSM    O1414878   2.526   2.860   6.408  0.1124  0.7744  0.2261
  137OSM    O1114879   2.391   2.692   6.534  0.0230  0.0331  0.2145
  137OSM    O1214880   2.291   2.904   6.440 -0.0371 -0.5429 -0.3555
  137OSM    C1S14881   2.488   2.709   6.643 -0.1037  0.4972 -0.0537
  137OSM    H1S14882   2.583   2.740   6.595  0.0676  3.3235  1.8756
  137OSM    H1T14883   2.493   2.611   6.696 -0.9630  0.4968  0.0365
  137OSM     NF14884   2.563   2.862   6.823  0.4391 -0.2047 -0.2225
  137OSM    HNF14885   2.578   2.832   6.917  0.9449  0.0271 -0.2247
  137OSM    C2S14886   2.449   2.811   6.748  0.8659  1.1323  0.2968
  137OSM    H2S14887   2.406   2.900   6.698  1.2425  2.5706  2.4041
  137OSM    C3S14888   2.337   2.757   6.839 -0.2718 -0.4259 -0.1238
  137OSM    H3S14889   2.369   2.672   6.903  2.2810  1.5630  1.4181
  137OSM     O314890   2.231   2.700   6.767 -0.3694 -0.0872 -0.7214
  137OSM    HO314891   2.268   2.705   6.678  1.0681  2.0308 -0.0732
  137OSM    C4S14892   2.280   2.863   6.933 -0.1529  0.5937 -0.0470
  137OSM    H4S14893   2.210   2.933   6.884 -0.5114  1.1500  1.2258
  137OSM    C5S14894   2.294   2.864   7.068  0.4163  0.0401 -0.2199
  137OSM    H5S14895   2.356   2.783   7.109  1.4088  0.3150 -1.1167
  137OSM    C6S14896   2.236   2.971   7.159  0.0859  0.1608  0.4146
  137OSM    H6S14897   2.139   2.933   7.199 -0.8570  0.3433 -1.5573
  137OSM    H6T14898   2.224   3.064   7.100  0.3627  0.0341  0.1562
  137OSM    C7S14899   2.334   3.019   7.271 -0.1174  1.2175 -0.1882
  137OSM    H7S14900   2.427   3.068   7.233  1.0048 -1.7990 -1.7078
  137OSM    H7T14901   2.374   2.921   7.302 -1.0182  0.8037 -0.3037
  137OSM    C8S14902   2.270   3.082   7.393 -0.1132  0.3894 -0.0344
  137OSM    H8S14903   2.190   3.010   7.420 -0.0444 -0.3487 -1.7206
  137OSM    H8T14904   2.219   3.176   7.362  1.7884  0.8277 -2.0554
  137OSM    C9S14905   2.377   3.094   7.505  0.0152 -0.3255 -0.5316
  137OSM    H9S14906   2.457   3.165   7.476  0.6588 -0.7179  0.2552
  137OSM    H9T14907   2.416   2.992   7.524 -1.6150 -0.9630 -0.4161
  137OSM   C10S14908   2.319   3.137   7.644  0.3665 -0.0618  0.1004
  137OSM   H10S14909   2.232   3.070   7.660 -1.8479  2.4946 -0.4705
  137OSM   H10T14910   2.266   3.232   7.622  1.4932  0.1328 -1.9413
  137OSM   C11S14911   2.408   3.140   7.761  0.9950  0.2547  0.4867
  137OSM   H11S14912   2.507   3.182   7.736  0.4725  1.3578  0.1951
  137OSM   H11T14913   2.423   3.031   7.775  0.1058  0.0965  0.3174
  137OSM   C12S14914   2.334   3.182   7.882  0.0708 -0.0323  0.3654
  137OSM   H12S14915   2.234   3.133   7.878 -0.6165  1.3688 -0.4733
  137OSM   H12T14916   2.313   3.290   7.869 -3.2161 -0.5622  0.2146
  137OSM   C13S14917   2.416   3.158   8.007 -0.2061 -0.4925  0.3241
  137OSM   H13S14918   2.512   3.206   7.979 -0.8951  1.4358  1.1369
  137OSM   H13T14919   2.429   3.048   8.020 -0.4528 -0.5411  0.1697
  137OSM   C14S14920   2.348   3.219   8.135 -0.4976 -0.0288 -0.0191
  137OSM   H14S14921   2.245   3.178   8.134  0.3796 -2.3739 -1.2734
  137OSM   H14T14922   2.342   3.329   8.121 -0.1611 -0.0814 -0.5966
  137OSM   C15S14923   2.407   3.184   8.265 -0.1201  0.8166  0.5639
  137OSM   H15S14924   2.370   3.252   8.345 -0.0307 -0.5703  1.8215
  137OSM   H15T14925   2.518   3.193   8.264  0.3205 -3.1490  0.2272
  137OSM   C16S14926   2.371   3.038   8.311 -0.2535 -0.0986  0.1608
  137OSM   H16S14927   2.396   2.974   8.224 -2.2493  1.0882 -1.3795
  137OSM   H16T14928   2.260   3.036   8.321 -0.2854 -0.2658 -0.2303
  137OSM   C17S14929   2.424   2.984   8.441 -0.1433 -0.4176 -0.0882
  137OSM   H17S14930   2.453   3.067   8.508 -0.1087  0.6118 -1.3576
  137OSM   H17T14931   2.523   2.938   8.423  1.0619  1.9973  0.0493
  137OSM   C18S14932   2.335   2.879   8.515 -1.1766  0.3924  0.1957
  137OSM   H18S14933   2.383   2.851   8.611 -0.3709  1.2941  0.0851
  137OSM   H18T14934   2.332   2.788   8.452  1.5414 -1.6441  2.7361
  137OSM   H18U14935   2.238   2.930   8.529 -0.7840  1.7677 -1.6065
  137OSM    C1F14936   2.657   2.940   6.769  0.3526 -0.3694 -0.3811
  137OSM     OF14937   2.661   2.981   6.651  0.2064 -0.4323 -0.4068
  137OSM    C2F14938   2.776   2.950   6.855 -0.2607 -0.5871  0.7387
  137OSM    H2F14939   2.866   2.941   6.790  0.6448 -2.0575  2.1413
  137OSM    H2G14940   2.774   2.870   6.931 -0.2476 -1.1204  0.1797
  137OSM    C3F14941   2.784   3.089   6.926  0.6091  0.1982  0.3778
  137OSM    H3F14942   2.683   3.112   6.966  0.4151 -0.9691  0.5818
  137OSM    H3G14943   2.810   3.150   6.837 -0.7805  1.0853  0.5537
  137OSM    C4F14944   2.878   3.100   7.053  0.3390 -0.2720 -0.2419
  137OSM    H4F14945   2.966   3.039   7.020  1.1720 -1.1591  3.1937
  137OSM    H4G14946   2.821   3.052   7.136  1.4299  0.3285  0.9047
  137OSM    C5F14947   2.913   3.245   7.069 -0.1001  0.4458  0.0556
  137OSM    H5F14948   2.816   3.296   7.087  0.6453  0.6630  4.6389
  137OSM    H5G14949   2.951   3.294   6.976  0.1132  2.5429  1.2015
  137OSM    C6F14950   3.018   3.280   7.183  1.0866 -0.0974  0.4973
  137OSM    H6F14951   3.042   3.388   7.193  2.2437 -0.2492 -0.4822
  137OSM    H6G14952   3.111   3.227   7.155 -0.2454 -0.9476 -2.8756
  137OSM    C7F14953   2.984   3.220   7.321 -0.0214  0.4063  0.4723
  137OSM    H7F14954   3.065   3.252   7.390 -3.0923  0.8768  4.2104
  137OSM    H7G14955   2.977   3.109   7.322 -1.3897  0.4724  1.5141
  137OSM    C8F14956   2.861   3.276   7.384  0.1326 -0.0214  0.2165
  137OSM    H8F14957   2.782   3.288   7.307 -1.0287 -0.8230  1.2484
  137OSM    H8G14958   2.873   3.381   7.418  1.9226 -0.4310  0.9570
  137OSM    C9F14959   2.804   3.193   7.494 -0.0914 -0.4303 -0.0082
  137OSM    H9F14960   2.763   3.099   7.455 -2.2520 -0.3902  1.9264
  137OSM   C10F14961   2.790   3.224   7.625  0.0767 -0.2118  0.3119
  137OSM   H10F14962   2.736   3.146   7.681 -0.4106 -2.4622 -3.0089
  137OSM   C11F14963   2.835   3.346   7.688 -0.4908 -0.3441  0.0914
  137OSM   H11F14964   2.755   3.419   7.712 -1.2846 -1.5601  1.3407
  137OSM   H11G14965   2.897   3.406   7.618  0.3170 -0.1423  0.9732
  137OSM   C12F14966   2.911   3.312   7.817  0.4557 -0.1048 -0.0800
  137OSM   H12F14967   2.966   3.406   7.840 -1.2600  0.7654  0.6525
  137OSM   H12G14968   2.996   3.241   7.808  1.0807  0.4493  1.2511
  137OSM   C13F14969   2.820   3.266   7.927 -0.1277  0.2365  0.1484
  137OSM   H13F14970   2.815   3.155   7.918 -0.0229  0.1968  0.5470
  137OSM   H13G14971   2.717   3.305   7.910  0.0529  0.4175 -0.5546
  137OSM   C14F14972   2.865   3.300   8.071 -0.1632  0.2817 -0.2253
  137OSM   H14F14973   2.785   3.251   8.131 -0.1448  0.9240  0.3417
  137OSM   H14G14974   2.864   3.411   8.083  3.0001  0.4861 -1.1135
  137OSM   C15F14975   3.007   3.248   8.101  0.3880 -0.5556 -0.1722
  137OSM   H15F14976   3.074   3.318   8.047 -0.0223 -1.5662 -2.0912
  137OSM   H15G14977   2.996   3.144   8.063 -3.8891  0.0624 -1.1600
  137OSM   C16F14978   3.042   3.236   8.248 -0.5866  0.3497  0.3433
  137OSM   H16F14979   3.123   3.162   8.265 -0.0044  1.0487  0.6987
  137OSM   H16G14980   2.958   3.188   8.303 -0.1792 -0.4750  0.2638
  137OSM   C17F14981   3.065   3.370   8.325  0.2751 -0.1777 -0.6695
  137OSM   H17F14982   3.069   3.327   8.427  0.7216  1.4279  0.0214
  137OSM   H17G14983   2.978   3.439   8.324  0.7325  0.4692  0.8180
  137OSM   C18F14984   3.187   3.461   8.302 -0.0627 -0.5422 -0.2887
  137OSM   H18F14985   3.192   3.540   8.380 -0.9155 -0.0895 -0.6911
  137OSM   H18G14986   3.182   3.511   8.203  0.7820  0.1891  0.0274
  137OSM   H18H14987   3.280   3.402   8.320  0.2564  0.5921  2.2492
  138OSM      N14988   2.529   4.500   5.752 -0.4437  0.4089  0.3291
  138OSM    C1514989   2.392   4.543   5.731 -0.6794 -0.0530  0.0613
  138OSM   H15A14990   2.395   4.636   5.677 -3.8563 -0.8996 -1.8320
  138OSM   H15B14991   2.342   4.570   5.823  0.2699  0.9338  0.2992
  138OSM   H15C14992   2.334   4.478   5.667  1.3435 -1.2729 -0.6492
  138OSM    C1414993   2.530   4.362   5.806  0.1793 -0.2354  0.4848
  138OSM   H14A14994   2.517   4.362   5.914  0.5515  0.9757  0.5518
  138OSM   H14B14995   2.621   4.309   5.783 -0.4430 -2.5387  2.8430
  138OSM   H14C14996   2.456   4.302   5.756 -1.3461  1.5673  0.4555
  138OSM    C1314997   2.606   4.501   5.624 -0.7829  0.0612  0.5790
  138OSM   H13A14998   2.713   4.505   5.641 -0.5795  1.9362 -0.8263
  138OSM   H13B14999   2.587   4.590   5.566 -0.7391 -0.1354  0.2608
  138OSM   H13C15000   2.584   4.418   5.559  1.3831  0.0072 -0.1674
  138OSM    C1215001   2.596   4.595   5.856  0.0711 -0.0295  1.0785
  138OSM   H12A15002   2.635   4.685   5.811  0.2889 -0.5643  0.1823
  138OSM   H12B15003   2.690   4.549   5.881  1.0220  0.8868 -0.6260
  138OSM    C1115004   2.522   4.620   5.991  0.2396 -0.1846  0.4147
  138OSM   H11A15005   2.581   4.676   6.068 -0.8492  0.8428  0.5371
  138OSM   H11B15006   2.488   4.521   6.027 -3.5481  0.7982 -0.0829
  138OSM      P15007   2.409   4.846   5.940  0.5922 -0.3891  0.2802
  138OSM    O1315008   2.514   4.870   5.841 -0.0411 -0.4116 -0.5338
  138OSM    O1415009   2.273   4.897   5.917  0.2650  0.1330 -0.3454
  138OSM    O1115010   2.463   4.899   6.079 -0.0602  0.4473  0.2278
  138OSM    O1215011   2.399   4.692   5.969  0.5102  0.2012 -0.5315
  138OSM    C1S15012   2.392   4.882   6.199 -0.4489 -0.4773 -0.1573
  138OSM    H1S15013   2.375   4.772   6.208  1.1634 -0.7212  0.1429
  138OSM    H1T15014   2.292   4.931   6.193  0.1087  0.4703 -2.5506
  138OSM     NF15015   2.389   4.899   6.450 -0.3188 -0.6861  0.1452
  138OSM    HNF15016   2.349   4.981   6.490 -1.0534 -1.5573  1.2636
  138OSM    C2S15017   2.465   4.915   6.331  0.1541 -0.2442 -0.3072
  138OSM    H2S15018   2.559   4.855   6.338 -0.5752 -1.3767 -0.0774
  138OSM    C3S15019   2.517   5.062   6.321 -0.4952  0.4103 -0.4109
  138OSM    H3S15020   2.426   5.123   6.335  0.7610  1.6711  3.7145
  138OSM     O315021   2.568   5.108   6.198 -0.6933 -0.1907  0.8902
  138OSM    HO315022   2.533   5.041   6.140 -0.0027  0.0441  0.1749
  138OSM    C4S15023   2.606   5.095   6.430  0.1876  0.4012 -0.7546
  138OSM    H4S15024   2.670   5.010   6.461 -1.1184 -0.3610 -0.0763
  138OSM    C5S15025   2.623   5.212   6.496  0.4048 -0.3567  0.4593
  138OSM    H5S15026   2.564   5.298   6.464 -0.3865 -0.6168  1.1888
  138OSM    C6S15027   2.719   5.217   6.611  0.1566 -0.5194  0.4463
  138OSM    H6S15028   2.802   5.289   6.593 -0.5326  0.4538  1.1034
  138OSM    H6T15029   2.762   5.118   6.636  0.6109 -0.2039  0.9143
  138OSM    C7S15030   2.655   5.255   6.747  1.0623  0.1056  0.7951
  138OSM    H7S15031   2.581   5.177   6.772 -0.0771  0.8964 -0.0171
  138OSM    H7T15032   2.608   5.354   6.727  1.4096  0.1914  0.3808
  138OSM    C8S15033   2.753   5.256   6.866  0.1711  0.0664 -0.1186
  138OSM    H8S15034   2.840   5.322   6.845 -0.8281  2.1142  1.8255
  138OSM    H8T15035   2.778   5.148   6.868  2.1730  0.4719 -0.7578
  138OSM    C9S15036   2.693   5.306   6.991 -0.0103  0.1180 -0.3174
  138OSM    H9S15037   2.599   5.248   7.001 -0.7473  1.3802  0.3589
  138OSM    H9T15038   2.666   5.413   6.981 -1.0440 -0.0945  0.0093
  138OSM   C10S15039   2.770   5.276   7.114 -0.1660 -0.0365 -0.2223
  138OSM   H10S15040   2.857   5.345   7.107  0.4377 -0.9608 -2.8473
  138OSM   H10T15041   2.806   5.171   7.113  0.0183 -0.1115  3.0545
  138OSM   C11S15042   2.694   5.307   7.249  0.3850 -0.0179  0.5074
  138OSM   H11S15043   2.612   5.233   7.265  1.2197 -0.8149  1.2756
  138OSM   H11T15044   2.647   5.406   7.234  1.2864  0.4802  0.8404
  138OSM   C12S15045   2.791   5.301   7.380  0.5040  0.0426  0.2650
  138OSM   H12S15046   2.870   5.378   7.373  0.6435 -0.2626 -2.1240
  138OSM   H12T15047   2.836   5.200   7.377  0.6712  0.0812  1.1371
  138OSM   C13S15048   2.717   5.318   7.511  0.1572 -0.0186  0.4469
  138OSM   H13S15049   2.639   5.239   7.512 -1.1991  1.2836  0.9351
  138OSM   H13T15050   2.669   5.418   7.514 -3.0852 -1.4841  1.1322
  138OSM   C14S15051   2.804   5.280   7.635 -0.0717 -0.2386  0.1199
  138OSM   H14S15052   2.885   5.354   7.653 -1.4091  0.6964  2.8085
  138OSM   H14T15053   2.846   5.177   7.635 -2.3505 -1.2316  0.5074
  138OSM   C15S15054   2.714   5.291   7.756  0.2165  0.5347  0.3318
  138OSM   H15S15055   2.608   5.266   7.732  1.1534 -1.6216 -2.1548
  138OSM   H15T15056   2.718   5.393   7.798 -0.0503  1.2207 -1.2396
  138OSM   C16S15057   2.769   5.212   7.875 -0.6935  0.4937 -0.0868
  138OSM   H16S15058   2.867   5.251   7.909 -0.6439  1.7682 -1.5825
  138OSM   H16T15059   2.773   5.102   7.859 -0.3720  0.7424 -2.0413
  138OSM   C17S15060   2.680   5.237   7.998 -0.0734  0.0258  0.3471
  138OSM   H17S15061   2.576   5.220   7.962 -0.4519  0.4735  1.2015
  138OSM   H17T15062   2.684   5.346   8.021  0.2345  0.1896 -0.4655
  138OSM   C18S15063   2.699   5.149   8.123 -0.4894  0.0224 -0.1651
  138OSM   H18S15064   2.795   5.167   8.175 -0.8530 -0.9759  0.8767
  138OSM   H18T15065   2.701   5.043   8.090 -0.7797 -0.7343  2.1106
  138OSM   H18U15066   2.615   5.155   8.195 -0.9288 -1.1641 -0.5534
  138OSM    C1F15067   2.357   4.781   6.501  0.3760 -0.0866  0.4347
  138OSM     OF15068   2.414   4.684   6.455 -0.1244 -0.1338 -0.4550
  138OSM    C2F15069   2.249   4.781   6.613 -0.2674 -0.3025 -0.0403
  138OSM    H2F15070   2.207   4.679   6.624 -0.6404 -0.2478 -0.9138
  138OSM    H2G15071   2.167   4.851   6.590 -0.2093 -0.5531 -1.0380
  138OSM    C3F15072   2.321   4.812   6.746  0.5148 -0.4415 -0.6075
  138OSM    H3F15073   2.359   4.915   6.732 -1.0622  0.0795 -1.2671
  138OSM    H3G15074   2.407   4.748   6.775  2.4468  2.7264  1.1608
  138OSM    C4F15075   2.223   4.814   6.861  0.4901 -0.0884 -0.4348
  138OSM    H4F15076   2.176   4.714   6.858 -0.0257  0.1787 -1.4404
  138OSM    H4G15077   2.147   4.892   6.839  0.8266  0.1043 -0.9395
  138OSM    C5F15078   2.281   4.820   7.005 -0.6349 -0.6891  0.2943
  138OSM    H5F15079   2.384   4.781   7.015 -0.5619 -1.1996 -2.0308
  138OSM    H5G15080   2.209   4.766   7.070  0.6924 -0.9261  1.6354
  138OSM    C6F15081   2.284   4.956   7.069 -0.3751 -0.2713  0.1896
  138OSM    H6F15082   2.186   5.005   7.051  1.3463  2.8717 -1.5415
  138OSM    H6G15083   2.365   5.004   7.009  0.5570 -1.5761  0.3321
  138OSM    C7F15084   2.323   4.959   7.211 -0.2622  0.0900 -0.6402
  138OSM    H7F15085   2.360   5.059   7.243 -0.8935 -0.2107  1.1433
  138OSM    H7G15086   2.403   4.885   7.229  1.4566  1.9610 -0.1857
  138OSM    C8F15087   2.220   4.911   7.318 -0.1979  0.5992 -0.5653
  138OSM    H8F15088   2.277   4.873   7.405  1.2123  2.2087 -0.7383
  138OSM    H8G15089   2.182   4.809   7.296  0.2313  0.2427  0.2894
  138OSM    C9F15090   2.109   5.006   7.351  0.8125  0.1111  0.4378
  138OSM    H9F15091   2.037   5.026   7.270  1.0207  0.6407  0.3779
  138OSM   C10F15092   2.077   5.066   7.463  0.4105 -0.2547  0.0838
  138OSM   H10F15093   1.988   5.132   7.460 -0.9256 -1.9947 -0.2582
  138OSM   C11F15094   2.145   5.065   7.599 -0.7084  0.1789 -0.1136
  138OSM   H11F15095   2.200   5.160   7.617  0.1972 -0.5337  1.0781
  138OSM   H11G15096   2.227   4.989   7.597 -1.3870 -0.5772  0.3106
  138OSM   C12F15097   2.050   5.048   7.712 -0.6721 -0.8540 -0.8261
  138OSM   H12F15098   2.110   5.045   7.806  1.3596 -2.0865 -2.0794
  138OSM   H12G15099   1.990   4.955   7.707 -2.7331  0.4452 -1.3204
  138OSM   C13F15100   1.961   5.179   7.727 -0.5373  0.7676 -0.4451
  138OSM   H13F15101   1.861   5.156   7.684 -0.6239  1.0782 -0.4140
  138OSM   H13G15102   2.016   5.258   7.671  1.5439 -1.8653 -2.3387
  138OSM   C14F15103   1.937   5.212   7.877 -0.3477  0.2901 -0.1010
  138OSM   H14F15104   2.029   5.224   7.938 -1.1792  1.4090  0.9710
  138OSM   H14G15105   1.882   5.129   7.926 -1.9113  0.6220 -1.2101
  138OSM   C15F15106   1.850   5.335   7.896 -1.2173 -0.1827 -0.3937
  138OSM   H15F15107   1.792   5.350   7.803 -1.8444 -2.6020 -0.4788
  138OSM   H15G15108   1.919   5.420   7.917 -1.1950 -0.3037  0.0279
  138OSM   C16F15109   1.765   5.336   8.020 -0.1258  0.3927  0.4228
  138OSM   H16F15110   1.823   5.306   8.110  0.4562  0.3239  0.0245
  138OSM   H16G15111   1.677   5.268   8.020  1.1850 -1.4118  1.7551
  138OSM   C17F15112   1.704   5.473   8.042  0.0993 -0.2500  0.4057
  138OSM   H17F15113   1.669   5.509   7.942 -0.6716 -2.7371 -0.3001
  138OSM   H17G15114   1.784   5.547   8.063 -0.9777  1.0513  0.0667
  138OSM   C18F15115   1.601   5.496   8.152  0.1675 -0.4336 -0.3174
  138OSM   H18F15116   1.531   5.412   8.138  1.6124 -1.8204  0.4213
  138OSM   H18G15117   1.537   5.586   8.149 -0.9260 -1.2107 -0.7894
  138OSM   H18H15118   1.657   5.490   8.248  0.7144 -2.2257 -0.7101
  139OSM      N15119   1.455   5.650   6.288  0.3474  0.9078 -0.6134
  139OSM    C1515120   1.407   5.770   6.358  0.8941 -0.4956  0.2998
  139OSM   H15A15121   1.391   5.851   6.288 -0.5301 -0.4472  0.6467
  139OSM   H15B15122   1.480   5.807   6.428  0.0592  0.9731  0.4503
  139OSM   H15C15123   1.306   5.761   6.395  0.5801 -0.7091 -0.5817
  139OSM    C1415124   1.491   5.545   6.379 -0.0204 -0.1641  0.1298
  139OSM   H14A15125   1.415   5.532   6.455 -0.6106 -3.4766 -0.8709
  139OSM   H14B15126   1.581   5.567   6.435 -0.1737  1.2141 -0.1266
  139OSM   H14C15127   1.517   5.451   6.332 -1.1148 -0.4594  0.0930
  139OSM    C1315128   1.337   5.605   6.208  0.5045  0.3822  0.7719
  139OSM   H13A15129   1.306   5.693   6.152 -0.3173  2.4249  4.1388
  139OSM   H13B15130   1.257   5.571   6.272 -0.9429 -0.4249 -1.3554
  139OSM   H13C15131   1.353   5.520   6.144  0.0239  0.5399  0.4367
  139OSM    C1215132   1.577   5.676   6.198 -0.0760 -0.4000  0.0249
  139OSM   H12A15133   1.605   5.586   6.145 -1.0622 -0.6981 -0.0191
  139OSM   H12B15134   1.666   5.698   6.254 -0.2904 -0.4386  0.3858
  139OSM    C1115135   1.562   5.804   6.104 -0.0521  0.5656 -0.0580
  139OSM   H11A15136   1.459   5.793   6.063 -0.2303  1.0011  0.2714
  139OSM   H11B15137   1.618   5.803   6.008  0.6301 -2.3072  0.2769
  139OSM      P15138   1.725   5.987   6.200 -0.4150  0.4536  0.1480
  139OSM    O1315139   1.786   5.899   6.306 -0.0214 -0.3452  0.3856
  139OSM    O1415140   1.801   6.010   6.075 -0.2853  0.0941  0.3689
  139OSM    O1115141   1.690   6.129   6.256 -0.2576 -0.5109 -0.1865
  139OSM    O1215142   1.580   5.932   6.172  0.2090  0.3712 -0.3288
  139OSM    C1S15143   1.617   6.154   6.375 -0.3138  0.7430 -0.4095
  139OSM    H1S15144   1.546   6.072   6.400  2.8971 -2.5446 -1.2232
  139OSM    H1T15145   1.550   6.243   6.373  1.1891  2.0027  1.2880
  139OSM     NF15146   1.638   6.118   6.636 -0.1605 -0.2175  0.4167
  139OSM    HNF15147   1.596   6.189   6.692  2.2692 -0.2663  2.5115
  139OSM    C2S15148   1.707   6.166   6.511  0.1025 -0.2296 -0.3773
  139OSM    H2S15149   1.801   6.109   6.497  0.7454  0.7890 -0.3046
  139OSM    C3S15150   1.759   6.313   6.507  0.8010  0.3147 -0.0317
  139OSM    H3S15151   1.675   6.383   6.526  1.1695  1.7344 -3.0095
  139OSM     O315152   1.824   6.363   6.385  0.2608 -0.0749 -0.3600
  139OSM    HO315153   1.812   6.292   6.322 -0.6307  0.8753 -1.2969
  139OSM    C4S15154   1.841   6.342   6.629  0.0652  0.2521  0.3064
  139OSM    H4S15155   1.782   6.341   6.722  1.1499  3.5371  1.1605
  139OSM    C5S15156   1.972   6.351   6.637  0.1611  0.0186 -0.0498
  139OSM    H5S15157   2.031   6.328   6.547 -1.0041 -0.8171 -0.6295
  139OSM    C6S15158   2.051   6.386   6.761 -0.1272 -0.2014 -0.5151
  139OSM    H6S15159   2.102   6.483   6.743 -0.3254 -0.0346 -0.1858
  139OSM    H6T15160   2.127   6.306   6.774  0.0917 -0.4481 -2.8465
  139OSM    C7S15161   1.965   6.412   6.890 -0.0318 -0.3853  0.7363
  139OSM    H7S15162   1.897   6.324   6.894 -0.8549  0.2017  0.1709
  139OSM    H7T15163   1.906   6.505   6.880  3.3662  1.9984  1.3159
  139OSM    C8S15164   2.045   6.430   7.018 -0.9494 -0.7392 -0.0874
  139OSM    H8S15165   2.129   6.501   7.008  1.0512 -2.6411  1.9596
  139OSM    H8T15166   2.099   6.334   7.035 -2.4187 -1.3757  1.2635
  139OSM    C9S15167   1.959   6.449   7.140 -0.7726 -0.1868  0.0759
  139OSM    H9S15168   1.870   6.383   7.145 -2.0553  1.5457  1.7330
  139OSM    H9T15169   1.925   6.555   7.144 -1.9644 -0.4766 -1.4839
  139OSM   C10S15170   2.041   6.441   7.274 -0.8188  0.0270 -0.5983
  139OSM   H10S15171   2.135   6.499   7.263 -0.5140 -0.3845 -0.2178
  139OSM   H10T15172   2.075   6.337   7.294 -1.8926 -0.0497  1.0455
  139OSM   C11S15173   1.962   6.488   7.402  0.1310 -0.1992  0.6051
  139OSM   H11S15174   1.867   6.432   7.397 -0.0580  0.0171  1.5725
  139OSM   H11T15175   1.943   6.597   7.391  0.6775  0.0243  1.7614
  139OSM   C12S15176   2.049   6.468   7.531 -0.0762 -0.7602  0.1197
  139OSM   H12S15177   2.141   6.530   7.539 -0.4788 -0.2025  0.5042
  139OSM   H12T15178   2.082   6.363   7.541 -0.6160 -0.7617  2.4978
  139OSM   C13S15179   1.972   6.503   7.661 -0.4658 -0.7261  0.3008
  139OSM   H13S15180   1.878   6.443   7.661 -2.1429  1.5459 -2.9399
  139OSM   H13T15181   1.945   6.611   7.652 -0.7480 -0.9441 -2.3738
  139OSM   C14S15182   2.035   6.475   7.799 -0.2742 -0.4442  0.3958
  139OSM   H14S15183   2.129   6.533   7.809  0.3067 -1.5666  1.8735
  139OSM   H14T15184   2.059   6.366   7.802  0.4824 -0.2852  0.3129
  139OSM   C15S15185   1.941   6.498   7.920 -0.4320 -0.2798  0.1682
  139OSM   H15S15186   1.909   6.604   7.914  0.9604  0.1123 -0.9131
  139OSM   H15T15187   2.002   6.490   8.013 -0.2618  1.9858  0.3069
  139OSM   C16S15188   1.818   6.409   7.931 -0.2971  0.3291 -0.1571
  139OSM   H16S15189   1.842   6.307   7.893 -0.2552  0.7268 -1.2447
  139OSM   H16T15190   1.736   6.450   7.868 -0.7088 -0.9657 -0.4941
  139OSM   C17S15191   1.773   6.397   8.078  0.0293  0.2495  0.5405
  139OSM   H17S15192   1.859   6.353   8.133 -1.9916 -3.2998  1.1150
  139OSM   H17T15193   1.695   6.320   8.094  1.1463 -0.8423  0.8825
  139OSM   C18S15194   1.729   6.523   8.153  0.1757  0.3682 -0.3208
  139OSM   H18S15195   1.806   6.603   8.151  0.5385  0.1567  2.2414
  139OSM   H18T15196   1.694   6.501   8.256 -0.9213 -0.4812 -0.8476
  139OSM   H18U15197   1.627   6.554   8.120 -0.9319 -0.8322  1.7337
  139OSM    C1F15198   1.617   5.985   6.660 -0.1078  0.3312  0.1712
  139OSM     OF15199   1.665   5.904   6.585 -0.0296  0.1178  0.8681
  139OSM    C2F15200   1.544   5.946   6.790 -1.0157  0.7454 -0.2603
  139OSM    H2F15201   1.444   5.993   6.775 -1.2763  0.1749 -0.3721
  139OSM    H2G15202   1.594   5.996   6.875  1.4088 -1.3338 -0.3281
  139OSM    C3F15203   1.539   5.792   6.813 -0.4291 -0.0053  0.0502
  139OSM    H3F15204   1.637   5.739   6.810 -1.7222 -2.6359  0.7658
  139OSM    H3G15205   1.483   5.755   6.724  1.6046 -1.6416 -0.6387
  139OSM    C4F15206   1.473   5.753   6.947  0.0141  0.0351  0.0142
  139OSM    H4F15207   1.464   5.642   6.943 -1.8118  0.1024  1.1724
  139OSM    H4G15208   1.369   5.791   6.961  0.1924 -0.2503  2.6941
  139OSM    C5F15209   1.551   5.798   7.074 -0.3621  0.3550  0.2574
  139OSM    H5F15210   1.560   5.909   7.079  0.7156  0.2668  0.6611
  139OSM    H5G15211   1.654   5.756   7.060 -0.4630  0.1584  0.1015
  139OSM    C6F15212   1.502   5.741   7.211 -0.5295  0.1183  0.1276
  139OSM    H6F15213   1.473   5.636   7.187 -0.5188  0.2614 -0.5164
  139OSM    H6G15214   1.410   5.797   7.240  1.1859  2.8620  0.5759
  139OSM    C7F15215   1.618   5.745   7.317 -0.0444 -0.2577 -0.0476
  139OSM    H7F15216   1.649   5.847   7.347  0.7040  0.3230 -2.5597
  139OSM    H7G15217   1.710   5.704   7.270 -0.3200  1.3203 -2.0799
  139OSM    C8F15218   1.564   5.665   7.434  0.9966  0.1000  0.0515
  139OSM    H8F15219   1.549   5.561   7.399 -0.4024  0.0718  0.6646
  139OSM    H8G15220   1.462   5.702   7.456  0.4946 -0.8756 -0.5514
  139OSM    C9F15221   1.655   5.665   7.552 -0.1620 -0.4127  0.8628
  139OSM    H9F15222   1.761   5.645   7.529 -0.0348  0.8000  0.3580
  139OSM   C10F15223   1.621   5.704   7.675 -0.0446 -0.1455 -0.7276
  139OSM   H10F15224   1.699   5.693   7.752  0.0638 -0.6313 -0.9026
  139OSM   C11F15225   1.487   5.748   7.739  0.3864 -0.4189  0.9024
  139OSM   H11F15226   1.397   5.721   7.680  0.8574 -2.4538  1.0506
  139OSM   H11G15227   1.498   5.858   7.750  2.9203 -0.6857  1.6109
  139OSM   C12F15228   1.461   5.690   7.878 -0.2529  0.2904 -0.3546
  139OSM   H12F15229   1.542   5.711   7.951 -2.0900 -1.8944  2.5556
  139OSM   H12G15230   1.442   5.581   7.873  1.1920  0.0073 -0.0526
  139OSM   C13F15231   1.337   5.748   7.941  0.1962  0.0635 -0.8882
  139OSM   H13F15232   1.248   5.731   7.877  0.1948 -1.0829 -0.6187
  139OSM   H13G15233   1.354   5.857   7.949  2.6271 -0.3091 -0.0823
  139OSM   C14F15234   1.296   5.686   8.075 -1.2303 -0.1113  0.0437
  139OSM   H14F15235   1.366   5.702   8.159 -1.5114 -2.6598  0.8524
  139OSM   H14G15236   1.289   5.577   8.053 -1.5440  0.2291 -1.6923
  139OSM   C15F15237   1.153   5.727   8.119  0.1834  0.0033 -0.1037
  139OSM   H15F15238   1.080   5.726   8.035 -0.8334 -3.6245  0.6741
  139OSM   H15G15239   1.153   5.829   8.162 -3.0611  0.3750 -0.6903
  139OSM   C16F15240   1.110   5.626   8.226 -0.1744  0.1159 -0.4734
  139OSM   H16F15241   1.084   5.674   8.323 -0.7591 -1.3728  0.1364
  139OSM   H16G15242   1.197   5.558   8.237 -1.3921 -1.1969  1.6743
  139OSM   C17F15243   0.978   5.556   8.200  0.0838  0.8149 -0.7951
  139OSM   H17F15244   0.983   5.449   8.228  0.8196  0.3737 -2.4696
  139OSM   H17G15245   0.959   5.553   8.090  1.3582  2.2722 -1.0893
  139OSM   C18F15246   0.856   5.620   8.276 -0.4367  0.5000  1.0003
  139OSM   H18F15247   0.820   5.715   8.230  1.1133  0.7796  0.2847
  139OSM   H18G15248   0.872   5.638   8.384  0.7994  0.1413  0.9032
  139OSM   H18H15249   0.768   5.553   8.271 -1.3532  1.7484 -1.5882
  140OSM      N15250   2.185   1.001   5.874  0.0496 -0.2030  0.7396
  140OSM    C1515251   2.299   1.070   5.947  0.0391 -0.6084  0.7148
  140OSM   H15A15252   2.342   1.021   6.033  1.0591 -2.2842 -0.6786
  140OSM   H15B15253   2.278   1.174   5.969 -1.8716 -0.7310 -0.2977
  140OSM   H15C15254   2.380   1.082   5.876  0.1730  1.3980  1.1516
  140OSM    C1415255   2.139   1.097   5.766  0.0005  0.4585  0.1447
  140OSM   H14A15256   2.218   1.138   5.705  0.5640  0.9274  1.1645
  140OSM   H14B15257   2.104   1.182   5.824  2.7916  0.8368  1.4585
  140OSM   H14C15258   2.059   1.059   5.704 -1.2837  2.0798  0.7138
  140OSM    C1315259   2.257   0.885   5.816  0.0526  0.1345 -0.3767
  140OSM   H13A15260   2.343   0.911   5.755  0.5650  0.6756  0.5527
  140OSM   H13B15261   2.191   0.844   5.741 -1.3685  2.5458 -0.5771
  140OSM   H13C15262   2.291   0.811   5.886  1.6309  0.1510 -1.0777
  140OSM    C1215263   2.072   0.961   5.967  0.5749 -0.4318 -0.0005
  140OSM   H12A15264   1.982   0.931   5.915  1.2765 -0.4358 -1.2427
  140OSM   H12B15265   2.046   1.052   6.020  2.6769  0.3828 -0.2587
  140OSM    C1115266   2.087   0.843   6.066 -0.6759  0.3745  0.0539
  140OSM   H11A15267   2.106   0.746   6.015  2.7375  1.0286 -0.1585
  140OSM   H11B15268   1.993   0.827   6.122  0.2021  1.0744  1.7980
  140OSM      P15269   2.191   0.957   6.279  0.3091 -0.7473 -0.2383
  140OSM    O1315270   2.327   1.000   6.315  0.5874  0.3570  0.3964
  140OSM    O1415271   2.089   1.066   6.257  0.1325  0.1649 -0.4660
  140OSM    O1115272   2.143   0.866   6.397  0.4545 -0.1853  0.1857
  140OSM    O1215273   2.193   0.856   6.158 -0.2490  0.0185 -0.7643
  140OSM    C1S15274   2.015   0.794   6.393 -0.2178  0.6012  0.2886
  140OSM    H1S15275   2.032   0.698   6.339 -0.4502 -0.5588  2.1753
  140OSM    H1T15276   1.941   0.854   6.334  0.5076  0.9766 -0.2541
  140OSM     NF15277   1.849   0.664   6.523  0.4021 -0.5005  0.0199
  140OSM    HNF15278   1.762   0.706   6.545  1.4685  1.4623  0.7935
  140OSM    C2S15279   1.965   0.747   6.532 -0.1487  0.2533  0.0446
  140OSM    H2S15280   2.047   0.688   6.579  0.7428  0.6760 -0.9547
  140OSM    C3S15281   1.946   0.885   6.612  0.4229 -0.1342 -0.3751
  140OSM    H3S15282   1.864   0.950   6.575 -0.2880  0.3732  1.9162
  140OSM     O315283   2.059   0.978   6.604 -0.2344 -0.6395  0.4112
  140OSM    HO315284   2.121   0.940   6.541 -0.5752  0.0833 -0.3731
  140OSM    C4S15285   1.905   0.854   6.754 -0.5578 -0.2039  0.6321
  140OSM    H4S15286   1.798   0.866   6.774 -2.0853 -1.1963 -5.0387
  140OSM    C5S15287   1.985   0.824   6.858 -0.2949  0.0014 -0.3483
  140OSM    H5S15288   2.095   0.825   6.845 -0.0461  2.4845  1.3333
  140OSM    C6S15289   1.924   0.785   6.995  0.5286 -0.3493 -0.5609
  140OSM    H6S15290   1.958   0.686   7.031 -1.0271 -0.6081  0.2633
  140OSM    H6T15291   1.813   0.782   6.996  0.3632  1.8203  2.5795
  140OSM    C7S15292   1.972   0.893   7.097 -0.0271 -0.1595  0.3200
  140OSM    H7S15293   1.929   0.995   7.096  1.8875  0.6889  0.3030
  140OSM    H7T15294   2.080   0.914   7.079 -0.7672  1.7996 -2.5272
  140OSM    C8S15295   1.963   0.855   7.244  0.2654  0.8786 -0.2795
  140OSM    H8S15296   1.996   0.749   7.245  1.3889  1.2236 -0.1348
  140OSM    H8T15297   1.857   0.847   7.279  0.7697 -0.1298  1.1225
  140OSM    C9S15298   2.040   0.940   7.346 -0.1015  0.4596 -0.0856
  140OSM    H9S15299   2.000   1.043   7.340 -4.4558 -1.0100 -0.0758
  140OSM    H9T15300   2.147   0.954   7.318  0.5218 -2.6819  0.2641
  140OSM   C10S15301   2.037   0.877   7.488 -0.0106  0.0640  0.2033
  140OSM   H10S15302   2.110   0.793   7.495 -1.5875 -1.5603 -1.6017
  140OSM   H10T15303   1.937   0.839   7.516  0.9301 -0.7857  2.7188
  140OSM   C11S15304   2.094   0.964   7.596  0.4625  0.4643 -0.9761
  140OSM   H11S15305   2.035   1.058   7.589 -0.5058  0.1085  1.2129
  140OSM   H11T15306   2.201   0.981   7.573  0.5189  1.8182  0.1187
  140OSM   C12S15307   2.085   0.904   7.739 -0.2097 -0.1839  0.5659
  140OSM   H12S15308   2.139   0.807   7.734 -0.0163 -0.0904  0.8469
  140OSM   H12T15309   1.978   0.899   7.769 -0.2204  1.4788  0.9142
  140OSM   C13S15310   2.155   0.987   7.849 -0.4999 -0.1117 -0.4847
  140OSM   H13S15311   2.148   1.094   7.819  0.5654 -0.0824 -0.6613
  140OSM   H13T15312   2.263   0.963   7.859  0.5571  4.1969  0.4067
  140OSM   C14S15313   2.088   0.969   7.983  0.4289 -0.4877  0.1142
  140OSM   H14S15314   2.057   0.863   7.995  4.0227 -1.7347 -0.2549
  140OSM   H14T15315   1.997   1.028   7.962  0.9954 -0.3542 -2.1830
  140OSM   C15S15316   2.167   1.015   8.100 -0.0507 -0.3980 -0.2081
  140OSM   H15S15317   2.276   0.997   8.093 -0.0810 -0.0809 -1.7381
  140OSM   H15T15318   2.129   0.963   8.191  0.7463 -2.9783 -1.2614
  140OSM   C16S15319   2.154   1.167   8.126  0.6636  0.4741 -0.4740
  140OSM   H16S15320   2.048   1.189   8.099  1.2418  2.5111 -1.2695
  140OSM   H16T15321   2.202   1.205   8.033  1.3464 -2.6762 -1.5444
  140OSM   C17S15322   2.207   1.219   8.259  0.0962 -0.4440 -0.0588
  140OSM   H17S15323   2.314   1.192   8.268  0.5564  0.9280 -1.1567
  140OSM   H17T15324   2.156   1.158   8.337  0.4776 -1.1618 -0.3614
  140OSM   C18S15325   2.186   1.369   8.283  0.5111 -0.0295 -0.7281
  140OSM   H18S15326   2.230   1.435   8.206 -0.8362  1.7889  0.0046
  140OSM   H18T15327   2.233   1.374   8.384  0.3179 -0.8105 -0.5890
  140OSM   H18U15328   2.077   1.388   8.283 -0.0237 -2.5987 -0.1707
  140OSM    C1F15329   1.846   0.533   6.489 -0.1644 -0.4165  0.2395
  140OSM     OF15330   1.948   0.484   6.438 -0.3960  0.1941 -0.3528
  140OSM    C2F15331   1.721   0.454   6.511 -0.1360  0.3218 -0.7300
  140OSM    H2F15332   1.731   0.369   6.440  2.6368 -0.7048  0.7456
  140OSM    H2G15333   1.631   0.512   6.482 -0.4264 -0.6661 -1.8983
  140OSM    C3F15334   1.713   0.396   6.653  0.4435  0.2677 -0.3674
  140OSM    H3F15335   1.786   0.318   6.682 -1.8456 -1.3785  1.3908
  140OSM    H3G15336   1.614   0.346   6.663  0.6282  0.0223  0.2453
  140OSM    C4F15337   1.701   0.498   6.763 -0.4081 -0.6694 -0.1888
  140OSM    H4F15338   1.634   0.585   6.749  1.1465  0.3153 -2.1557
  140OSM    H4G15339   1.803   0.533   6.791 -0.5413  0.5592 -1.1438
  140OSM    C5F15340   1.648   0.432   6.896  0.0459 -0.0046  0.3307
  140OSM    H5F15341   1.716   0.348   6.920  1.1316  1.0819  1.1700
  140OSM    H5G15342   1.544   0.398   6.879 -0.0406  0.7682 -0.8070
  140OSM    C6F15343   1.638   0.531   7.016  0.1599  0.0502  0.6197
  140OSM    H6F15344   1.556   0.595   6.976 -2.1352 -2.5629  0.8830
  140OSM    H6G15345   1.738   0.575   7.037 -0.0314  0.2268  1.1786
  140OSM    C7F15346   1.588   0.465   7.142  0.3871  0.3691  0.2553
  140OSM    H7F15347   1.661   0.391   7.182 -1.2066 -1.2378  0.3158
  140OSM    H7G15348   1.497   0.409   7.112 -0.4986  1.2513  1.2032
  140OSM    C8F15349   1.551   0.557   7.259 -0.1957  0.4802  0.9510
  140OSM    H8F15350   1.483   0.503   7.328 -1.6351  1.5493  0.4522
  140OSM    H8G15351   1.495   0.640   7.208 -2.5179 -1.2864  0.4542
  140OSM    C9F15352   1.677   0.594   7.323 -0.5463 -0.0081  0.6022
  140OSM    H9F15353   1.747   0.636   7.250 -2.5621  0.7008 -1.0331
  140OSM   C10F15354   1.697   0.602   7.452 -0.1155  0.8606  0.0257
  140OSM   H10F15355   1.801   0.608   7.487  0.6229  2.5070 -2.1894
  140OSM   C11F15356   1.596   0.573   7.560 -0.1090 -0.2152 -0.1608
  140OSM   H11F15357   1.502   0.527   7.523  0.8866 -0.1248 -3.1071
  140OSM   H11G15358   1.579   0.668   7.615  0.5805  0.1757 -0.5969
  140OSM   C12F15359   1.642   0.466   7.661  0.0701 -0.0672  0.1121
  140OSM   H12F15360   1.681   0.383   7.597  1.0110  1.2428 -1.0832
  140OSM   H12G15361   1.555   0.430   7.719 -3.2441  0.1057 -4.2880
  140OSM   C13F15362   1.742   0.511   7.769  1.0199 -0.6402  0.7790
  140OSM   H13F15363   1.825   0.553   7.710  1.9470 -1.1020  1.7116
  140OSM   H13G15364   1.781   0.419   7.818 -0.1931 -2.0219 -0.7329
  140OSM   C14F15365   1.686   0.616   7.864 -0.8160  0.1431 -0.7024
  140OSM   H14F15366   1.589   0.579   7.903 -1.6249  3.1791  0.3654
  140OSM   H14G15367   1.662   0.712   7.814 -0.6397  1.4555  1.6280
  140OSM   C15F15368   1.782   0.658   7.976 -0.2191  0.2705  1.0155
  140OSM   H15F15369   1.729   0.731   8.041 -0.3242  2.7858 -1.7190
  140OSM   H15G15370   1.863   0.714   7.926  1.1441 -1.5188  1.1085
  140OSM   C16F15371   1.852   0.542   8.057  0.2865  0.3320 -0.0475
  140OSM   H16F15372   1.905   0.469   7.991  3.3588  1.9064  0.5049
  140OSM   H16G15373   1.771   0.485   8.107  0.7721  0.5320  0.9986
  140OSM   C17F15374   1.948   0.599   8.162 -0.6848 -0.6060  0.2115
  140OSM   H17F15375   1.994   0.693   8.125 -0.4097 -1.0377 -0.5581
  140OSM   H17G15376   2.033   0.529   8.179 -1.2009 -1.2381  0.2484
  140OSM   C18F15377   1.888   0.612   8.303  0.1216 -0.2021  0.2022
  140OSM   H18F15378   1.868   0.510   8.342  0.3683 -0.6710 -0.8720
  140OSM   H18G15379   1.799   0.678   8.304  1.6115  1.8911  0.6286
  140OSM   H18H15380   1.952   0.649   8.386  0.7364 -4.3286  1.8358
  141OSM      N15381   1.439   2.501   6.268 -0.6033 -0.0303 -0.5189
  141OSM    C1515382   1.570   2.559   6.316  0.8460 -0.3180  0.0259
  141OSM   H15A15383   1.552   2.621   6.403  1.0825  0.1955 -0.2895
  141OSM   H15B15384   1.608   2.626   6.240 -2.1440  2.0235  0.4114
  141OSM   H15C15385   1.634   2.475   6.338  1.8357  0.0145 -1.4234
  141OSM    C1415386   1.371   2.586   6.159 -0.0688  0.2658  0.2648
  141OSM   H14A15387   1.349   2.686   6.193 -0.4747  0.0480  0.6617
  141OSM   H14B15388   1.281   2.533   6.129  0.7557 -0.3808 -1.1476
  141OSM   H14C15389   1.432   2.589   6.070  0.3643 -0.7260  0.5197
  141OSM    C1315390   1.469   2.367   6.217  0.3659 -0.3021  0.3387
  141OSM   H13A15391   1.379   2.323   6.176 -0.7212  0.4533  1.8248
  141OSM   H13B15392   1.508   2.298   6.291 -0.3955 -0.0281  1.0095
  141OSM   H13C15393   1.551   2.379   6.148  2.4027  0.5868  2.7593
  141OSM    C1215394   1.346   2.481   6.389 -0.4523 -0.2412 -0.8790
  141OSM   H12A15395   1.364   2.563   6.457 -1.6601 -0.1421 -0.6538
  141OSM   H12B15396   1.380   2.400   6.452  1.7513  0.4483 -1.0738
  141OSM    C1115397   1.193   2.468   6.364 -0.2412 -0.1598 -0.3092
  141OSM   H11A15398   1.149   2.560   6.322 -0.7550 -0.5550 -0.6544
  141OSM   H11B15399   1.137   2.453   6.459 -2.0480  0.1729 -1.2827
  141OSM      P15400   1.032   2.299   6.277  0.5819  0.1056 -0.0888
  141OSM    O1315401   0.940   2.409   6.310  0.8884 -0.3818 -0.6143
  141OSM    O1415402   1.004   2.226   6.151 -0.1776 -0.6132  0.3559
  141OSM    O1115403   1.022   2.199   6.403 -0.3324  0.0696  0.1164
  141OSM    O1215404   1.169   2.357   6.280 -0.8406 -0.0590  0.2560
  141OSM    C1S15405   1.143   2.169   6.483  0.6623 -0.7170 -0.4192
  141OSM    H1S15406   1.201   2.261   6.505 -0.0152 -0.6231  1.1082
  141OSM    H1T15407   1.206   2.094   6.431  1.2114  0.3106 -1.2999
  141OSM     NF15408   1.237   2.113   6.699 -0.6393 -0.0763  0.1371
  141OSM    HNF15409   1.300   2.036   6.700 -0.9105 -0.3432 -1.0096
  141OSM    C2S15410   1.119   2.103   6.620  0.0686 -0.6370  0.3042
  141OSM    H2S15411   1.038   2.152   6.679  1.6880  1.0778  1.2090
  141OSM    C3S15412   1.068   1.963   6.603 -0.0838 -0.0730  0.2031
  141OSM    H3S15413   1.144   1.887   6.573  1.5137  1.6520 -0.2439
  141OSM     O315414   0.958   1.954   6.509 -0.4486  0.6010 -0.3870
  141OSM    HO315415   0.976   2.039   6.468  0.7974  0.3703 -0.3744
  141OSM    C4S15416   1.031   1.912   6.742 -0.0960  0.3117 -0.0058
  141OSM    H4S15417   1.114   1.870   6.801 -0.7586 -0.7290  0.2109
  141OSM    C5S15418   0.918   1.919   6.809  0.2147 -0.6759 -0.6903
  141OSM    H5S15419   0.823   1.958   6.769 -1.3883 -2.4404  1.1477
  141OSM    C6S15420   0.909   1.873   6.950  0.0319  0.2811  0.2301
  141OSM    H6S15421   0.806   1.829   6.952 -0.2659  0.7579 -1.9275
  141OSM    H6T15422   0.916   1.954   7.025 -0.9912  0.4255  0.1843
  141OSM    C7S15423   1.020   1.771   7.007 -0.2480 -0.2873 -0.1628
  141OSM    H7S15424   1.119   1.818   6.991 -0.4295  0.0524 -0.2926
  141OSM    H7T15425   1.011   1.678   6.947 -2.0568  0.4925 -1.1864
  141OSM    C8S15426   1.019   1.757   7.162 -0.0704  0.1260  0.5612
  141OSM    H8S15427   1.057   1.655   7.186  0.9695 -0.1675 -1.9395
  141OSM    H8T15428   0.917   1.768   7.205  0.3322 -0.2633  1.6394
  141OSM    C9S15429   1.097   1.864   7.230  0.6041 -0.1098  0.1496
  141OSM    H9S15430   1.023   1.947   7.235  0.3695 -0.2418 -0.9262
  141OSM    H9T15431   1.187   1.901   7.177  0.8614 -2.0125 -0.7927
  141OSM   C10S15432   1.142   1.820   7.372 -0.0090  0.2147 -0.1286
  141OSM   H10S15433   1.172   1.912   7.426 -2.7148 -0.6486  3.1327
  141OSM   H10T15434   1.229   1.750   7.367 -1.4551 -1.5809 -3.0160
  141OSM   C11S15435   1.036   1.753   7.463 -0.3499  0.4061 -0.4097
  141OSM   H11S15436   1.019   1.648   7.433  2.1165  0.1735 -1.1665
  141OSM   H11T15437   0.936   1.802   7.456 -0.8828 -0.9044 -2.6188
  141OSM   C12S15438   1.080   1.755   7.614 -0.5384 -0.2768 -0.1360
  141OSM   H12S15439   1.108   1.861   7.633  2.0982 -1.2522  2.0124
  141OSM   H12T15440   1.172   1.693   7.621 -0.4685 -0.3194 -1.1877
  141OSM   C13S15441   0.965   1.707   7.701 -0.0958 -0.5893  0.2824
  141OSM   H13S15442   0.945   1.602   7.674 -0.3673 -0.8069  1.3013
  141OSM   H13T15443   0.872   1.763   7.681 -0.3943 -1.0576  0.3596
  141OSM   C14S15444   0.999   1.711   7.847  0.4017 -0.0456 -0.0767
  141OSM   H14S15445   1.108   1.689   7.850  1.2078  3.3713  1.9249
  141OSM   H14T15446   0.957   1.623   7.900  2.9044 -1.3016 -0.0159
  141OSM   C15S15447   0.973   1.854   7.907 -0.5823  0.5975  0.0117
  141OSM   H15S15448   0.864   1.873   7.905 -0.3193  2.3251  0.2010
  141OSM   H15T15449   1.030   1.921   7.839  3.2017 -1.8195  0.4550
  141OSM   C16S15450   1.018   1.867   8.057  0.2520 -0.1585 -0.2738
  141OSM   H16S15451   1.038   1.975   8.076 -0.1347  0.0919 -1.1987
  141OSM   H16T15452   1.122   1.830   8.051  1.0704  2.1207 -1.2412
  141OSM   C17S15453   0.939   1.801   8.161 -0.1909 -0.0339  0.0807
  141OSM   H17S15454   0.935   1.693   8.135  2.0953 -0.1747  0.0898
  141OSM   H17T15455   0.838   1.845   8.168 -0.8587 -1.4871 -0.0948
  141OSM   C18S15456   1.014   1.816   8.288  0.3007 -0.2820  0.2102
  141OSM   H18S15457   1.092   1.740   8.304  1.3214  0.5979 -0.4133
  141OSM   H18T15458   0.955   1.823   8.382 -0.0163  3.3556 -0.1168
  141OSM   H18U15459   1.061   1.917   8.292 -2.4081  1.0454  1.1430
  141OSM    C1F15460   1.283   2.231   6.754  0.5203  0.0776  0.2990
  141OSM     OF15461   1.229   2.335   6.719  0.1677  0.6540 -0.6807
  141OSM    C2F15462   1.401   2.225   6.844  0.1479  0.7103 -0.5347
  141OSM    H2F15463   1.493   2.240   6.783 -0.2026  4.0388 -0.3906
  141OSM    H2G15464   1.399   2.124   6.891  1.0323  1.0465  0.2765
  141OSM    C3F15465   1.407   2.347   6.947  0.1855  0.2585 -0.2567
  141OSM    H3F15466   1.382   2.442   6.895 -1.0984 -0.4497 -0.9693
  141OSM    H3G15467   1.513   2.358   6.977 -0.0162  1.1747  0.1365
  141OSM    C4F15468   1.314   2.328   7.058  0.2655  0.5866 -0.2436
  141OSM    H4F15469   1.350   2.239   7.113  1.3113  0.5751 -0.9177
  141OSM    H4G15470   1.216   2.297   7.016 -0.0153  0.1518  0.6991
  141OSM    C5F15471   1.298   2.444   7.162 -0.2834 -0.4325 -0.3497
  141OSM    H5F15472   1.397   2.466   7.208 -1.4735  0.0202  2.2061
  141OSM    H5G15473   1.229   2.427   7.248  1.4039 -2.2387  0.7489
  141OSM    C6F15474   1.234   2.574   7.098  0.3025  0.1294  0.1906
  141OSM    H6F15475   1.133   2.552   7.057  0.3298  1.2383 -0.5005
  141OSM    H6G15476   1.291   2.600   7.007  2.0287 -1.7905  0.6642
  141OSM    C7F15477   1.226   2.689   7.209 -0.2461 -0.2584  0.0117
  141OSM    H7F15478   1.201   2.647   7.309  1.0117 -2.2972 -0.4728
  141OSM    H7G15479   1.144   2.758   7.180 -0.2352 -0.5174 -0.6452
  141OSM    C8F15480   1.359   2.764   7.216  0.8263 -0.0034 -0.6676
  141OSM    H8F15481   1.431   2.680   7.213  1.6436  0.5162  1.7047
  141OSM    H8G15482   1.359   2.807   7.319 -0.2650  1.1470 -1.1248
  141OSM    C9F15483   1.383   2.871   7.112  0.0463  0.3784 -0.1968
  141OSM    H9F15484   1.372   2.845   7.005  0.9104  2.2876 -0.7936
  141OSM   C10F15485   1.439   2.992   7.131 -0.4949 -0.4130 -0.6599
  141OSM   H10F15486   1.449   3.048   7.037 -0.7385 -0.0106 -0.4503
  141OSM   C11F15487   1.488   3.043   7.257 -0.0397  0.4658  0.1827
  141OSM   H11F15488   1.587   3.081   7.222  0.7186 -3.0049 -2.0222
  141OSM   H11G15489   1.521   2.963   7.327  1.6106  0.0588 -0.9669
  141OSM   C12F15490   1.399   3.150   7.323 -0.8957  0.5830  0.6019
  141OSM   H12F15491   1.302   3.111   7.359 -0.1398 -1.3490  0.6679
  141OSM   H12G15492   1.387   3.236   7.253 -1.8484 -2.7643 -3.8289
  141OSM   C13F15493   1.481   3.174   7.454  0.3329 -0.7886  0.0550
  141OSM   H13F15494   1.579   3.219   7.430 -0.7539  2.9167  1.7828
  141OSM   H13G15495   1.515   3.085   7.511  3.2150 -0.6316 -1.2915
  141OSM   C14F15496   1.409   3.284   7.535  0.1636  0.0616  0.6834
  141OSM   H14F15497   1.307   3.252   7.566  0.7069 -2.0301  0.4523
  141OSM   H14G15498   1.400   3.381   7.482  1.0589 -0.1320  0.1561
  141OSM   C15F15499   1.495   3.315   7.669 -0.5845 -0.3793  0.1606
  141OSM   H15F15500   1.599   3.345   7.644 -0.6730  0.5183  0.8224
  141OSM   H15G15501   1.493   3.216   7.720  0.8940 -1.2408 -1.3562
  141OSM   C16F15502   1.447   3.434   7.754 -0.4028 -0.0439 -0.0157
  141OSM   H16F15503   1.339   3.411   7.770 -0.6391  1.0794  0.1049
  141OSM   H16G15504   1.442   3.525   7.690 -2.0014 -1.6086 -2.2544
  141OSM   C17F15505   1.528   3.467   7.884 -0.2782  0.5014 -0.5257
  141OSM   H17F15506   1.475   3.548   7.938  1.1819  1.2574 -0.1635
  141OSM   H17G15507   1.625   3.512   7.852 -0.7901  3.0533  1.2447
  141OSM   C18F15508   1.559   3.337   7.970 -0.2684  0.1930  0.5363
  141OSM   H18F15509   1.603   3.265   7.898  2.9949  2.4426  0.0724
  141OSM   H18G15510   1.468   3.293   8.017 -1.7312  0.8090 -1.6109
  141OSM   H18H15511   1.623   3.351   8.060 -0.7349 -0.9277  1.0734
  142OSM      N15512   1.050   4.695   6.263 -0.2283 -0.0395 -0.0719
  142OSM    C1515513   1.161   4.787   6.205 -0.2600 -0.3022  0.3375
  142OSM   H15A15514   1.238   4.730   6.154 -1.5320 -1.3026 -0.5308
  142OSM   H15B15515   1.188   4.854   6.285 -1.3677  0.6221 -0.0388
  142OSM   H15C15516   1.127   4.861   6.134  2.6937 -0.1198 -1.0730
  142OSM    C1415517   1.096   4.630   6.390  0.4151 -0.2418  0.0937
  142OSM   H14A15518   1.139   4.701   6.459 -0.9167  2.6129 -1.8167
  142OSM   H14B15519   1.168   4.552   6.370 -1.3448 -2.4487  1.7589
  142OSM   H14C15520   1.015   4.583   6.443 -0.2648  1.1136  0.3043
  142OSM    C1315521   0.940   4.787   6.305 -0.2975  0.3054  0.4193
  142OSM   H13A15522   0.901   4.826   6.212 -0.6320 -2.1237 -0.5297
  142OSM   H13B15523   0.971   4.863   6.375  1.3605 -1.4218  1.6771
  142OSM   H13C15524   0.870   4.721   6.354  0.7794 -2.0395 -1.0044
  142OSM    C1215525   1.005   4.590   6.164  0.1616  0.1039 -0.1638
  142OSM   H12A15526   0.971   4.640   6.074 -1.4520  0.2412  0.4794
  142OSM   H12B15527   0.923   4.529   6.199  1.7485 -1.1412  1.5588
  142OSM    C1115528   1.105   4.487   6.118 -0.4504  0.4828  0.4729
  142OSM   H11A15529   1.197   4.538   6.081 -0.5696 -2.3131 -4.6795
  142OSM   H11B15530   1.084   4.424   6.029  2.7976 -0.6297  0.3479
  142OSM      P15531   1.050   4.284   6.274  0.0338 -0.4833  0.4078
  142OSM    O1315532   0.931   4.342   6.340 -0.9517 -0.3335 -0.3829
  142OSM    O1415533   1.030   4.201   6.155  0.4616  0.0511 -0.3378
  142OSM    O1115534   1.132   4.209   6.386 -0.9277  0.5721  0.7375
  142OSM    O1215535   1.146   4.405   6.226  0.0664  0.1639  0.0605
  142OSM    C1S15536   1.196   4.265   6.503 -0.9500 -0.1632  0.6754
  142OSM    H1S15537   1.234   4.367   6.480 -2.6260  0.4158  0.3306
  142OSM    H1T15538   1.276   4.197   6.540 -0.6008 -0.1231  0.0067
  142OSM     NF15539   1.178   4.329   6.725 -0.5299 -0.4614 -0.0995
  142OSM    HNF15540   1.235   4.268   6.780 -0.0629  0.9706  1.0952
  142OSM    C2S15541   1.098   4.279   6.617 -0.0472 -0.2228 -0.3426
  142OSM    H2S15542   1.017   4.352   6.594 -1.9340 -1.1023  2.8855
  142OSM    C3S15543   1.036   4.143   6.650  0.2969 -0.0455  0.1345
  142OSM    H3S15544   1.119   4.071   6.668  0.4671 -0.1699 -1.0676
  142OSM     O315545   0.961   4.080   6.549  0.2164  0.0380  0.2325
  142OSM    HO315546   0.979   4.134   6.471 -0.3038 -1.7556 -1.1941
  142OSM    C4S15547   0.947   4.145   6.772  0.4404 -0.0240 -0.9463
  142OSM    H4S15548   1.004   4.130   6.865  0.2026  2.8234 -0.2227
  142OSM    C5S15549   0.820   4.181   6.787 -0.2973  0.0077 -0.4723
  142OSM    H5S15550   0.766   4.219   6.699 -1.7716 -0.2899  0.2669
  142OSM    C6S15551   0.733   4.189   6.908  0.9840 -0.2515 -0.4406
  142OSM    H6S15552   0.677   4.094   6.922  1.6558 -0.6402 -0.3623
  142OSM    H6T15553   0.658   4.271   6.896 -0.0430 -1.2390 -0.9532
  142OSM    C7S15554   0.811   4.221   7.036  0.0116 -0.1319  0.2407
  142OSM    H7S15555   0.892   4.296   7.021  2.0659 -2.6447 -2.2355
  142OSM    H7T15556   0.874   4.131   7.048  1.4540  0.8499  0.2942
  142OSM    C8S15557   0.722   4.236   7.159 -0.2983 -0.0835 -0.0404
  142OSM    H8S15558   0.649   4.152   7.164 -0.4998  0.0722 -0.3582
  142OSM    H8T15559   0.672   4.335   7.157  0.6704  0.4680  1.3356
  142OSM    C9S15560   0.809   4.238   7.289 -0.0541  0.0575  0.3370
  142OSM    H9S15561   0.894   4.309   7.289  0.3697 -0.4358 -0.6838
  142OSM    H9T15562   0.856   4.139   7.309  0.7122  0.4287  0.4003
  142OSM   C10S15563   0.732   4.268   7.416  1.2116 -0.4697  0.0513
  142OSM   H10S15564   0.637   4.210   7.405  0.4939  0.4965  0.9614
  142OSM   H10T15565   0.699   4.374   7.413 -1.5868 -1.2457  0.5702
  142OSM   C11S15566   0.812   4.244   7.548 -0.1394 -0.8338  0.2200
  142OSM   H11S15567   0.906   4.293   7.515  0.1427 -0.2583  1.7979
  142OSM   H11T15568   0.846   4.139   7.564  1.9816  0.0626  2.3073
  142OSM   C12S15569   0.747   4.292   7.671  0.9821 -0.6610  0.4390
  142OSM   H12S15570   0.654   4.232   7.687  0.8816 -0.2190  1.6234
  142OSM   H12T15571   0.712   4.396   7.659 -1.6968 -1.1672  2.8023
  142OSM   C13S15572   0.839   4.276   7.798 -0.0574  0.2293  0.1581
  142OSM   H13S15573   0.933   4.334   7.793  0.7697 -1.1220 -0.8706
  142OSM   H13T15574   0.873   4.170   7.796  1.7575  0.7574  1.3567
  142OSM   C14S15575   0.778   4.312   7.931 -0.3368 -0.6127  0.0895
  142OSM   H14S15576   0.677   4.268   7.946  0.5690 -2.3215  1.6665
  142OSM   H14T15577   0.749   4.419   7.926  0.8319 -0.3201 -3.8375
  142OSM   C15S15578   0.864   4.271   8.056 -0.6321 -1.1518 -0.4955
  142OSM   H15S15579   0.970   4.300   8.042 -0.9771  0.0636 -0.7110
  142OSM   H15T15580   0.841   4.162   8.065  0.6516 -1.3883  0.2038
  142OSM   C16S15581   0.813   4.331   8.192  0.0861  1.1790  0.0291
  142OSM   H16S15582   0.895   4.308   8.263  0.3187  0.0858 -0.5714
  142OSM   H16T15583   0.721   4.275   8.217  1.5789 -2.4138 -1.8155
  142OSM   C17S15584   0.778   4.476   8.185 -0.0855  0.3672  0.9641
  142OSM   H17S15585   0.681   4.497   8.135  0.8218  0.6811 -0.7338
  142OSM   H17T15586   0.855   4.530   8.125  1.7300 -2.2632  0.7427
  142OSM   C18S15587   0.776   4.546   8.322 -0.0308 -0.3077 -0.1041
  142OSM   H18S15588   0.699   4.506   8.392 -0.1813  1.3921  0.7613
  142OSM   H18T15589   0.756   4.654   8.303 -1.0617 -0.2936  0.8920
  142OSM   H18U15590   0.871   4.546   8.379 -0.0194  0.5452 -0.0982
  142OSM    C1F15591   1.191   4.464   6.749  0.0870  0.0820 -0.4624
  142OSM     OF15592   1.132   4.547   6.679  0.3172 -0.2843  0.0556
  142OSM    C2F15593   1.299   4.505   6.850  0.4451 -0.2285  0.1335
  142OSM    H2F15594   1.383   4.436   6.826 -0.1795 -0.8310 -0.3881
  142OSM    H2G15595   1.285   4.478   6.957  0.6068  2.4656  0.9000
  142OSM    C3F15596   1.340   4.648   6.831  0.0435  0.2602  0.0893
  142OSM    H3F15597   1.257   4.716   6.860 -1.4594 -1.2075 -0.5792
  142OSM    H3G15598   1.351   4.672   6.723 -2.4959  0.9222 -0.0948
  142OSM    C4F15599   1.466   4.709   6.905  0.1779  0.0021  0.2285
  142OSM    H4F15600   1.478   4.817   6.882 -1.5579 -0.1936 -1.8882
  142OSM    H4G15601   1.560   4.658   6.875  1.4851  2.1502  0.5287
  142OSM    C5F15602   1.456   4.713   7.059  0.1337  0.2807  0.4624
  142OSM    H5F15603   1.457   4.607   7.094  2.7787  0.7334  1.9708
  142OSM    H5G15604   1.368   4.772   7.093 -0.0818  1.3654 -1.8388
  142OSM    C6F15605   1.594   4.760   7.108 -0.5317  1.0507  0.2170
  142OSM    H6F15606   1.631   4.853   7.059 -0.4599  0.5699 -0.6703
  142OSM    H6G15607   1.660   4.675   7.078 -1.9207  0.3858 -1.0979
  142OSM    C7F15608   1.605   4.781   7.262 -0.1094  0.5073 -0.1350
  142OSM    H7F15609   1.608   4.681   7.310  0.2566 -0.7256 -2.5656
  142OSM    H7G15610   1.516   4.841   7.287 -0.8556 -1.3451  2.0086
  142OSM    C8F15611   1.735   4.855   7.306 -0.0597 -0.6761 -0.0645
  142OSM    H8F15612   1.724   4.875   7.415 -1.3651  0.5514 -0.3964
  142OSM    H8G15613   1.745   4.955   7.259 -0.3930 -0.0755  1.1174
  142OSM    C9F15614   1.855   4.774   7.270 -0.8213 -0.0106  0.0510
  142OSM    H9F15615   1.880   4.791   7.164 -5.4727  2.5059 -0.9119
  142OSM   C10F15616   1.931   4.698   7.351  0.7662  0.4341 -0.0662
  142OSM   H10F15617   2.013   4.645   7.302  0.7676  0.8208 -0.4835
  142OSM   C11F15618   1.901   4.680   7.500  0.2816 -0.5292 -0.1098
  142OSM   H11F15619   1.829   4.595   7.505  0.1393 -0.4844 -1.1372
  142OSM   H11G15620   1.867   4.779   7.537  2.1877  0.0352  0.2196
  142OSM   C12F15621   2.016   4.641   7.592 -0.3360  0.3868  0.4844
  142OSM   H12F15622   2.095   4.713   7.563 -0.9594  0.0370 -2.3408
  142OSM   H12G15623   2.055   4.539   7.571  1.1697  1.0175  0.1015
  142OSM   C13F15624   1.979   4.645   7.740  0.2108  0.2714 -0.0988
  142OSM   H13F15625   1.896   4.573   7.752  0.9999 -0.7379 -0.5669
  142OSM   H13G15626   1.941   4.749   7.755  3.6924  1.4313  2.1680
  142OSM   C14F15627   2.089   4.631   7.842 -0.3889  0.1461  0.1354
  142OSM   H14F15628   2.170   4.697   7.804 -0.6312 -0.1532 -0.9625
  142OSM   H14G15629   2.117   4.523   7.836  0.5602  0.2813  1.5460
  142OSM   C15F15630   2.072   4.661   7.986  0.1901 -0.4368 -0.1745
  142OSM   H15F15631   2.174   4.649   8.027  0.9130  1.9032 -1.1553
  142OSM   H15G15632   1.996   4.598   8.038  0.2429  1.4573  2.4179
  142OSM   C16F15633   2.045   4.812   8.016  0.2298  0.5354  0.0356
  142OSM   H16F15634   1.947   4.835   7.970 -1.0566 -2.3268  1.1353
  142OSM   H16G15635   2.131   4.869   7.973 -0.7787  0.6501 -1.9139
  142OSM   C17F15636   2.049   4.840   8.170 -0.3640  0.7394  0.8580
  142OSM   H17F15637   2.150   4.826   8.213 -0.1134  0.0174  0.0664
  142OSM   H17G15638   1.984   4.763   8.217 -1.8303  1.7764  0.5994
  142OSM   C18F15639   1.989   4.977   8.214  0.4344  0.2761 -0.1649
  142OSM   H18F15640   1.886   4.988   8.174  0.8860  0.3101 -1.3565
  142OSM   H18G15641   2.048   5.063   8.175  0.0066 -0.0587 -1.6131
  142OSM   H18H15642   1.980   4.985   8.325  0.5330  0.1261 -0.1461
  143OSM      N15643   4.775   5.996   6.255  0.2569 -0.4924 -0.0513
  143OSM    C1515644   4.803   5.926   6.387  0.6224 -0.2679 -0.3525
  143OSM   H15A15645   4.856   5.989   6.457 -0.2328 -1.5020  1.4596
  143OSM   H15B15646   4.869   5.841   6.381 -0.8811 -1.5501  0.3844
  143OSM   H15C15647   4.705   5.909   6.429  1.2236  0.5634  1.4858
  143OSM    C1415648   4.898   6.064   6.205 -0.1775 -0.3616 -0.1070
  143OSM   H14A15649   4.977   5.991   6.190  0.6456 -0.5155  3.8531
  143OSM   H14B15650   4.935   6.138   6.275  1.7931 -0.4841 -0.9543
  143OSM   H14C15651   4.898   6.112   6.108  1.2006 -0.0562  0.0127
  143OSM    C1315652   4.744   5.896   6.150 -0.5109  0.6777  0.6582
  143OSM   H13A15653   4.815   5.815   6.146  0.6221  1.7056 -2.9427
  143OSM   H13B15654   4.755   5.947   6.056  2.2862  0.1948  0.6455
  143OSM   H13C15655   4.641   5.865   6.161 -0.7613  1.7801  1.5577
  143OSM    C1215656   4.660   6.096   6.272 -0.0127 -0.2165 -0.2923
  143OSM   H12A15657   4.627   6.126   6.174 -0.9894 -0.8647 -0.1819
  143OSM   H12B15658   4.702   6.185   6.316  0.8430  0.2490 -2.0021
  143OSM    C1115659   4.526   6.058   6.349  0.3326  0.2851  0.5524
  143OSM   H11A15660   4.453   6.142   6.355 -1.7525 -1.2333 -2.0006
  143OSM   H11B15661   4.561   6.049   6.455  1.7093 -1.0321  0.0268
  143OSM      P15662   4.340   5.950   6.208 -0.1186  0.0883 -0.2261
  143OSM    O1315663   4.329   6.089   6.154 -0.0918  0.0465  0.8825
  143OSM    O1415664   4.331   5.834   6.119 -0.4722 -0.3696 -0.2658
  143OSM    O1115665   4.226   5.940   6.324 -0.0611  0.9751  0.8676
  143OSM    O1215666   4.473   5.937   6.292 -0.2545  0.4034  0.0853
  143OSM    C1S15667   4.210   5.819   6.404  0.0660 -0.1685  0.3298
  143OSM    H1S15668   4.273   5.735   6.369  0.7965 -0.2033  1.6889
  143OSM    H1T15669   4.105   5.790   6.384 -0.1036  0.0184  0.9374
  143OSM     NF15670   4.229   5.707   6.611  0.1755  0.5356  0.1463
  143OSM    HNF15671   4.143   5.684   6.657  0.4382 -1.1319 -0.1651
  143OSM    C2S15672   4.246   5.840   6.548  0.6228  0.0073  0.2456
  143OSM    H2S15673   4.351   5.873   6.556  0.1950  1.8540 -1.0041
  143OSM    C3S15674   4.160   5.954   6.608 -0.8264  0.3670  0.5844
  143OSM    H3S15675   4.055   5.918   6.609 -0.6693 -0.0949  1.2973
  143OSM     O315676   4.170   6.080   6.536 -0.7754 -0.1794  0.9400
  143OSM    HO315677   4.189   6.051   6.447  2.2050  1.0528  1.0826
  143OSM    C4S15678   4.192   5.972   6.757 -0.1020 -0.2793 -0.5667
  143OSM    H4S15679   4.118   5.922   6.822 -0.6968  1.5962  0.2728
  143OSM    C5S15680   4.305   6.025   6.808  1.0394 -0.0765  0.8760
  143OSM    H5S15681   4.379   6.067   6.739  0.6906  1.0708  1.1867
  143OSM    C6S15682   4.342   6.043   6.959  0.6538  0.2324  0.8665
  143OSM    H6S15683   4.335   6.147   6.997 -1.8743 -0.0148  1.2058
  143OSM    H6T15684   4.447   6.013   6.979  0.6935 -0.1065  0.1748
  143OSM    C7S15685   4.252   5.955   7.046  0.2900 -0.2914  1.5132
  143OSM    H7S15686   4.253   5.850   7.010  0.5906  0.5112 -0.9476
  143OSM    H7T15687   4.148   5.992   7.051 -0.0742 -0.3899 -2.4635
  143OSM    C8S15688   4.304   5.951   7.185  0.6527 -0.5816  0.3026
  143OSM    H8S15689   4.313   6.057   7.217  1.9282 -0.6234  0.1311
  143OSM    H8T15690   4.407   5.912   7.197  1.2518  1.4241  2.5029
  143OSM    C9S15691   4.208   5.873   7.277 -1.0753 -0.2801  0.6897
  143OSM    H9S15692   4.215   5.770   7.236  1.6321  0.1248 -0.0922
  143OSM    H9T15693   4.102   5.907   7.271 -0.6363  0.9375 -0.6874
  143OSM   C10S15694   4.263   5.867   7.421  0.1927  0.4553 -0.0633
  143OSM   H10S15695   4.249   5.969   7.463 -3.1886  0.3235 -0.5887
  143OSM   H10T15696   4.370   5.837   7.417 -0.5791 -2.4864 -0.6155
  143OSM   C11S15697   4.191   5.763   7.504  0.0338 -0.8170 -0.1951
  143OSM   H11S15698   4.238   5.663   7.490  3.4615  0.3267  1.8700
  143OSM   H11T15699   4.084   5.766   7.475 -0.1045 -1.0867  0.2749
  143OSM   C12S15700   4.190   5.790   7.664 -0.8775 -0.1186  0.2704
  143OSM   H12S15701   4.151   5.890   7.693  2.1862  1.9174 -1.8875
  143OSM   H12T15702   4.296   5.776   7.694 -0.2334 -0.2436 -1.8753
  143OSM   C13S15703   4.102   5.686   7.733  0.2185 -0.2449  0.2373
  143OSM   H13S15704   4.158   5.590   7.739  0.2597 -0.3175 -1.1050
  143OSM   H13T15705   4.003   5.676   7.684  0.1022 -1.1015  0.6249
  143OSM   C14S15706   4.078   5.724   7.880  1.0588 -0.2619 -0.3379
  143OSM   H14S15707   4.020   5.640   7.923  1.8946 -1.5079 -1.5268
  143OSM   H14T15708   4.001   5.804   7.875 -0.3039 -1.5275 -0.3086
  143OSM   C15S15709   4.190   5.758   7.975 -0.8960  0.8842  0.0645
  143OSM   H15S15710   4.231   5.858   7.947  0.0685  1.6416  3.7252
  143OSM   H15T15711   4.275   5.687   7.969  2.6072  4.5756  1.4985
  143OSM   C16S15712   4.133   5.773   8.122  0.3074 -0.3659  0.0654
  143OSM   H16S15713   4.096   5.671   8.147  1.5752 -1.4639 -2.2079
  143OSM   H16T15714   4.049   5.846   8.117  0.4248 -0.3031 -1.6763
  143OSM   C17S15715   4.237   5.825   8.223 -0.3441  0.8448 -0.3574
  143OSM   H17S15716   4.172   5.843   8.311 -0.3061  0.2902 -0.2105
  143OSM   H17T15717   4.272   5.925   8.189 -0.2272  0.6831 -0.7146
  143OSM   C18S15718   4.343   5.726   8.270 -0.6915 -0.0018 -0.0423
  143OSM   H18S15719   4.397   5.677   8.186 -1.7453  0.2312 -0.8759
  143OSM   H18T15720   4.298   5.645   8.330  1.0945  0.1697  1.6473
  143OSM   H18U15721   4.404   5.786   8.341  3.5018 -3.3435 -0.4083
  143OSM    C1F15722   4.327   5.622   6.598  0.9460 -0.0428 -0.5130
  143OSM     OF15723   4.426   5.647   6.537 -0.3199 -0.2091 -0.2938
  143OSM    C2F15724   4.302   5.494   6.669  0.3689  0.0186  0.3493
  143OSM    H2F15725   4.304   5.406   6.601 -1.7524  0.2355 -0.0760
  143OSM    H2G15726   4.198   5.494   6.708  0.3605  0.9318  0.3518
  143OSM    C3F15727   4.396   5.460   6.783 -0.3426  0.4816  0.1521
  143OSM    H3F15728   4.503   5.486   6.768 -0.3966  0.0843 -1.0790
  143OSM    H3G15729   4.399   5.350   6.800 -2.9279  0.1245 -1.2302
  143OSM    C4F15730   4.356   5.534   6.913 -0.0777  0.1360 -0.6752
  143OSM    H4F15731   4.247   5.535   6.934  0.1810  2.2113  0.8390
  143OSM    H4G15732   4.382   5.641   6.898 -2.0369  0.6610 -0.5297
  143OSM    C5F15733   4.431   5.477   7.037 -0.2018 -0.1736 -0.9436
  143OSM    H5F15734   4.540   5.480   7.015 -0.0710 -0.2636 -0.3228
  143OSM    H5G15735   4.391   5.373   7.047 -3.6321  1.0402 -0.6719
  143OSM    C6F15736   4.400   5.542   7.174  0.5488 -0.5829 -0.7244
  143OSM    H6F15737   4.290   5.547   7.183  0.5662  0.1898 -0.8976
  143OSM    H6G15738   4.442   5.644   7.165 -0.1201 -0.2370  0.0086
  143OSM    C7F15739   4.471   5.482   7.300 -0.2082 -0.3065 -0.4531
  143OSM    H7F15740   4.476   5.560   7.380  0.2042 -1.0458  0.2481
  143OSM    H7G15741   4.576   5.454   7.277  0.0198 -1.0496  1.3625
  143OSM    C8F15742   4.410   5.356   7.360 -0.0702  0.6412  0.1348
  143OSM    H8F15743   4.490   5.311   7.423 -1.5849 -0.6501  1.2254
  143OSM    H8G15744   4.381   5.285   7.281 -2.0464  2.0373 -0.4772
  143OSM    C9F15745   4.283   5.387   7.443 -0.5983  0.0649 -0.6912
  143OSM    H9F15746   4.201   5.417   7.377  1.1377 -1.3014 -3.6588
  143OSM   C10F15747   4.261   5.384   7.577 -0.5851  1.1766 -0.1867
  143OSM   H10F15748   4.160   5.407   7.614 -0.9757  0.3057 -0.6907
  143OSM   C11F15749   4.368   5.361   7.684 -0.4917 -0.1531 -0.3780
  143OSM   H11F15750   4.339   5.408   7.781  0.7712 -1.7081  0.8292
  143OSM   H11G15751   4.468   5.401   7.656 -0.2784 -0.4537 -0.0511
  143OSM   C12F15752   4.394   5.209   7.716  0.0004 -1.1476 -0.1399
  143OSM   H12F15753   4.469   5.199   7.797 -0.2239  0.1468  0.2515
  143OSM   H12G15754   4.434   5.163   7.623  2.8212 -0.0799  0.4495
  143OSM   C13F15755   4.272   5.139   7.786  0.2614 -0.1155 -0.2732
  143OSM   H13F15756   4.178   5.155   7.729 -1.4580  2.2648  2.9065
  143OSM   H13G15757   4.273   5.179   7.889  0.0841 -2.1121  0.5533
  143OSM   C14F15758   4.298   4.991   7.807 -0.3849  1.4930 -0.3721
  143OSM   H14F15759   4.397   4.985   7.858 -1.5678  0.1441  1.9419
  143OSM   H14G15760   4.317   4.938   7.711 -1.0101 -1.0848  0.8215
  143OSM   C15F15761   4.193   4.933   7.907  0.1283  0.0330  0.0418
  143OSM   H15F15762   4.090   4.945   7.868 -1.7066 -1.9309  3.6954
  143OSM   H15G15763   4.193   4.981   8.007 -0.2078 -0.7885  0.4527
  143OSM   C16F15764   4.218   4.784   7.934 -0.5978  0.0455 -0.1580
  143OSM   H16F15765   4.324   4.755   7.955  0.0846  1.2578 -1.6820
  143OSM   H16G15766   4.190   4.727   7.844  0.1012  1.4383 -1.2992
  143OSM   C17F15767   4.141   4.741   8.062  0.4512  0.1375  0.1970
  143OSM   H17F15768   4.034   4.767   8.047  0.2624  0.2802  1.6071
  143OSM   H17G15769   4.189   4.798   8.144  0.8430 -0.4399  0.3804
  143OSM   C18F15770   4.162   4.591   8.093  0.4182 -0.0955  0.0730
  143OSM   H18F15771   4.270   4.572   8.109  0.1851 -0.1355  1.7395
  143OSM   H18G15772   4.122   4.531   8.009 -2.3424  1.0834  0.4385
  143OSM   H18H15773   4.101   4.553   8.178  0.7863 -1.9986 -0.4701
  144OSM      N15774   1.988   5.636   6.026 -0.0406  0.2851  0.5531
  144OSM    C1515775   1.891   5.569   5.934 -0.1772  0.1597  0.7685
  144OSM   H15A15776   1.789   5.600   5.951 -0.6205 -0.3828 -0.7312
  144OSM   H15B15777   1.893   5.461   5.925 -0.3569  0.2817 -1.1375
  144OSM   H15C15778   1.898   5.610   5.835 -0.9982  3.3600  1.9118
  144OSM    C1415779   1.976   5.784   6.002 -0.4712  0.2613  0.1609
  144OSM   H14A15780   2.002   5.794   5.898 -0.8361 -1.7525 -0.1603
  144OSM   H14B15781   2.056   5.842   6.046  0.1414  0.8284 -1.6108
  144OSM   H14C15782   1.877   5.825   6.011 -1.3261 -1.6585 -0.1200
  144OSM    C1315783   1.962   5.598   6.166  0.3161 -0.4812 -0.1201
  144OSM   H13A15784   1.976   5.491   6.169 -0.4957 -0.7378 -2.9994
  144OSM   H13B15785   1.857   5.620   6.180  0.3794 -1.1417  1.6211
  144OSM   H13C15786   2.017   5.650   6.242 -0.0690 -1.1836  0.6588
  144OSM    C1215787   2.130   5.595   5.982 -0.0413  0.2245 -0.8853
  144OSM   H12A15788   2.130   5.597   5.874  0.1568 -0.7521 -0.9112
  144OSM   H12B15789   2.155   5.493   6.006  0.9872  0.8794  0.9877
  144OSM    C1115790   2.248   5.685   6.027  0.1154 -0.1683 -0.0085
  144OSM   H11A15791   2.230   5.789   5.994 -1.1985 -0.4175 -0.1320
  144OSM   H11B15792   2.337   5.648   5.972 -0.5210 -2.1224  0.1789
  144OSM      P15793   2.342   5.571   6.245 -0.1283 -0.1495  0.4136
  144OSM    O1315794   2.319   5.439   6.189 -0.0645 -0.1647  0.1580
  144OSM    O1415795   2.483   5.613   6.253 -0.2691  0.2083  0.0301
  144OSM    O1115796   2.283   5.575   6.395 -0.3289 -0.2784 -0.1607
  144OSM    O1215797   2.262   5.680   6.170 -0.5632 -0.2294  0.3257
  144OSM    C1S15798   2.349   5.667   6.484 -0.0649 -0.3891  0.6216
  144OSM    H1S15799   2.323   5.774   6.469 -0.9768 -0.5366  1.0661
  144OSM    H1T15800   2.459   5.661   6.479 -0.1658 -1.2028 -2.7488
  144OSM     NF15801   2.377   5.742   6.719 -0.3243 -0.4079  0.2174
  144OSM    HNF15802   2.469   5.720   6.751 -0.1582  0.6793  0.5148
  144OSM    C2S15803   2.309   5.639   6.637  0.1101  0.5346 -0.6143
  144OSM    H2S15804   2.199   5.651   6.649 -0.0395  1.3465 -2.4464
  144OSM    C3S15805   2.346   5.489   6.665  0.2982 -0.6579 -0.1184
  144OSM    H3S15806   2.455   5.479   6.644  0.0915 -1.7607 -0.7330
  144OSM     O315807   2.285   5.389   6.583 -0.9671  0.4108 -1.1098
  144OSM    HO315808   2.246   5.436   6.510 -0.0029  0.1138 -1.8416
  144OSM    C4S15809   2.334   5.464   6.819  0.1352 -0.3842 -0.0066
  144OSM    H4S15810   2.429   5.482   6.871  0.6248 -2.5820 -0.0497
  144OSM    C5S15811   2.222   5.416   6.881  0.4311  0.1216  0.3368
  144OSM    H5S15812   2.136   5.376   6.824  0.7295 -0.6716  0.4226
  144OSM    C6S15813   2.203   5.384   7.027 -0.1335 -0.7560  0.1625
  144OSM    H6S15814   2.223   5.276   7.042  2.4646 -0.1157  1.9114
  144OSM    H6T15815   2.094   5.388   7.049  0.1049 -2.2548  1.8832
  144OSM    C7S15816   2.290   5.458   7.130 -0.3473 -0.4710  0.8263
  144OSM    H7S15817   2.298   5.567   7.112  1.2907 -0.6873  0.0017
  144OSM    H7T15818   2.394   5.421   7.117 -0.4183 -0.0964 -1.0924
  144OSM    C8S15819   2.261   5.413   7.276 -0.3248 -0.2019  0.9861
  144OSM    H8S15820   2.288   5.305   7.282  2.5918  0.4137  0.2519
  144OSM    H8T15821   2.153   5.429   7.295 -0.0702  2.9751  0.3399
  144OSM    C9S15822   2.336   5.492   7.381 -0.4802  0.3099  0.9854
  144OSM    H9S15823   2.323   5.602   7.371  1.2907  0.4004 -1.0746
  144OSM    H9T15824   2.446   5.484   7.367 -0.4477  1.3732  0.5311
  144OSM   C10S15825   2.296   5.437   7.522 -0.1822  0.4038  0.2188
  144OSM   H10S15826   2.340   5.336   7.540  1.1437  1.0734  0.8870
  144OSM   H10T15827   2.185   5.430   7.525 -0.2058 -0.8991 -1.6242
  144OSM   C11S15828   2.346   5.530   7.631  0.4156  0.2000  0.0190
  144OSM   H11S15829   2.328   5.637   7.603  0.0438  0.6815  1.9609
  144OSM   H11T15830   2.457   5.521   7.623  0.3436  0.9317 -3.3815
  144OSM   C12S15831   2.302   5.517   7.779  0.4122 -0.1650  0.4990
  144OSM   H12S15832   2.192   5.525   7.778  0.3942 -0.3816  0.7572
  144OSM   H12T15833   2.339   5.602   7.840 -3.0741  0.6716  1.6349
  144OSM   C13S15834   2.343   5.390   7.849 -0.1090 -0.1414  0.1965
  144OSM   H13S15835   2.454   5.394   7.857  0.0322 -0.0684 -1.5066
  144OSM   H13T15836   2.302   5.304   7.792 -0.0107 -0.5116  0.6704
  144OSM   C14S15837   2.291   5.378   7.988  0.6669 -0.5271 -0.6193
  144OSM   H14S15838   2.290   5.274   8.027 -1.3894  0.5186  2.5138
  144OSM   H14T15839   2.185   5.410   7.982  1.1174  0.8770 -1.4527
  144OSM   C15S15840   2.373   5.466   8.081 -0.4043  0.5881  0.7069
  144OSM   H15S15841   2.375   5.572   8.046 -0.1350  0.1259 -0.7341
  144OSM   H15T15842   2.476   5.426   8.071 -1.3173 -1.5017 -1.2012
  144OSM   C16S15843   2.322   5.455   8.227  0.3482  0.7192  0.1964
  144OSM   H16S15844   2.310   5.346   8.247  0.3588  0.7637  0.4425
  144OSM   H16T15845   2.223   5.501   8.242 -0.2437 -0.6782  0.7756
  144OSM   C17S15846   2.416   5.525   8.317 -0.4326 -0.3181 -0.1833
  144OSM   H17S15847   2.427   5.629   8.280  2.3994  0.7493  3.1285
  144OSM   H17T15848   2.514   5.481   8.291  0.2940  1.7897 -1.2623
  144OSM   C18S15849   2.388   5.520   8.467  0.0048 -0.1017 -0.2136
  144OSM   H18S15850   2.278   5.518   8.480 -0.0184 -1.5853 -0.4502
  144OSM   H18T15851   2.444   5.594   8.528  1.4097 -1.8239  0.6707
  144OSM   H18U15852   2.425   5.420   8.498  0.6297  0.4963  1.0493
  144OSM    C1F15853   2.337   5.866   6.737 -0.1425  0.2917 -0.6848
  144OSM     OF15854   2.238   5.907   6.675 -0.0516  0.3999  0.5572
  144OSM    C2F15855   2.418   5.950   6.828  0.0986 -0.2197  0.2240
  144OSM    H2F15856   2.525   5.934   6.802  0.0041 -0.3078 -0.1045
  144OSM    H2G15857   2.395   5.909   6.929 -0.4882 -0.0626  0.1558
  144OSM    C3F15858   2.373   6.099   6.842 -0.0690  0.6665 -0.5396
  144OSM    H3F15859   2.278   6.100   6.900 -0.5633  0.5598 -1.3431
  144OSM    H3G15860   2.355   6.152   6.746 -2.2929 -0.2904 -0.7007
  144OSM    C4F15861   2.476   6.184   6.912 -0.2816 -0.1158 -0.2035
  144OSM    H4F15862   2.448   6.291   6.909 -0.9407 -0.2804 -3.6507
  144OSM    H4G15863   2.569   6.172   6.853  0.3119  0.1947  0.6505
  144OSM    C5F15864   2.516   6.144   7.058  0.2260  0.2646  0.1133
  144OSM    H5F15865   2.583   6.057   7.047  0.9242  0.5946  1.5107
  144OSM    H5G15866   2.434   6.097   7.118 -0.5681  0.7625 -0.5553
  144OSM    C6F15867   2.583   6.262   7.134 -0.3531  0.7352 -0.5332
  144OSM    H6F15868   2.670   6.294   7.073  0.3600 -0.1697  0.0050
  144OSM    H6G15869   2.618   6.211   7.225 -0.2577 -3.0270 -2.4956
  144OSM    C7F15870   2.487   6.371   7.175 -0.3500  0.0321 -0.3376
  144OSM    H7F15871   2.380   6.358   7.148 -0.8726  0.6535  1.2831
  144OSM    H7G15872   2.512   6.471   7.135 -0.2338  0.3994  0.6198
  144OSM    C8F15873   2.486   6.401   7.333  0.9533  0.4344 -0.5921
  144OSM    H8F15874   2.445   6.503   7.340 -0.4374  0.0728 -2.6498
  144OSM    H8G15875   2.594   6.399   7.358  1.0204 -1.3153 -0.8730
  144OSM    C9F15876   2.403   6.298   7.415  0.4291 -0.1920 -0.3078
  144OSM    H9F15877   2.369   6.214   7.353 -0.8960  1.1207 -1.4410
  144OSM   C10F15878   2.373   6.307   7.547 -1.0502 -0.3927 -0.7028
  144OSM   H10F15879   2.327   6.224   7.604 -0.1612  1.2842  2.7802
  144OSM   C11F15880   2.431   6.404   7.643 -0.5353  0.1125  0.1066
  144OSM   H11F15881   2.390   6.499   7.603 -0.9448 -1.2988 -3.1886
  144OSM   H11G15882   2.539   6.410   7.617 -0.8875  1.6148 -1.1330
  144OSM   C12F15883   2.430   6.380   7.794 -0.1329  0.5881  0.0501
  144OSM   H12F15884   2.455   6.272   7.807 -3.9622 -0.5035 -0.3533
  144OSM   H12G15885   2.325   6.406   7.820  0.0083  0.6207  0.6187
  144OSM   C13F15886   2.518   6.469   7.880 -0.3390  0.1735  0.1399
  144OSM   H13F15887   2.500   6.573   7.848  1.6798 -0.1267 -2.2593
  144OSM   H13G15888   2.625   6.451   7.859 -0.4268 -0.0715 -0.1042
  144OSM   C14F15889   2.504   6.448   8.031  0.4271 -0.4162 -0.0533
  144OSM   H14F15890   2.570   6.519   8.085 -1.2803  0.6803  0.6745
  144OSM   H14G15891   2.528   6.342   8.055  0.1774 -0.2931  0.7700
  144OSM   C15F15892   2.369   6.483   8.086 -0.0874  0.2547 -0.1583
  144OSM   H15F15893   2.347   6.440   8.186  2.0228  0.9160  0.6373
  144OSM   H15G15894   2.292   6.434   8.023 -0.0094 -2.3434  1.6185
  144OSM   C16F15895   2.340   6.637   8.102  0.0675 -0.1487 -0.3510
  144OSM   H16F15896   2.345   6.698   8.009 -2.8447  0.8937  0.0892
  144OSM   H16G15897   2.422   6.673   8.167 -0.7181 -0.4288  0.8226
  144OSM   C17F15898   2.209   6.659   8.169  0.0809  0.2186  0.3318
  144OSM   H17F15899   2.201   6.612   8.269 -1.3738  2.0954  1.1570
  144OSM   H17G15900   2.131   6.619   8.100  1.1996 -0.4371 -0.5804
  144OSM   C18F15901   2.166   6.805   8.192  0.5833  0.0930  0.4750
  144OSM   H18F15902   2.165   6.860   8.095  0.2663 -0.2879  0.2524
  144OSM   H18G15903   2.241   6.856   8.255  0.8329 -0.6392  0.7893
  144OSM   H18H15904   2.068   6.816   8.243 -0.5223  0.0966 -1.5170
  145SAPE     N15905   6.586   2.285  10.773  0.4147  0.4367  0.3217
  145SAPE   HN115906   6.650   2.214  10.816  0.0003  1.1552  2.2173
  145SAPE   HN215907   6.494   2.245  10.798  0.7443 -0.4472  0.1687
  145SAPE   HN315908   6.595   2.283  10.670  0.5676 -0.1750  0.3422
  145SAPE   C1215909   6.591   2.420  10.838  0.0106  1.0744 -0.2020
  145SAPE  H12A15910   6.582   2.399  10.947  1.7865  1.0765 -0.0189
  145SAPE  H12B15911   6.491   2.463  10.820 -0.7950 -0.1614  1.1100
  145SAPE   C1115912   6.715   2.492  10.797 -0.1892  0.7783 -0.2162
  145SAPE  H11A15913   6.803   2.428  10.817  1.4187  3.1218  0.6013
  145SAPE  H11B15914   6.725   2.583  10.860  1.1367  0.2291  0.3954
  145SAPE     P15915   6.841   2.599  10.597 -0.2658 -0.3455  0.7293
  145SAPE   O1315916   6.807   2.632  10.452  0.3524  0.7899 -0.6143
  145SAPE   O1415917   6.857   2.718  10.686 -0.6365  0.9787  0.5436
  145SAPE   O1215918   6.724   2.513  10.660 -0.3452  0.1349  0.4888
  145SAPE   O1115919   6.969   2.507  10.597 -0.2411  0.6878  0.0564
  145SAPE    C115920   6.955   2.366  10.578 -0.7641 -0.3226  0.3410
  145SAPE    HA15921   6.968   2.310  10.674 -0.7047  0.4564  0.7950
  145SAPE    HB15922   6.859   2.333  10.534 -0.4417  1.2353 -1.6658
  145SAPE    C215923   7.066   2.301  10.483 -0.0387  0.3917 -0.0172
  145SAPE    HS15924   7.164   2.310  10.535  0.3050  3.0115 -0.9741
  145SAPE   O2115925   7.064   2.377  10.366 -0.3275  0.0067  0.4783
  145SAPE   C2115926   7.171   2.363  10.285 -0.4994 -0.4311  0.2835
  145SAPE   O2215927   7.266   2.290  10.308 -0.1117  0.0483 -0.4511
  145SAPE   C2215928   7.160   2.447  10.154 -0.2337  0.2232  0.4865
  145SAPE   H2R15929   7.132   2.552  10.180 -0.4290  1.0723 -2.7657
  145SAPE   H2S15930   7.267   2.445  10.122  0.4777  0.0003  2.6973
  145SAPE    C315931   7.028   2.150  10.445 -0.4361 -0.0256  0.0379
  145SAPE    HX15932   7.026   2.099  10.543  4.2578 -0.1030  0.3112
  145SAPE    HY15933   7.112   2.106  10.387  0.0492  1.3948 -0.4000
  145SAPE   O3115934   6.895   2.143  10.380 -0.3416 -0.3221  0.3320
  145SAPE   C3115935   6.859   2.024  10.335 -0.0966 -0.0493 -0.6769
  145SAPE   O3215936   6.912   1.918  10.354 -0.1282 -0.4480 -0.6946
  145SAPE   C3215937   6.732   2.037  10.258  0.6477  0.4664  0.9510
  145SAPE   H2X15938   6.737   2.133  10.203  3.3847 -0.0047  0.2222
  145SAPE   H2Y15939   6.646   2.029  10.329 -1.5146 -1.6124 -1.6791
  145SAPE   C2315940   7.054   2.377  10.062  0.5532 -0.1672 -0.4190
  145SAPE   H3R15941   6.966   2.350  10.124  1.0870 -1.2317 -0.0931
  145SAPE   H3S15942   7.108   2.288  10.021  3.5989  1.3132  0.1223
  145SAPE   C2415943   7.002   2.475   9.958 -0.4755  0.2640 -0.1951
  145SAPE   H4R15944   7.089   2.526   9.913 -0.3263  0.2419  0.0654
  145SAPE   H4S15945   6.940   2.558   9.996 -0.6101  0.0103  0.1485
  145SAPE   C2515946   6.928   2.404   9.853 -0.2641 -0.1012 -0.2000
  145SAPE   H5R15947   6.820   2.405   9.872 -0.5132 -1.4856 -1.3476
  145SAPE   C2615948   6.972   2.335   9.744 -0.3527 -0.4352  0.5499
  145SAPE   H6R15949   6.896   2.286   9.680  0.1250  0.1989 -0.5322
  145SAPE   C2715950   7.110   2.311   9.700 -0.3089 -0.0681  0.0788
  145SAPE   H7R15951   7.100   2.226   9.629 -0.5610 -1.2473  1.4728
  145SAPE   H7S15952   7.172   2.271   9.783 -0.5643  2.1044  1.3975
  145SAPE   C2815953   7.190   2.434   9.653  0.1585 -0.1179  0.5203
  145SAPE   H8R15954   7.204   2.512   9.729 -0.7189  0.5835 -0.0188
  145SAPE   C2915955   7.227   2.456   9.525 -0.4234 -0.4505  0.2053
  145SAPE   H9R15956   7.281   2.549   9.503 -2.8914  1.0545  0.1240
  145SAPE  C21015957   7.194   2.360   9.413 -0.5040 -0.7407  0.3396
  145SAPE  H10R15958   7.083   2.369   9.417 -0.3777  0.6347  3.2350
  145SAPE  H10S15959   7.214   2.253   9.436  0.4600 -0.5969  0.1747
  145SAPE  C21115960   7.261   2.401   9.280 -0.2754 -0.0466 -0.3036
  145SAPE  H11R15961   7.293   2.506   9.279 -1.0287  0.2371  1.4883
  145SAPE  C21215962   7.287   2.320   9.174 -0.4979 -0.6963  0.0444
  145SAPE  H12R15963   7.339   2.374   9.093  1.0420  1.9262  2.5806
  145SAPE  C21315964   7.261   2.175   9.153 -0.2060 -0.5308  0.9110
  145SAPE  H13R15965   7.189   2.149   9.233 -0.4860 -0.3239  0.7284
  145SAPE  H13S15966   7.351   2.112   9.167  2.6039  3.1623  1.0886
  145SAPE  C21415967   7.203   2.150   9.017  0.1521  0.3668 -0.3839
  145SAPE  H14R15968   7.104   2.103   9.027 -0.2808  1.1953 -0.6289
  145SAPE  C21515969   7.249   2.177   8.889 -0.1149  0.1216 -0.2897
  145SAPE  H15R15970   7.188   2.146   8.803  0.0840  0.7222 -0.6487
  145SAPE  C21615971   7.392   2.227   8.862 -0.2726 -0.3526  0.1445
  145SAPE  H16R15972   7.454   2.150   8.810 -1.7953 -1.8952  0.5232
  145SAPE  H16S15973   7.441   2.237   8.961 -0.1382 -1.5094  0.2142
  145SAPE  C21715974   7.395   2.357   8.774 -0.5276  0.0931  0.5418
  145SAPE  H17R15975   7.341   2.430   8.837 -0.2846  2.4921 -1.8692
  145SAPE  H17S15976   7.340   2.337   8.680 -0.4288  1.6832  0.1114
  145SAPE  C21815977   7.533   2.403   8.751  0.1123  0.2325  0.1482
  145SAPE  H18R15978   7.594   2.313   8.727 -1.4772 -0.6334 -0.8540
  145SAPE  H18S15979   7.582   2.461   8.832 -1.1668 -0.5997  1.5715
  145SAPE  C21915980   7.523   2.502   8.627 -0.1406 -0.3404  1.0157
  145SAPE  H19R15981   7.479   2.593   8.673  0.7104  0.4243  0.3819
  145SAPE  H19S15982   7.470   2.463   8.537  1.5579  0.9468 -0.6277
  145SAPE  C22015983   7.657   2.550   8.564 -0.2046  0.5057  0.3351
  145SAPE  H20R15984   7.705   2.478   8.494  0.9393  1.2594  0.3132
  145SAPE  H20S15985   7.731   2.559   8.647  1.9100 -1.8305 -1.1338
  145SAPE  H20T15986   7.636   2.648   8.517  1.5508  1.2784  1.0603
  145SAPE   C3315987   6.706   1.932  10.146 -0.0583  1.0978 -0.9696
  145SAPE   H3X15988   6.597   1.941  10.126 -0.8341 -1.3512  1.6240
  145SAPE   H3Y15989   6.720   1.832  10.190  2.7086  1.9889  0.3776
  145SAPE   C3415990   6.790   1.966  10.027 -0.1897 -0.2973 -0.5293
  145SAPE   H4X15991   6.898   1.948  10.047 -0.3984  0.3882  1.4919
  145SAPE   H4Y15992   6.777   2.075  10.011 -0.8695 -0.1393  0.9655
  145SAPE   C3515993   6.748   1.891   9.899  0.4331  0.0228  0.0073
  145SAPE   H5X15994   6.821   1.910   9.817  0.8946 -1.2388  0.1046
  145SAPE   H5Y15995   6.654   1.936   9.860 -0.1124 -1.7250 -0.7600
  145SAPE   C3615996   6.725   1.746   9.914  0.7756 -0.4741  0.3990
  145SAPE   H6X15997   6.634   1.726   9.973  1.0583 -0.5790  0.8041
  145SAPE   H6Y15998   6.815   1.708   9.967  1.2341  1.2086  0.8959
  145SAPE   C3715999   6.721   1.670   9.787  0.1158 -0.1059  0.1109
  145SAPE   H7X16000   6.693   1.565   9.809  1.3578 -0.7851 -1.4111
  145SAPE   H7Y16001   6.822   1.649   9.746 -0.2519 -0.3116 -0.7073
  145SAPE   C3816002   6.630   1.733   9.680  1.0551  0.1721  0.5551
  145SAPE   H8X16003   6.673   1.831   9.649  1.6332 -0.4883 -0.8481
  145SAPE   H8Y16004   6.526   1.753   9.713  1.4785  1.2560  1.2693
  145SAPE   C3916005   6.634   1.639   9.557 -0.4338 -0.0541 -0.2964
  145SAPE   H9X16006   6.584   1.545   9.589  2.6917 -1.4320  0.8321
  145SAPE   H9Y16007   6.742   1.635   9.532 -0.1465  0.5135  0.8032
  145SAPE  C31016008   6.549   1.696   9.446  0.0333 -0.0225 -0.0686
  145SAPE  H10X16009   6.530   1.804   9.464 -1.2846 -0.1757 -0.4582
  145SAPE  H10Y16010   6.445   1.658   9.440 -1.2439  3.2845 -1.4289
  145SAPE  C31116011   6.615   1.691   9.306 -0.4058  0.3157  0.7781
  145SAPE  H11X16012   6.546   1.658   9.226 -2.2092  1.4711  1.7783
  145SAPE  H11Y16013   6.684   1.605   9.318 -1.8955 -1.1652 -0.7139
  145SAPE  C31216014   6.699   1.819   9.269 -0.1833 -0.1690 -0.4936
  145SAPE  H12X16015   6.783   1.828   9.340 -0.6451  0.1955  0.0173
  145SAPE  H12Y16016   6.630   1.905   9.284 -1.7590 -0.8953 -2.9139
  145SAPE  C31316017   6.739   1.801   9.124  0.0272 -0.1257  0.0234
  145SAPE  H13X16018   6.651   1.781   9.060  0.4519  1.7242 -1.2294
  145SAPE  H13Y16019   6.805   1.714   9.101 -1.4691 -1.2743 -0.0321
  145SAPE  C31416020   6.787   1.928   9.062  0.2404 -0.1308  0.2412
  145SAPE  H14X16021   6.873   1.979   9.112 -0.2114  0.2025  0.6870
  145SAPE  H14Y16022   6.707   2.002   9.040  1.4074  0.5636 -1.9561
  145SAPE  C31516023   6.846   1.899   8.922  1.1624 -0.4731 -0.3070
  145SAPE  H15X16024   6.864   1.990   8.861  1.1574  0.1203  0.5467
  145SAPE  H15Y16025   6.763   1.845   8.873  0.7254 -0.9919  0.9729
  145SAPE  C31616026   6.974   1.814   8.918 -0.5028  0.0338  0.5300
  145SAPE  H16X16027   6.959   1.727   8.986  1.5443  0.8943  2.2128
  145SAPE  H16Y16028   7.054   1.875   8.964 -1.1003  0.3934  1.1037
  145SAPE  C31716029   7.018   1.756   8.783  0.0088  0.0456 -0.1304
  145SAPE  H17X16030   7.114   1.705   8.805 -0.2419 -0.3049  0.1674
  145SAPE  H17Y16031   7.040   1.841   8.715 -0.4414 -0.0740 -0.4253
  145SAPE  C31816032   6.915   1.664   8.716  0.1470  0.4461 -0.8427
  145SAPE  H18X16033   6.968   1.610   8.634 -2.6433 -0.1586 -2.3895
  145SAPE  H18Y16034   6.833   1.719   8.666 -0.2748  0.3904 -0.2208
  145SAPE  H18Z16035   6.874   1.589   8.787  1.4383 -0.3630 -0.9184
  146SAPE     N16036   6.385   1.885  10.662  0.1273 -0.3039 -0.0661
  146SAPE   HN116037   6.383   1.910  10.561  0.2656 -1.8422 -0.4759
  146SAPE   HN216038   6.302   1.924  10.710 -0.2974 -0.0935 -0.9557
  146SAPE   HN316039   6.476   1.927  10.688  0.9630 -0.4972 -2.4660
  146SAPE   C1216040   6.402   1.732  10.676  0.5824  0.2440 -0.0687
  146SAPE  H12A16041   6.452   1.709  10.772  0.5151 -0.1482 -0.1264
  146SAPE  H12B16042   6.476   1.702  10.598  2.8547  1.2690  1.5682
  146SAPE   C1116043   6.273   1.658  10.660  0.0263 -0.8710  0.4516
  146SAPE  H11A16044   6.283   1.549  10.679  0.0133 -1.3000 -1.6738
  146SAPE  H11B16045   6.246   1.681  10.554  0.8117 -0.6337  0.2971
  146SAPE     P16046   6.027   1.678  10.755 -0.0556 -0.2237 -0.4598
  146SAPE   O1316047   6.012   1.542  10.797 -0.6516  0.3286  0.1802
  146SAPE   O1416048   5.972   1.775  10.851 -0.0980  0.5013  0.1553
  146SAPE   O1216049   6.182   1.717  10.750 -0.2440  1.0906 -0.1390
  146SAPE   O1116050   5.969   1.705  10.613  0.1896 -0.3615  0.0918
  146SAPE    C116051   5.991   1.827  10.540 -0.5026 -0.2573  0.1262
  146SAPE    HA16052   6.041   1.902  10.606 -1.4075 -0.6491  1.2827
  146SAPE    HB16053   6.061   1.810  10.456 -0.0573 -3.7489  1.0249
  146SAPE    C216054   5.865   1.895  10.487  0.5016 -0.5302 -0.1413
  146SAPE    HS16055   5.797   1.899  10.575  1.8748  4.3421  1.0009
  146SAPE   O2116056   5.812   1.815  10.380  0.2268  0.2277 -0.2133
  146SAPE   C2116057   5.685   1.830  10.337  0.2398  0.1063 -0.4207
  146SAPE   O2216058   5.605   1.908  10.391 -0.5961  0.3570  0.2449
  146SAPE   C2216059   5.666   1.753  10.211  0.7126 -0.1411  0.2499
  146SAPE   H2R16060   5.765   1.757  10.161  0.1977  1.7289 -0.7302
  146SAPE   H2S16061   5.629   1.650  10.233 -1.2981  0.4761  0.0144
  146SAPE    C316062   5.889   2.040  10.441 -0.7419 -0.8702 -0.0928
  146SAPE    HX16063   5.921   2.107  10.524 -1.4058  1.0459 -1.3052
  146SAPE    HY16064   5.795   2.092  10.413 -1.9163 -2.2532  1.1088
  146SAPE   O3116065   5.995   2.038  10.335 -0.4674 -0.0764 -0.4515
  146SAPE   C3116066   5.950   2.050  10.216 -0.4136  0.1707 -0.7499
  146SAPE   O3216067   5.832   2.064  10.188  0.4828 -0.1794  0.4649
  146SAPE   C3216068   6.062   2.046  10.116 -0.6910 -0.3721  0.0128
  146SAPE   H2X16069   6.127   1.960  10.142 -0.5104 -0.5810 -1.0944
  146SAPE   H2Y16070   6.120   2.140  10.124  0.3970 -1.1596  1.7484
  146SAPE   C2316071   5.560   1.833  10.134  0.0464 -0.6752  0.3376
  146SAPE   H3R16072   5.561   1.943  10.142 -0.4755 -0.5452 -1.0667
  146SAPE   H3S16073   5.461   1.790  10.160 -0.5581  1.7920  2.4366
  146SAPE   C2416074   5.575   1.799   9.979 -0.5344 -0.2687 -0.3906
  146SAPE   H4R16075   5.474   1.821   9.939  0.4561  2.1423 -1.8119
  146SAPE   H4S16076   5.598   1.690   9.989 -1.3445 -0.2700  2.1805
  146SAPE   C2516077   5.689   1.870   9.914  0.5552 -0.1596  0.3170
  146SAPE   H5R16078   5.732   1.958   9.965  0.4102  1.9158 -2.8720
  146SAPE   C2616079   5.740   1.840   9.799  0.2558 -0.4539 -0.5258
  146SAPE   H6R16080   5.818   1.903   9.753  0.9769 -0.6736  0.3732
  146SAPE   C2716081   5.692   1.733   9.715  0.5946  0.1604  0.6842
  146SAPE   H7R16082   5.638   1.653   9.771 -0.8625  0.2135 -0.5904
  146SAPE   H7S16083   5.778   1.689   9.660 -1.1911 -0.5658 -1.7069
  146SAPE   C2816084   5.580   1.785   9.623 -0.4445  0.4070  0.9778
  146SAPE   H8R16085   5.481   1.788   9.669 -1.3082  0.6984 -0.8180
  146SAPE   C2916086   5.583   1.825   9.493 -0.3537  0.7462 -1.0405
  146SAPE   H9R16087   5.489   1.869   9.456 -1.5875 -0.0097  1.0448
  146SAPE  C21016088   5.699   1.833   9.401 -0.8133  0.2169 -0.2648
  146SAPE  H10R16089   5.797   1.818   9.452 -0.3888  1.7688 -0.5538
  146SAPE  H10S16090   5.712   1.937   9.362 -2.5178  0.3146 -0.6275
  146SAPE  C21116091   5.699   1.728   9.292  0.9866 -0.4280 -0.0359
  146SAPE  H11R16092   5.617   1.655   9.299 -0.6247  1.3307  0.1939
  146SAPE  C21216093   5.781   1.726   9.182  0.5120 -0.2408  0.0597
  146SAPE  H12R16094   5.788   1.638   9.116  2.6056 -0.3466  0.3422
  146SAPE  C21316095   5.888   1.823   9.136  0.0695  0.1728  0.1866
  146SAPE  H13R16096   5.986   1.773   9.153 -1.2126 -2.4309  0.3511
  146SAPE  H13S16097   5.887   1.908   9.208 -2.1385 -1.0240  1.6531
  146SAPE  C21416098   5.867   1.857   8.987 -0.0696  0.5009 -0.1889
  146SAPE  H14R16099   5.820   1.956   8.971 -2.5373 -0.5299  0.1547
  146SAPE  C21516100   5.928   1.796   8.879  0.2875 -0.0909  0.4635
  146SAPE  H15R16101   5.906   1.832   8.777 -1.4795  2.1950  1.5643
  146SAPE  C21616102   6.031   1.677   8.888 -0.8009 -0.8134 -0.1804
  146SAPE  H16R16103   6.001   1.606   8.807  0.7660 -1.0785 -0.5635
  146SAPE  H16S16104   6.016   1.619   8.981  1.5233 -1.3953 -0.1128
  146SAPE  C21716105   6.182   1.712   8.878  0.0817  0.0937 -0.7369
  146SAPE  H17R16106   6.221   1.759   8.970  0.5571  0.1030 -0.9425
  146SAPE  H17S16107   6.195   1.781   8.792  0.0158 -0.4383 -1.1781
  146SAPE  C21816108   6.264   1.588   8.855 -0.2834  0.4002 -0.3043
  146SAPE  H18R16109   6.232   1.530   8.766  0.7074  1.0471 -1.0935
  146SAPE  H18S16110   6.253   1.524   8.945 -2.1359  1.2802  0.1574
  146SAPE  C21916111   6.411   1.619   8.858 -0.3411  0.1188 -0.0358
  146SAPE  H19R16112   6.433   1.658   8.959  1.0487 -2.6594  0.8413
  146SAPE  H19S16113   6.441   1.684   8.773  0.8869  2.9818  2.4129
  146SAPE  C22016114   6.484   1.479   8.847 -0.1226  0.2311  0.7951
  146SAPE  H20R16115   6.437   1.419   8.766  0.3157  1.0533 -0.0816
  146SAPE  H20S16116   6.462   1.418   8.938  0.6502  2.2015  2.3979
  146SAPE  H20T16117   6.592   1.483   8.825 -0.3796  0.5954 -0.4775
  146SAPE   C3316118   6.025   2.031   9.970  0.3246  0.1347 -1.0151
  146SAPE   H3X16119   5.947   2.103   9.936 -3.9203 -2.9866  1.1118
  146SAPE   H3Y16120   5.978   1.930   9.967 -1.6725  0.8918  1.2001
  146SAPE   C3416121   6.151   2.035   9.879 -0.6574  0.5103 -0.5336
  146SAPE   H4X16122   6.243   1.995   9.926 -1.3989 -1.1297 -0.3968
  146SAPE   H4Y16123   6.154   2.143   9.852 -0.5089  0.3451 -1.2110
  146SAPE   C3516124   6.124   1.960   9.743  0.2714 -0.3827 -0.3643
  146SAPE   H5X16125   6.021   1.961   9.702  0.5348 -0.8608 -1.0702
  146SAPE   H5Y16126   6.141   1.852   9.759  0.2947 -0.2752  0.3553
  146SAPE   C3616127   6.214   2.008   9.631  0.4279 -0.2181 -0.0071
  146SAPE   H6X16128   6.317   1.972   9.651  0.5779 -0.4275 -1.0670
  146SAPE   H6Y16129   6.212   2.118   9.645 -1.9015 -0.2636  0.5316
  146SAPE   C3716130   6.165   1.974   9.486 -0.2620 -0.4796 -0.3445
  146SAPE   H7X16131   6.060   2.008   9.476  0.4197  1.7689 -0.5390
  146SAPE   H7Y16132   6.187   1.866   9.476 -0.8850 -0.6385 -0.0279
  146SAPE   C3816133   6.255   2.060   9.388  0.2012 -0.9163 -0.0576
  146SAPE   H8X16134   6.362   2.063   9.417  0.3411  1.2362 -0.6504
  146SAPE   H8Y16135   6.222   2.165   9.400  1.1865 -0.2873 -2.3997
  146SAPE   C3916136   6.240   2.023   9.246 -0.1690 -0.1378  0.3869
  146SAPE   H9X16137   6.141   1.983   9.216  0.6412 -3.3436  1.5331
  146SAPE   H9Y16138   6.304   1.936   9.222  0.0623 -0.9012  3.3513
  146SAPE  C31016139   6.294   2.134   9.147  0.0327 -0.2317 -0.2909
  146SAPE  H10X16140   6.401   2.152   9.171 -0.7441  2.4537  1.6531
  146SAPE  H10Y16141   6.235   2.226   9.169 -2.1576 -1.6922  0.2306
  146SAPE  C31116142   6.276   2.094   8.999 -0.4273 -0.4238  0.4813
  146SAPE  H11X16143   6.166   2.086   8.984 -0.3863 -0.5248  0.2332
  146SAPE  H11Y16144   6.314   1.990   8.984 -0.1681 -0.1175 -1.1453
  146SAPE  C31216145   6.345   2.180   8.897  0.1158 -0.2429  0.6139
  146SAPE  H12X16146   6.288   2.274   8.880  0.9670  0.4984  1.7341
  146SAPE  H12Y16147   6.345   2.118   8.805 -0.7952 -1.0380  1.1224
  146SAPE  C31316148   6.494   2.212   8.919  0.4479 -0.0019  0.2334
  146SAPE  H13X16149   6.538   2.118   8.955  0.1304 -0.1032  0.3643
  146SAPE  H13Y16150   6.515   2.292   8.993  0.2369  0.8163 -0.5587
  146SAPE  C31416151   6.556   2.243   8.785  0.4272 -0.2303  0.8050
  146SAPE  H14X16152   6.489   2.305   8.722 -1.3180 -0.9718  1.8577
  146SAPE  H14Y16153   6.547   2.148   8.729 -0.2888  0.2195  0.1316
  146SAPE  C31516154   6.707   2.290   8.774  0.1707  0.3799  0.0927
  146SAPE  H15X16155   6.777   2.231   8.836 -1.0118 -0.5360  0.5940
  146SAPE  H15Y16156   6.712   2.400   8.791  0.4651  0.4910 -0.6904
  146SAPE  C31616157   6.753   2.254   8.629 -0.0123 -0.4237  0.3379
  146SAPE  H16X16158   6.660   2.271   8.571 -0.5812 -2.0009  0.7361
  146SAPE  H16Y16159   6.774   2.150   8.598  2.8328  0.6791 -1.8678
  146SAPE  C31716160   6.873   2.336   8.583  0.5287  0.1441  0.3273
  146SAPE  H17X16161   6.851   2.445   8.579 -2.5785 -0.3949 -0.8857
  146SAPE  H17Y16162   6.908   2.311   8.480  2.3621 -0.6417  1.1142
  146SAPE  C31816163   7.001   2.308   8.662 -0.1940  0.3826  0.0864
  146SAPE  H18X16164   6.979   2.328   8.769  1.0434 -2.5953  1.0190
  146SAPE  H18Y16165   7.082   2.377   8.632  0.9169 -0.3517  1.2685
  146SAPE  H18Z16166   7.037   2.202   8.665  0.1968  0.4911 -0.6602
  147SAPE     N16167   0.798   6.014  10.593 -0.0439 -0.2251 -0.0079
  147SAPE   HN116168   0.694   6.019  10.597 -0.0777  0.7839 -1.3888
  147SAPE   HN216169   0.836   6.094  10.646 -1.9554 -0.5238  1.9476
  147SAPE   HN316170   0.820   6.028  10.492 -2.3387  2.1612 -0.2691
  147SAPE   C1216171   0.831   5.880  10.650  0.5649  0.0271 -0.1272
  147SAPE  H12A16172   0.745   5.816  10.620 -4.0892  4.1426  2.7527
  147SAPE  H12B16173   0.828   5.894  10.760  2.1855 -0.7113  0.0323
  147SAPE   C1116174   0.970   5.831  10.610  0.5434 -0.0695  0.8543
  147SAPE  H11A16175   1.050   5.895  10.653  0.4282 -1.3429  3.0858
  147SAPE  H11B16176   0.968   5.852  10.501  0.4458  2.5628  1.2914
  147SAPE     P16177   1.025   5.640  10.784 -0.0783  0.2460  0.0506
  147SAPE   O1316178   1.152   5.700  10.837  0.2940 -0.2146 -0.0746
  147SAPE   O1416179   0.906   5.647  10.872  0.0766  0.0533  0.0518
  147SAPE   O1216180   0.987   5.694  10.640  0.1161 -0.0482 -0.1886
  147SAPE   O1116181   1.052   5.488  10.767 -0.3109 -0.1392  0.1271
  147SAPE    C116182   1.180   5.434  10.737 -0.2622  0.0484 -0.3977
  147SAPE    HA16183   1.244   5.516  10.698  0.0135  1.1153  2.1110
  147SAPE    HB16184   1.213   5.387  10.832 -0.8752 -1.0906 -0.7299
  147SAPE    C216185   1.181   5.331  10.624  0.7666  0.3156 -0.6300
  147SAPE    HS16186   1.284   5.299  10.599  0.2700 -1.7119 -0.2624
  147SAPE   O2116187   1.122   5.381  10.507  0.1747 -0.1919 -0.2561
  147SAPE   C2116188   1.187   5.468  10.428  0.1666  0.9592 -0.3154
  147SAPE   O2216189   1.304   5.495  10.443 -0.5512  0.2661 -0.3129
  147SAPE   C2216190   1.098   5.533  10.324 -0.0831  0.1434 -0.2896
  147SAPE   H2R16191   1.034   5.456  10.276 -0.4451  0.6745 -0.6748
  147SAPE   H2S16192   1.029   5.603  10.376 -1.1905 -0.5240 -0.8277
  147SAPE    C316193   1.105   5.202  10.672 -0.3004 -0.5156 -0.3715
  147SAPE    HX16194   1.003   5.238  10.697  0.3333 -0.2282  2.0884
  147SAPE    HY16195   1.163   5.174  10.763 -1.5136  0.6720  0.8249
  147SAPE   O3116196   1.116   5.102  10.568 -0.2280 -0.5409  0.8087
  147SAPE   C3116197   1.007   5.103  10.484 -0.8294  0.2667  0.4838
  147SAPE   O3216198   0.903   5.166  10.496 -0.3065 -0.1012 -0.1246
  147SAPE   C3216199   1.035   4.996  10.373 -0.5839 -0.3343  0.6382
  147SAPE   H2X16200   0.972   4.910  10.404  0.0639 -0.4824  1.5784
  147SAPE   H2Y16201   1.142   4.967  10.373 -0.2493  0.8429  0.4980
  147SAPE   C2316202   1.161   5.622  10.213 -0.0569  0.7048 -0.0869
  147SAPE   H3R16203   1.225   5.700  10.259 -1.0676  0.0115  2.6833
  147SAPE   H3S16204   1.072   5.658  10.156 -0.8012 -1.5564 -0.4460
  147SAPE   C2416205   1.240   5.530  10.113 -0.1112  0.9249  0.7057
  147SAPE   H4R16206   1.158   5.477  10.059  0.2076  2.5300 -1.4911
  147SAPE   H4S16207   1.296   5.455  10.173 -0.6531  0.8612  1.1365
  147SAPE   C2516208   1.332   5.602  10.028  0.4817 -0.1170 -0.6324
  147SAPE   H5R16209   1.408   5.650  10.092 -1.1942  1.7261  0.0914
  147SAPE   C2616210   1.322   5.631   9.897 -0.1253 -0.2637  0.3031
  147SAPE   H6R16211   1.399   5.692   9.847 -1.6183  1.3372 -0.1511
  147SAPE   C2716212   1.211   5.590   9.804 -0.0344  0.0361 -0.2805
  147SAPE   H7R16213   1.200   5.665   9.722  0.6647 -0.5341 -0.9168
  147SAPE   H7S16214   1.115   5.598   9.859  0.5108  0.2670  0.6502
  147SAPE   C2816215   1.218   5.452   9.733 -0.0256  0.4233 -0.7110
  147SAPE   H8R16216   1.209   5.369   9.805  0.3255 -1.1400 -2.4037
  147SAPE   C2916217   1.228   5.424   9.606 -0.3505  0.4959  0.4126
  147SAPE   H9R16218   1.226   5.319   9.573  0.9430  1.6016 -3.8534
  147SAPE  C21016219   1.239   5.520   9.489 -1.0187 -0.2826 -0.2738
  147SAPE  H10R16220   1.148   5.582   9.477 -2.0634 -1.1822  2.2273
  147SAPE  H10S16221   1.253   5.458   9.398  1.1612 -0.6778  0.2519
  147SAPE  C21116222   1.360   5.613   9.483 -0.1345 -0.5002 -0.0991
  147SAPE  H11R16223   1.417   5.615   9.577 -1.2625  0.9904  0.5824
  147SAPE  C21216224   1.403   5.706   9.395 -0.1987 -0.0431 -0.1335
  147SAPE  H12R16225   1.493   5.764   9.416  1.0618 -1.9073 -0.1266
  147SAPE  C21316226   1.328   5.729   9.264 -0.7462 -0.5916  0.3889
  147SAPE  H13R16227   1.305   5.838   9.258 -0.1016 -0.5537 -3.0771
  147SAPE  H13S16228   1.228   5.682   9.255 -1.1290  0.4616 -1.1206
  147SAPE  C21416229   1.417   5.683   9.152  0.3993  0.3455  0.8511
  147SAPE  H14R16230   1.486   5.604   9.184 -0.2911 -1.1039 -0.9741
  147SAPE  C21516231   1.391   5.714   9.026  0.2190 -0.0817 -0.2153
  147SAPE  H15R16232   1.461   5.686   8.945  0.4315 -1.5178  0.4344
  147SAPE  C21616233   1.279   5.806   8.987  0.2202  0.1865 -0.0677
  147SAPE  H16R16234   1.306   5.911   9.007  2.2056 -0.3452  0.2066
  147SAPE  H16S16235   1.189   5.773   9.045  0.5174  1.0456  0.9113
  147SAPE  C21716236   1.244   5.804   8.836 -0.0336 -0.1256  0.2422
  147SAPE  H17R16237   1.146   5.850   8.810 -0.4493 -0.7309  0.7251
  147SAPE  H17S16238   1.235   5.697   8.809  1.2315 -0.2882  0.3896
  147SAPE  C21816239   1.356   5.864   8.747  0.7207  0.1667 -0.3272
  147SAPE  H18R16240   1.456   5.838   8.788  0.1014 -1.7887  0.0369
  147SAPE  H18S16241   1.357   5.975   8.745  3.1243  0.2018  0.1120
  147SAPE  C21916242   1.346   5.812   8.600  0.4670 -0.6809 -0.3983
  147SAPE  H19R16243   1.354   5.702   8.593 -0.1625 -0.7422 -0.2620
  147SAPE  H19S16244   1.427   5.861   8.542  1.7078 -0.5842  1.3746
  147SAPE  C22016245   1.226   5.857   8.521  0.6274 -0.3294  0.2624
  147SAPE  H20R16246   1.165   5.929   8.581  1.2806 -0.2501  0.8426
  147SAPE  H20S16247   1.169   5.765   8.495 -0.7751  0.6431 -0.2437
  147SAPE  H20T16248   1.255   5.915   8.431  0.4442  0.3020  0.6022
  147SAPE   C3316249   0.995   5.044  10.231 -0.1463  1.2039  0.3226
  147SAPE   H3X16250   0.889   5.079  10.237 -1.1409 -1.3333 -0.9656
  147SAPE   H3Y16251   0.982   4.960  10.159 -1.1195  2.7977 -1.4526
  147SAPE   C3416252   1.094   5.138  10.170  0.7056 -0.0556 -0.0915
  147SAPE   H4X16253   1.185   5.084  10.138  0.7583  0.5545 -0.9949
  147SAPE   H4Y16254   1.134   5.199  10.254  0.8080 -3.6695  2.7315
  147SAPE   C3516255   1.040   5.218  10.048  0.1156  0.8421  0.5808
  147SAPE   H5X16256   1.114   5.292  10.012  0.2206  0.1962 -0.5775
  147SAPE   H5Y16257   0.954   5.271  10.095 -0.7635 -0.0227 -0.0233
  147SAPE   C3616258   0.995   5.124   9.925 -0.6149 -0.1117 -0.0809
  147SAPE   H6X16259   0.917   5.056   9.965 -0.7523 -0.7715 -1.4167
  147SAPE   H6Y16260   1.089   5.073   9.897  0.5809  1.4572  0.9017
  147SAPE   C3716261   0.935   5.201   9.804  0.1503  0.2573 -0.6686
  147SAPE   H7X16262   0.985   5.300   9.804  1.4262 -0.2992  1.6830
  147SAPE   H7Y16263   0.827   5.215   9.827  0.1263  1.1040 -1.2354
  147SAPE   C3816264   0.955   5.133   9.671 -0.3393  0.4848  1.0296
  147SAPE   H8X16265   0.904   5.036   9.657  0.8588  0.0934 -1.2490
  147SAPE   H8Y16266   1.065   5.120   9.662 -0.0813  2.6168  0.5628
  147SAPE   C3916267   0.917   5.219   9.550  0.7262 -0.7650  0.4573
  147SAPE   H9X16268   0.965   5.318   9.566  1.1731 -1.1336  1.5579
  147SAPE   H9Y16269   0.808   5.236   9.542  1.0079  0.0901 -3.4858
  147SAPE  C31016270   0.965   5.155   9.422 -0.2968 -0.4587  0.3746
  147SAPE  H10X16271   0.899   5.073   9.385  0.1054 -0.8740  0.5615
  147SAPE  H10Y16272   1.066   5.120   9.452 -0.0988 -1.7314 -1.5917
  147SAPE  C31116273   0.993   5.256   9.309 -0.0477 -0.0108 -0.0748
  147SAPE  H11X16274   1.070   5.328   9.343  0.3958 -1.0017  1.0849
  147SAPE  H11Y16275   0.895   5.302   9.287 -0.0004  0.7393  1.1951
  147SAPE  C31216276   1.048   5.188   9.183 -0.1900  0.2732  0.1125
  147SAPE  H12X16277   0.970   5.119   9.145  0.4714 -0.2366 -0.3371
  147SAPE  H12Y16278   1.142   5.138   9.213 -0.0602 -0.5499 -1.5735
  147SAPE  C31316279   1.068   5.291   9.070  0.0905 -0.8520 -0.1437
  147SAPE  H13X16280   1.132   5.373   9.110 -0.0661 -0.6937 -0.2138
  147SAPE  H13Y16281   0.973   5.341   9.043  1.0906  2.1845  1.4865
  147SAPE  C31416282   1.130   5.237   8.935 -0.6239 -0.0219 -0.2379
  147SAPE  H14X16283   1.050   5.183   8.879  0.5160 -1.2806 -0.7249
  147SAPE  H14Y16284   1.216   5.173   8.965 -0.9307  0.1801  1.1302
  147SAPE  C31516285   1.181   5.350   8.847 -0.1389  0.0832 -0.3782
  147SAPE  H15X16286   1.250   5.420   8.898 -2.0648 -0.3260  3.1671
  147SAPE  H15Y16287   1.094   5.405   8.806 -1.8556 -2.4268 -0.3599
  147SAPE  C31616288   1.250   5.287   8.730 -0.9734 -0.4888  0.3630
  147SAPE  H16X16289   1.175   5.211   8.701 -1.0608 -0.1668 -0.2635
  147SAPE  H16Y16290   1.345   5.247   8.771 -2.1922 -0.7866  3.1678
  147SAPE  C31716291   1.272   5.390   8.622 -0.3139 -0.5303  0.0737
  147SAPE  H17X16292   1.370   5.438   8.638 -0.8899  1.7847 -2.5797
  147SAPE  H17Y16293   1.180   5.452   8.614 -0.0556 -0.0530  0.7873
  147SAPE  C31816294   1.294   5.323   8.486 -0.6077  0.4011  0.0787
  147SAPE  H18X16295   1.385   5.260   8.488 -1.2659 -0.6017 -0.5733
  147SAPE  H18Y16296   1.300   5.396   8.402 -2.5950  1.1132  0.4991
  147SAPE  H18Z16297   1.207   5.257   8.466 -0.7300  0.6255 -0.1415
  148SAPE     N16298   1.515   0.345  10.847 -0.3783  0.5406  0.6201
  148SAPE   HN116299   1.486   0.429  10.902 -0.5177  2.1002 -1.7075
  148SAPE   HN216300   1.618   0.350  10.838 -0.2630 -1.5648  0.2836
  148SAPE   HN316301   1.486   0.355  10.748  0.9784  0.5710  0.2050
  148SAPE   C1216302   1.482   0.209  10.898 -0.6925  0.4305  0.3613
  148SAPE  H12A16303   1.372   0.193  10.894 -0.6537 -0.4943 -5.3903
  148SAPE  H12B16304   1.524   0.193  10.999  1.4185  0.3405 -0.4722
  148SAPE   C1116305   1.542   0.100  10.805 -0.1446 -0.6736  0.6567
  148SAPE  H11A16306   1.541   0.002  10.858  1.2490 -1.5883 -0.9309
  148SAPE  H11B16307   1.645   0.133  10.782 -1.0175  1.7819 -0.0061
  148SAPE     P16308   1.518  -0.006  10.567 -0.0931 -0.3060 -0.1626
  148SAPE   O1316309   1.563  -0.129  10.630 -0.6555 -0.4526 -0.3447
  148SAPE   O1416310   1.413  -0.025  10.468 -0.1795  0.0320  0.5658
  148SAPE   O1216311   1.466   0.096  10.684  0.0038  0.5963 -0.4174
  148SAPE   O1116312   1.648   0.058  10.501 -0.2569 -0.4766 -0.0569
  148SAPE    C116313   1.687   0.194  10.540 -0.5115  0.2531  0.1183
  148SAPE    HA16314   1.610   0.255  10.591 -0.5803 -1.4366  2.1786
  148SAPE    HB16315   1.778   0.181  10.602  0.7791 -0.5401 -1.8146
  148SAPE    C216316   1.744   0.272  10.416  0.3470 -1.0832  0.4262
  148SAPE    HS16317   1.723   0.380  10.426 -0.1660 -1.1507  0.1189
  148SAPE   O2116318   1.692   0.221  10.296 -0.7504  0.1052 -0.1109
  148SAPE   C2116319   1.568   0.249  10.275  0.5294 -0.5339  0.0304
  148SAPE   O2216320   1.497   0.326  10.333 -0.8070 -0.0457  0.0564
  148SAPE   C2216321   1.525   0.180  10.153 -0.0530  0.3040  0.6101
  148SAPE   H2R16322   1.587   0.209  10.065 -1.3183 -3.1790 -1.6540
  148SAPE   H2S16323   1.532   0.072  10.177  2.1945  0.1577 -0.4749
  148SAPE    C316324   1.900   0.277  10.408 -0.0846  0.2239 -0.0550
  148SAPE    HX16325   1.939   0.183  10.365 -1.0835 -0.6811  0.9643
  148SAPE    HY16326   1.922   0.298  10.515 -0.9363 -2.1215  0.6319
  148SAPE   O3116327   1.948   0.384  10.322  0.2567 -0.0852  0.4326
  148SAPE   C3116328   2.079   0.411  10.334 -0.0000  0.3162  0.3774
  148SAPE   O3216329   2.155   0.347  10.401 -0.8092  0.1443  0.1444
  148SAPE   C3216330   2.131   0.530  10.254  0.1320 -0.0886  1.3570
  148SAPE   H2X16331   2.241   0.517  10.255 -0.0629 -1.9871  0.9549
  148SAPE   H2Y16332   2.102   0.631  10.292 -4.9310 -0.5601 -0.5043
  148SAPE   C2316333   1.373   0.205  10.123 -0.3655  0.5431  0.4484
  148SAPE   H3R16334   1.348   0.313  10.118  0.5422  0.6840 -2.0931
  148SAPE   H3S16335   1.322   0.149  10.205  1.5678 -1.3947  0.3981
  148SAPE   C2416336   1.345   0.129   9.991  0.0100 -0.0313 -0.2153
  148SAPE   H4R16337   1.385   0.025   9.991  0.9115  0.2258 -3.3920
  148SAPE   H4S16338   1.403   0.179   9.911  0.7756  1.2125  1.0622
  148SAPE   C2516339   1.196   0.119   9.956 -1.4880 -0.0538  0.4290
  148SAPE   H5R16340   1.142   0.047  10.018 -0.5381 -0.7373  0.4697
  148SAPE   C2616341   1.149   0.173   9.846 -0.0796 -0.6687 -0.2346
  148SAPE   H6R16342   1.040   0.162   9.830 -0.1698  0.5011 -0.4686
  148SAPE   C2716343   1.226   0.252   9.746 -0.4874  0.1786  0.3091
  148SAPE   H7R16344   1.304   0.316   9.792 -0.1451 -0.3355  0.4520
  148SAPE   H7S16345   1.155   0.315   9.688 -0.0786  0.7177  0.3840
  148SAPE   C2816346   1.293   0.154   9.650  0.2796  0.2989 -0.5057
  148SAPE   H8R16347   1.316   0.052   9.686  1.8916  0.8369  0.0634
  148SAPE   C2916348   1.333   0.193   9.527 -0.0919 -0.2554  0.4057
  148SAPE   H9R16349   1.357   0.108   9.461 -0.2219 -1.1040  1.4194
  148SAPE  C21016350   1.305   0.333   9.473  0.5304  0.8825  0.2034
  148SAPE  H10R16351   1.385   0.356   9.399  0.3549  1.8161  0.2806
  148SAPE  H10S16352   1.322   0.416   9.545 -1.2114  2.2668 -0.8940
  148SAPE  C21116353   1.172   0.349   9.408  0.2057 -0.1886 -0.0122
  148SAPE  H11R16354   1.091   0.358   9.483  0.7044 -0.0598  0.5176
  148SAPE  C21216355   1.133   0.340   9.276 -0.7959  0.7300 -0.0183
  148SAPE  H12R16356   1.026   0.346   9.252 -1.6006 -1.4413  2.4859
  148SAPE  C21316357   1.219   0.308   9.158 -0.4982 -0.5600 -0.2128
  148SAPE  H13R16358   1.280   0.225   9.199 -0.9426 -0.5279  0.5451
  148SAPE  H13S16359   1.286   0.396   9.148  1.5643 -1.8625  1.3095
  148SAPE  C21416360   1.154   0.266   9.021 -0.0270  0.0724 -0.7393
  148SAPE  H14R16361   1.168   0.159   8.998 -0.1758 -0.1706  0.2640
  148SAPE  C21516362   1.069   0.344   8.958  0.4127 -0.3802  0.2057
  148SAPE  H15R16363   1.034   0.297   8.865 -0.3631 -2.2791  1.4101
  148SAPE  C21616364   1.039   0.490   8.982 -0.0738 -0.9809 -0.3607
  148SAPE  H16R16365   1.108   0.560   8.929 -1.6450  1.2140  0.3591
  148SAPE  H16S16366   1.064   0.518   9.087  1.3639 -0.3233 -0.8464
  148SAPE  C21716367   0.903   0.530   8.933 -0.2086  0.1218  0.1305
  148SAPE  H17R16368   0.821   0.530   9.008 -1.1001  0.9923 -0.8267
  148SAPE  H17S16369   0.880   0.458   8.851 -2.6825 -0.7635  1.4967
  148SAPE  C21816370   0.900   0.666   8.871  0.4941 -0.3831  0.7902
  148SAPE  H18R16371   0.982   0.661   8.797 -0.7269 -3.5983 -0.5327
  148SAPE  H18S16372   0.927   0.744   8.946 -1.4984  3.6240 -2.2574
  148SAPE  C21916373   0.764   0.714   8.814  0.0011  0.0196 -0.1026
  148SAPE  H19R16374   0.711   0.723   8.910  0.0299 -2.4181  0.2024
  148SAPE  H19S16375   0.717   0.639   8.747  1.0420 -1.3411  0.6393
  148SAPE  C22016376   0.753   0.857   8.755  0.1465 -0.1786  0.1321
  148SAPE  H20R16377   0.826   0.874   8.673 -0.1522  0.5091  0.0028
  148SAPE  H20S16378   0.783   0.924   8.839  0.0523  0.5201 -0.3846
  148SAPE  H20T16379   0.646   0.873   8.731  0.0830 -0.3079  0.3208
  148SAPE   C3316380   2.096   0.504  10.103  1.0663 -0.6868 -0.2419
  148SAPE   H3X16381   2.157   0.571  10.039 -1.3324 -0.6685 -2.7237
  148SAPE   H3Y16382   1.988   0.532  10.107  1.8231  2.6413 -0.2778
  148SAPE   C3416383   2.101   0.361  10.053  0.1037 -0.0934  0.1118
  148SAPE   H4X16384   2.014   0.302  10.090 -1.5148  0.7580 -2.1637
  148SAPE   H4Y16385   2.198   0.312  10.074  0.5592  0.2332 -1.1636
  148SAPE   C3516386   2.086   0.345   9.904 -0.3709 -0.0665  0.1861
  148SAPE   H5X16387   1.983   0.365   9.869 -0.4666 -0.9789 -0.0720
  148SAPE   H5Y16388   2.103   0.242   9.865  1.6324 -0.1787  1.2233
  148SAPE   C3616389   2.182   0.434   9.821  0.8441  0.0210 -0.0269
  148SAPE   H6X16390   2.281   0.455   9.866  0.3356 -0.2671  1.2816
  148SAPE   H6Y16391   2.134   0.533   9.809 -1.2432 -0.9928 -0.5637
  148SAPE   C3716392   2.194   0.374   9.677  0.5631 -0.7531  0.6822
  148SAPE   H7X16393   2.097   0.349   9.631  0.8439 -0.3955 -0.1182
  148SAPE   H7Y16394   2.250   0.279   9.685  0.6757 -0.7250  0.2318
  148SAPE   C3816395   2.258   0.469   9.576  0.1035 -0.0120 -0.5812
  148SAPE   H8X16396   2.368   0.475   9.579  0.3903 -3.4818 -0.3487
  148SAPE   H8Y16397   2.224   0.574   9.594  2.0363  0.8475 -1.7147
  148SAPE   C3916398   2.198   0.444   9.439 -0.7816 -0.7849  0.0028
  148SAPE   H9X16399   2.091   0.473   9.447  0.2133  3.3519  0.6489
  148SAPE   H9Y16400   2.208   0.337   9.413 -2.4958 -0.8861 -0.3418
  148SAPE  C31016401   2.278   0.527   9.334 -0.2535  0.0986 -0.3956
  148SAPE  H10X16402   2.370   0.469   9.315  1.4901  2.1233  1.3801
  148SAPE  H10Y16403   2.301   0.628   9.375  1.3954 -0.7640  0.9309
  148SAPE  C31116404   2.211   0.531   9.196  0.5418  0.5432 -0.2800
  148SAPE  H11X16405   2.162   0.629   9.177  1.9606  1.2668 -0.3955
  148SAPE  H11Y16406   2.126   0.460   9.208 -0.3581  2.0356  3.2720
  148SAPE  C31216407   2.297   0.501   9.072 -0.2734 -0.2584  0.6827
  148SAPE  H12X16408   2.297   0.392   9.048  2.1796 -0.0559 -0.6196
  148SAPE  H12Y16409   2.401   0.515   9.108  0.5152 -0.1536 -1.4564
  148SAPE  C31316410   2.286   0.592   8.952  0.1960  0.0804  0.3509
  148SAPE  H13X16411   2.334   0.691   8.966  0.7861 -0.3513  1.5558
  148SAPE  H13Y16412   2.179   0.618   8.936  0.6545  1.9616  0.1093
  148SAPE  C31416413   2.327   0.511   8.827  0.0840  0.3176  0.1940
  148SAPE  H14X16414   2.271   0.415   8.822  1.4742 -0.4847 -1.1876
  148SAPE  H14Y16415   2.434   0.483   8.838  0.7665  2.2789 -0.9929
  148SAPE  C31516416   2.305   0.606   8.705 -0.9929  0.5065  0.7310
  148SAPE  H15X16417   2.378   0.690   8.710 -1.4414  0.8487  3.2769
  148SAPE  H15Y16418   2.203   0.649   8.709 -1.5533 -0.5627 -1.0476
  148SAPE  C31616419   2.328   0.536   8.571 -0.6168  0.3413  0.1513
  148SAPE  H16X16420   2.418   0.471   8.571  0.2625  1.4905 -1.1123
  148SAPE  H16Y16421   2.330   0.615   8.493  1.3291  0.2182  0.0180
  148SAPE  C31716422   2.206   0.457   8.534 -0.2264 -1.1300 -0.4746
  148SAPE  H17X16423   2.125   0.530   8.513  0.2195 -1.3131 -3.2059
  148SAPE  H17Y16424   2.173   0.400   8.623 -2.3603  0.7628  0.0533
  148SAPE  C31816425   2.217   0.361   8.409 -0.6021 -0.3261 -0.0427
  148SAPE  H18X16426   2.266   0.415   8.326  0.1506 -0.7074  0.1451
  148SAPE  H18Y16427   2.115   0.324   8.382 -1.0011  2.3159 -2.7054
  148SAPE  H18Z16428   2.281   0.273   8.429 -0.4887 -0.1180  0.5307
  149SAPE     N16429   5.688   2.510  11.107 -0.0510  0.7232 -0.5888
  149SAPE   HN116430   5.601   2.455  11.095 -0.8894  2.1424 -1.2150
  149SAPE   HN216431   5.699   2.555  11.013 -1.5605 -1.2392 -1.7841
  149SAPE   HN316432   5.767   2.441  11.106 -1.6364 -1.2174  0.9285
  149SAPE   C1216433   5.680   2.585  11.241  0.5904 -0.9244 -0.5028
  149SAPE  H12A16434   5.782   2.599  11.282  0.3261  2.2205 -0.7016
  149SAPE  H12B16435   5.620   2.527  11.315  1.8992  0.9803  2.2326
  149SAPE   C1116436   5.601   2.718  11.220 -0.1445  0.1167 -0.2878
  149SAPE  H11A16437   5.580   2.756  11.322 -1.1013 -1.4664  0.1374
  149SAPE  H11B16438   5.508   2.688  11.167  1.3749 -2.5651 -1.6421
  149SAPE     P16439   5.628   2.946  11.103 -0.2714 -0.3048  0.3386
  149SAPE   O1316440   5.528   2.991  11.207 -0.1886  0.0142 -0.3261
  149SAPE   O1416441   5.751   3.027  11.082 -0.5384  0.1889 -0.3585
  149SAPE   O1216442   5.682   2.801  11.139 -0.2822  0.6605  0.5528
  149SAPE   O1116443   5.546   2.936  10.965  0.9578  0.0094 -0.5578
  149SAPE    C116444   5.472   2.823  10.914 -0.1243 -0.2239 -0.2776
  149SAPE    HA16445   5.462   2.736  10.982 -1.0829  1.2973  1.6288
  149SAPE    HB16446   5.370   2.859  10.888 -0.2731 -0.5228 -0.1132
  149SAPE    C216447   5.525   2.769  10.784 -0.7536  0.2526 -0.0878
  149SAPE    HS16448   5.629   2.735  10.801 -0.8555 -0.8243 -1.4442
  149SAPE   O2116449   5.533   2.875  10.682 -0.0083 -0.4684  0.6002
  149SAPE   C2116450   5.600   2.843  10.565  0.6419  1.3108 -0.2569
  149SAPE   O2216451   5.681   2.755  10.546  0.2933 -0.2542  0.1809
  149SAPE   C2216452   5.572   2.951  10.461  0.1677  0.2413 -0.4804
  149SAPE   H2R16453   5.461   2.958  10.458  0.0544 -1.4969 -1.8522
  149SAPE   H2S16454   5.620   3.042  10.502 -1.5560  0.5861  0.8560
  149SAPE    C316455   5.445   2.636  10.736  0.4179 -0.2580 -0.2953
  149SAPE    HX16456   5.460   2.557  10.813  1.6720  1.9738  1.9141
  149SAPE    HY16457   5.494   2.594  10.646  0.0682  0.8317 -1.0120
  149SAPE   O3116458   5.305   2.669  10.708 -0.5474 -0.2921 -0.1411
  149SAPE   C3116459   5.283   2.707  10.578  0.4853 -0.5728 -0.9634
  149SAPE   O3216460   5.357   2.688  10.488 -0.3895 -0.6248  0.4404
  149SAPE   C3216461   5.143   2.792  10.572 -0.7456 -0.0749 -0.2118
  149SAPE   H2X16462   5.145   2.873  10.648  0.5322 -0.7702  0.5211
  149SAPE   H2Y16463   5.054   2.731  10.597  1.1791 -3.2728 -0.6527
  149SAPE   C2316464   5.636   2.921  10.320  0.5473  0.3891  0.4374
  149SAPE   H3R16465   5.721   2.850  10.334 -0.7300 -1.2084  0.4574
  149SAPE   H3S16466   5.675   3.015  10.277 -0.0843  1.7006  2.5889
  149SAPE   C2416467   5.526   2.844  10.237 -0.2376 -0.6750  0.3467
  149SAPE   H4R16468   5.440   2.904  10.200  0.2419 -0.2326 -0.0671
  149SAPE   H4S16469   5.473   2.782  10.312  0.8212 -0.1334  1.5972
  149SAPE   C2516470   5.577   2.743  10.133 -0.6600 -0.8465 -0.3620
  149SAPE   H5R16471   5.644   2.666  10.174 -2.4823 -2.5293 -0.3694
  149SAPE   C2616472   5.540   2.716  10.007  0.2491 -0.0932  0.2796
  149SAPE   H6R16473   5.600   2.648   9.945  0.7138 -0.3962  1.0488
  149SAPE   C2716474   5.418   2.789   9.944  0.0858 -0.2475 -0.2089
  149SAPE   H7R16475   5.460   2.840   9.855  2.7189  0.2117  1.1765
  149SAPE   H7S16476   5.366   2.867  10.004 -0.5344 -0.3420 -0.6188
  149SAPE   C2816477   5.305   2.691   9.900 -0.0823 -0.3902  0.5636
  149SAPE   H8R16478   5.219   2.685   9.968  0.2243  0.0549  1.0033
  149SAPE   C2916479   5.278   2.634   9.778  0.4961 -0.4352  0.6343
  149SAPE   H9R16480   5.189   2.569   9.776 -0.6655  0.9599  2.5826
  149SAPE  C21016481   5.358   2.655   9.647  0.2022  0.1457 -0.3993
  149SAPE  H10R16482   5.328   2.581   9.570  0.0588  0.0658 -0.2666
  149SAPE  H10S16483   5.463   2.633   9.676 -0.3164 -0.4838  1.1506
  149SAPE  C21116484   5.355   2.791   9.576  0.1380 -0.3217 -0.4622
  149SAPE  H11R16485   5.376   2.873   9.646 -0.4819 -0.4830 -0.0803
  149SAPE  C21216486   5.319   2.822   9.453  0.5632 -0.2177  0.1062
  149SAPE  H12R16487   5.316   2.926   9.418 -1.1593 -1.0545 -2.5030
  149SAPE  C21316488   5.261   2.731   9.352 -0.9799 -0.7914 -0.1093
  149SAPE  H13R16489   5.256   2.625   9.386 -0.2215  0.2390  3.6365
  149SAPE  H13S16490   5.331   2.731   9.266 -1.4975 -0.0489 -0.5392
  149SAPE  C21416491   5.123   2.765   9.306 -0.6031 -0.4306  0.0085
  149SAPE  H14R16492   5.048   2.692   9.341 -0.1767 -1.5783 -1.3695
  149SAPE  C21516493   5.097   2.844   9.201  0.2678 -0.2284  1.0257
  149SAPE  H15R16494   4.990   2.867   9.187 -0.0127 -1.5846  0.7337
  149SAPE  C21616495   5.193   2.904   9.098  0.4619 -0.0445  0.9131
  149SAPE  H16R16496   5.301   2.887   9.117  0.5210  0.3318  0.9208
  149SAPE  H16S16497   5.178   3.013   9.084 -1.0776 -0.1619  1.4738
  149SAPE  C21716498   5.165   2.838   8.961  0.5895 -0.1642 -0.1108
  149SAPE  H17R16499   5.067   2.889   8.947  1.6355  1.7024 -0.9004
  149SAPE  H17S16500   5.161   2.728   8.975 -1.6201 -0.0524  0.4817
  149SAPE  C21816501   5.270   2.869   8.851  0.1036  0.1070 -0.2698
  149SAPE  H18R16502   5.283   2.772   8.799  0.2614 -1.6226  2.7985
  149SAPE  H18S16503   5.366   2.876   8.907 -0.1920  1.0917  0.1324
  149SAPE  C21916504   5.237   2.991   8.766  0.6487  0.3429  0.5155
  149SAPE  H19R16505   5.321   3.046   8.718 -0.0762  0.6242 -0.4810
  149SAPE  H19S16506   5.206   3.059   8.848  0.6698  0.2145  0.6292
  149SAPE  C22016507   5.122   2.969   8.668  0.4570 -0.4105 -0.4169
  149SAPE  H20R16508   5.148   3.004   8.566 -1.6369  1.6491 -0.3314
  149SAPE  H20S16509   5.036   3.028   8.706  1.1952  0.7030 -0.4262
  149SAPE  H20T16510   5.092   2.862   8.669 -0.8694 -0.0569 -0.5271
  149SAPE   C3316511   5.127   2.854  10.433  0.1146  0.3312  0.1974
  149SAPE   H3X16512   5.222   2.896  10.394 -0.8023  0.6251 -1.8373
  149SAPE   H3Y16513   5.065   2.945  10.438  0.6300  0.8096 -1.4228
  149SAPE   C3416514   5.065   2.763  10.327  0.9014  0.3136  0.0539
  149SAPE   H4X16515   5.115   2.664  10.324  3.2253  1.3406  1.6386
  149SAPE   H4Y16516   5.078   2.802  10.224  0.8513 -2.1136 -0.9463
  149SAPE   C3516517   4.917   2.730  10.333 -0.1734  0.6344 -1.4190
  149SAPE   H5X16518   4.869   2.828  10.356 -0.0865  0.4112 -0.2211
  149SAPE   H5Y16519   4.894   2.683  10.431 -0.4246  2.9454 -0.2892
  149SAPE   C3616520   4.864   2.657  10.211 -0.2035  0.3967  0.3459
  149SAPE   H6X16521   4.754   2.650  10.223 -0.0957 -2.0785  0.4256
  149SAPE   H6Y16522   4.902   2.553  10.199  0.0320  0.6949 -1.9702
  149SAPE   C3716523   4.893   2.726  10.079  0.2646  0.4432  0.2248
  149SAPE   H7X16524   5.000   2.719  10.048  0.9330  4.5075  1.0334
  149SAPE   H7Y16525   4.857   2.831  10.087 -0.2431  0.2236  0.8694
  149SAPE   C3816526   4.819   2.648   9.965  0.5561  0.7522 -0.5917
  149SAPE   H8X16527   4.710   2.667   9.979  0.4660  1.1988 -1.7851
  149SAPE   H8Y16528   4.850   2.542   9.968  1.8427  1.1119 -0.5372
  149SAPE   C3916529   4.850   2.694   9.821  0.0081  0.1500 -0.4095
  149SAPE   H9X16530   4.960   2.678   9.822 -0.0138  0.0194  0.1238
  149SAPE   H9Y16531   4.828   2.800   9.798  1.8741  0.3181 -1.6109
  149SAPE  C31016532   4.776   2.605   9.726  0.2904  0.0561  0.8937
  149SAPE  H10X16533   4.669   2.620   9.752 -0.1763  1.7742 -1.7010
  149SAPE  H10Y16534   4.817   2.502   9.734 -0.2676 -0.1652  0.9274
  149SAPE  C31116535   4.787   2.661   9.580 -0.0935 -0.0832 -0.3870
  149SAPE  H11X16536   4.894   2.679   9.556  0.7850 -3.1465  0.7371
  149SAPE  H11Y16537   4.737   2.760   9.575  0.6755  0.2663 -1.4395
  149SAPE  C31216538   4.741   2.551   9.484  0.1336 -0.4156 -0.0992
  149SAPE  H12X16539   4.637   2.516   9.504 -0.5311  1.4892 -0.0419
  149SAPE  H12Y16540   4.807   2.463   9.497 -0.1730 -0.4692  1.1954
  149SAPE  C31316541   4.750   2.588   9.331  0.5419  0.9185 -0.1420
  149SAPE  H13X16542   4.856   2.575   9.299  1.4701 -0.8563  3.1305
  149SAPE  H13Y16543   4.730   2.696   9.318 -1.2338  0.8351  1.4852
  149SAPE  C31416544   4.646   2.506   9.244 -0.9964 -0.3773 -0.5682
  149SAPE  H14X16545   4.544   2.540   9.274 -1.2203 -1.1718 -0.3980
  149SAPE  H14Y16546   4.671   2.400   9.265  1.3682  0.4425  1.1089
  149SAPE  C31516547   4.666   2.523   9.089  0.4272  0.0851 -0.1604
  149SAPE  H15X16548   4.770   2.494   9.063  0.1348 -0.7542 -0.4202
  149SAPE  H15Y16549   4.647   2.633   9.090  0.2716  0.0800  1.5679
  149SAPE  C31616550   4.566   2.448   8.997  0.7328  0.4873  0.0063
  149SAPE  H16X16551   4.460   2.477   9.014  0.9963  2.0988 -0.9738
  149SAPE  H16Y16552   4.572   2.337   8.997  0.0649  0.4459  0.1881
  149SAPE  C31716553   4.572   2.477   8.843  0.2814 -0.0539  0.3902
  149SAPE  H17X16554   4.673   2.469   8.798  1.2592 -0.2207  2.5059
  149SAPE  H17Y16555   4.544   2.584   8.833 -0.3961 -0.2162  0.4732
  149SAPE  C31816556   4.479   2.375   8.770  0.1258 -0.0508 -1.0759
  149SAPE  H18X16557   4.516   2.272   8.790  1.7042  0.7948  0.7671
  149SAPE  H18Y16558   4.462   2.392   8.661  0.7939  0.8398 -1.0558
  149SAPE  H18Z16559   4.377   2.379   8.812  0.4671 -2.6892  0.1984
  150SAPE     N16560   5.438   1.172  10.750 -0.3458 -0.2678 -0.0351
  150SAPE   HN116561   5.529   1.219  10.769  1.0768 -0.8042 -4.4362
  150SAPE   HN216562   5.459   1.077  10.788  0.3098 -0.0379  0.1973
  150SAPE   HN316563   5.429   1.180  10.647  0.8307 -0.1740 -0.1453
  150SAPE   C1216564   5.329   1.232  10.831  0.1469  0.6679 -0.0995
  150SAPE  H12A16565   5.334   1.201  10.937 -2.1749 -0.2990 -0.2311
  150SAPE  H12B16566   5.230   1.198  10.795 -0.7695  2.4906  0.5725
  150SAPE   C1116567   5.336   1.383  10.805 -0.3270 -0.3299 -0.4611
  150SAPE  H11A16568   5.262   1.428  10.874  0.1388  1.4889 -1.0864
  150SAPE  H11B16569   5.305   1.399  10.700 -0.4765 -1.7705 -0.6443
  150SAPE     P16570   5.480   1.599  10.859  0.4454 -0.2185  0.3949
  150SAPE   O1316571   5.352   1.668  10.888 -0.4902 -0.4085  0.2701
  150SAPE   O1416572   5.596   1.616  10.949  0.1389  0.0831 -0.4499
  150SAPE   O1216573   5.464   1.439  10.837 -0.6402  0.3056 -0.6062
  150SAPE   O1116574   5.521   1.642  10.716  0.6317 -0.8478  0.1890
  150SAPE    C116575   5.633   1.618  10.640 -0.2655 -0.4594 -0.6249
  150SAPE    HA16576   5.660   1.716  10.594 -1.0271  0.2610  0.3978
  150SAPE    HB16577   5.722   1.594  10.702 -0.1493 -0.7723 -0.9162
  150SAPE    C216578   5.613   1.510  10.537 -0.0746  0.3476  0.8717
  150SAPE    HS16579   5.621   1.410  10.585  2.8244 -0.2668 -0.6264
  150SAPE   O2116580   5.720   1.528  10.442 -0.1500 -0.2602 -0.0831
  150SAPE   C2116581   5.832   1.483  10.480  1.1231  0.3427 -0.2427
  150SAPE   O2216582   5.850   1.419  10.582  0.0083  0.0447 -0.0068
  150SAPE   C2216583   5.926   1.494  10.358 -0.3854 -0.3283 -0.2084
  150SAPE   H2R16584   5.877   1.441  10.273 -1.7389  0.4695  0.0414
  150SAPE   H2S16585   5.930   1.601  10.331 -0.9461 -0.1121  0.5331
  150SAPE    C316586   5.480   1.514  10.464  0.4513  0.2183  0.4030
  150SAPE    HX16587   5.466   1.615  10.420 -2.1274 -0.8076 -1.3568
  150SAPE    HY16588   5.401   1.494  10.539 -0.2458 -0.5646 -0.5104
  150SAPE   O3116589   5.480   1.419  10.357  0.0127  0.2413  0.1206
  150SAPE   C3116590   5.441   1.301  10.382  0.0064 -0.1656 -0.1166
  150SAPE   O3216591   5.398   1.260  10.490  0.0537  0.5362  0.6090
  150SAPE   C3216592   5.460   1.216  10.263  0.6955  0.7548  0.3235
  150SAPE   H2X16593   5.367   1.160  10.238  1.7714 -1.2259  0.6055
  150SAPE   H2Y16594   5.534   1.136  10.284 -2.6313 -2.4195  0.9560
  150SAPE   C2316595   6.068   1.431  10.381  0.6832  0.5104 -0.0333
  150SAPE   H3R16596   6.047   1.328  10.416 -3.3705  0.4982 -2.0158
  150SAPE   H3S16597   6.120   1.484  10.465 -1.6765  0.4376  1.5632
  150SAPE   C2416598   6.153   1.436  10.257 -0.1100  0.0351 -0.1486
  150SAPE   H4R16599   6.113   1.392  10.163  1.6308  1.7087 -1.7630
  150SAPE   H4S16600   6.251   1.386  10.269  0.0051  0.1412 -0.5947
  150SAPE   C2516601   6.177   1.583  10.223 -0.6094  0.2004 -1.0020
  150SAPE   H5R16602   6.210   1.637  10.314 -0.9004 -1.0733 -0.1142
  150SAPE   C2616603   6.181   1.651  10.108  0.1322  0.0959  0.5561
  150SAPE   H6R16604   6.192   1.761  10.107  1.4370  0.0858 -3.2080
  150SAPE   C2716605   6.159   1.601   9.965  0.2768  0.4035  0.1576
  150SAPE   H7R16606   6.073   1.661   9.929 -2.8418 -2.3628  2.3135
  150SAPE   H7S16607   6.119   1.497   9.970  1.9725 -0.5186 -2.8608
  150SAPE   C2816608   6.287   1.606   9.880 -0.1312  0.6338  0.9471
  150SAPE   H8R16609   6.376   1.640   9.934 -0.3514 -0.6758  2.2006
  150SAPE   C2916610   6.289   1.562   9.755  0.0756 -0.0575 -0.4709
  150SAPE   H9R16611   6.380   1.571   9.693  0.4086 -1.7722 -0.3084
  150SAPE  C21016612   6.173   1.513   9.675 -0.7737 -0.3086 -0.2877
  150SAPE  H10R16613   6.101   1.462   9.743 -1.2810 -2.5673 -2.3646
  150SAPE  H10S16614   6.214   1.437   9.606 -2.0812  0.8120 -2.3786
  150SAPE  C21116615   6.103   1.613   9.588  0.3579 -0.5184  0.0864
  150SAPE  H11R16616   6.063   1.702   9.639 -1.3452 -0.1653 -1.7433
  150SAPE  C21216617   6.089   1.599   9.453  0.1602  0.2175 -0.3682
  150SAPE  H12R16618   6.014   1.657   9.397  0.2432  1.8511  1.1444
  150SAPE  C21316619   6.141   1.476   9.384 -0.0144 -0.6614  0.5409
  150SAPE  H13R16620   6.112   1.382   9.433 -0.8977  0.1136  1.5373
  150SAPE  H13S16621   6.249   1.460   9.405  0.1310 -2.6385 -1.4097
  150SAPE  C21416622   6.132   1.473   9.230  0.0260 -0.1421  0.0883
  150SAPE  H14R16623   6.192   1.552   9.181 -1.4611  0.2364 -1.1756
  150SAPE  C21516624   6.072   1.378   9.149 -0.2537  0.0810  0.1386
  150SAPE  H15R16625   6.065   1.398   9.041 -1.1702  0.7817  0.3227
  150SAPE  C21616626   6.001   1.255   9.194  0.1658  1.2806  0.6186
  150SAPE  H16R16627   6.042   1.225   9.293  0.9229 -2.4442 -0.6612
  150SAPE  H16S16628   6.028   1.172   9.126  1.1783  2.3171 -0.2898
  150SAPE  C21716629   5.852   1.272   9.203 -0.4733  0.2670  0.4499
  150SAPE  H17R16630   5.793   1.179   9.203  1.8648 -1.3203 -0.3660
  150SAPE  H17S16631   5.815   1.315   9.107 -0.5908 -0.5918  0.1062
  150SAPE  C21816632   5.798   1.352   9.320 -0.4361 -0.0748 -0.7266
  150SAPE  H18R16633   5.825   1.457   9.296 -0.3261 -0.3071 -1.6297
  150SAPE  H18S16634   5.856   1.306   9.403  0.2822 -0.7618 -1.5874
  150SAPE  C21916635   5.642   1.346   9.336 -0.1001  0.2114  0.1772
  150SAPE  H19R16636   5.590   1.374   9.242  1.6981 -0.6139 -1.1307
  150SAPE  H19S16637   5.617   1.430   9.404 -1.1464 -0.6725  0.9224
  150SAPE  C22016638   5.599   1.218   9.405  1.0412  0.1965 -0.0542
  150SAPE  H20R16639   5.491   1.194   9.395  1.2956 -0.7562 -0.5702
  150SAPE  H20S16640   5.634   1.225   9.510  1.1776 -1.1272 -0.0077
  150SAPE  H20T16641   5.656   1.130   9.370  0.6775  1.1771 -3.4739
  150SAPE   C3316642   5.489   1.299  10.129 -0.2483  0.0179 -0.0104
  150SAPE   H3X16643   5.585   1.355  10.135  0.8280 -1.8689  1.6266
  150SAPE   H3Y16644   5.412   1.378  10.116  0.1513  0.7889  1.9493
  150SAPE   C3416645   5.496   1.207  10.009  0.4691 -1.0106  0.4750
  150SAPE   H4X16646   5.395   1.162   9.999 -0.1730  0.3625  0.5346
  150SAPE   H4Y16647   5.553   1.116  10.038  1.6395 -0.0741  1.2048
  150SAPE   C3516648   5.536   1.274   9.878  0.5210 -0.4905 -0.2306
  150SAPE   H5X16649   5.556   1.191   9.806 -0.9218 -2.1098  1.1319
  150SAPE   H5Y16650   5.628   1.335   9.873 -1.1368  2.3553  1.3775
  150SAPE   C3616651   5.426   1.368   9.823  0.3355  0.0539 -0.7376
  150SAPE   H6X16652   5.440   1.466   9.874  1.3670 -0.4362 -0.0245
  150SAPE   H6Y16653   5.331   1.325   9.862 -0.5710  2.3885 -0.1505
  150SAPE   C3716654   5.430   1.383   9.670 -0.5828 -0.0249  0.0755
  150SAPE   H7X16655   5.403   1.286   9.623  1.4463 -0.2957 -0.6419
  150SAPE   H7Y16656   5.527   1.417   9.627 -0.4263  1.1210  1.2575
  150SAPE   C3816657   5.311   1.475   9.631  0.5372 -0.3147  0.3501
  150SAPE   H8X16658   5.338   1.577   9.666  0.4451 -0.1814  0.0325
  150SAPE   H8Y16659   5.222   1.439   9.686 -1.0992 -0.0031 -1.9450
  150SAPE   C3916660   5.280   1.479   9.479 -0.3798  0.4564  0.0019
  150SAPE   H9X16661   5.298   1.373   9.448  1.3371  0.6478  0.2846
  150SAPE   H9Y16662   5.356   1.544   9.433 -0.8373  2.4227  1.8729
  150SAPE  C31016663   5.142   1.528   9.443  0.4285 -0.3387 -0.2583
  150SAPE  H10X16664   5.144   1.635   9.474 -0.9454 -0.4696  0.3762
  150SAPE  H10Y16665   5.058   1.474   9.492  1.5803 -0.8174  1.2723
  150SAPE  C31116666   5.122   1.518   9.291 -0.6152  0.3920 -0.9191
  150SAPE  H11X16667   5.016   1.548   9.276 -0.5297  1.8949  1.0297
  150SAPE  H11Y16668   5.132   1.409   9.271  2.3555  0.7975 -2.2360
  150SAPE  C31216669   5.227   1.613   9.214  0.0632  0.2645  0.4311
  150SAPE  H12X16670   5.210   1.582   9.108  2.2021  1.1035 -0.2140
  150SAPE  H12Y16671   5.333   1.584   9.232 -0.4842 -3.0447 -0.8473
  150SAPE  C31316672   5.226   1.761   9.242 -0.6447 -0.7036  0.2349
  150SAPE  H13X16673   5.263   1.767   9.347 -1.1537 -2.1288  0.5333
  150SAPE  H13Y16674   5.124   1.805   9.245  1.3047  4.5107  3.3776
  150SAPE  C31416675   5.319   1.840   9.148  0.1417 -0.1505  0.2776
  150SAPE  H14X16676   5.292   1.837   9.041  0.2611 -0.2695  0.2508
  150SAPE  H14Y16677   5.427   1.813   9.154 -0.2301 -1.9033 -0.4192
  150SAPE  C31516678   5.323   1.981   9.208  0.8271 -0.0769  0.0479
  150SAPE  H15X16679   5.329   1.975   9.318  0.6459  0.7039  0.1120
  150SAPE  H15Y16680   5.233   2.038   9.176  0.8608  1.2617  2.1497
  150SAPE  C31616681   5.447   2.058   9.173  0.6104  0.1195 -0.0287
  150SAPE  H16X16682   5.530   2.025   9.239 -0.3059  0.5316  1.3751
  150SAPE  H16Y16683   5.417   2.159   9.211 -0.7558  0.9902 -3.0746
  150SAPE  C31716684   5.497   2.075   9.026  0.2306  0.6120  0.4753
  150SAPE  H17X16685   5.542   1.978   8.999  1.2650  0.6761  1.8359
  150SAPE  H17Y16686   5.574   2.155   9.031  0.1709  0.6231  1.6179
  150SAPE  C31816687   5.387   2.111   8.921  0.2077 -0.3819 -0.6212
  150SAPE  H18X16688   5.445   2.113   8.827 -0.3976 -2.5634 -1.1234
  150SAPE  H18Y16689   5.346   2.209   8.953  2.5074 -0.0218  1.4445
  150SAPE  H18Z16690   5.301   2.039   8.926  0.2990 -0.4137  1.5287
  151SAPE     N16691   3.148   6.201  10.767  0.0544  0.1515 -0.3959
  151SAPE   HN116692   3.100   6.167  10.682  1.0993 -2.7000  0.0420
  151SAPE   HN216693   3.074   6.226  10.835 -0.2440 -4.0611  1.1417
  151SAPE   HN316694   3.215   6.279  10.754 -0.3452  0.6835  0.6451
  151SAPE   C1216695   3.238   6.101  10.829  1.1295 -0.4438  0.8797
  151SAPE  H12A16696   3.180   6.019  10.875 -0.0614 -1.1306 -1.6651
  151SAPE  H12B16697   3.297   6.144  10.913  0.7585  1.1663  0.3486
  151SAPE   C1116698   3.342   6.045  10.725  0.1230  0.1705  0.0211
  151SAPE  H11A16699   3.419   5.987  10.780  1.4202  2.2173  0.4858
  151SAPE  H11B16700   3.392   6.131  10.674 -3.0400  1.2707 -1.4678
  151SAPE     P16701   3.338   5.844  10.563 -0.0324 -0.4053  0.2741
  151SAPE   O1316702   3.354   5.765  10.679 -0.1015  0.4065  0.1635
  151SAPE   O1416703   3.258   5.777  10.457  0.0771 -0.4789 -0.2074
  151SAPE   O1216704   3.276   5.974  10.618  0.6441  0.2787 -0.2040
  151SAPE   O1116705   3.484   5.876  10.514  0.6839 -0.0584  0.3408
  151SAPE    C116706   3.515   5.987  10.441 -0.3073 -0.6535 -0.0093
  151SAPE    HA16707   3.443   6.070  10.454 -0.0862 -0.6228  1.1348
  151SAPE    HB16708   3.616   6.025  10.468 -0.2291  2.1571 -3.5486
  151SAPE    C216709   3.529   5.956  10.293 -0.1910 -0.1318  1.1775
  151SAPE    HS16710   3.558   6.045  10.234 -2.1830  1.0647  1.9018
  151SAPE   O2116711   3.410   5.897  10.233  0.9153  0.5949 -0.6034
  151SAPE   C2116712   3.318   5.991  10.202 -0.4745  0.3827  1.2277
  151SAPE   O2216713   3.336   6.112  10.227  0.5377  0.2071  0.4095
  151SAPE   C2216714   3.189   5.920  10.151 -0.8936 -0.0157 -0.2563
  151SAPE   H2R16715   3.212   5.853  10.065  1.1479  0.2863 -0.0129
  151SAPE   H2S16716   3.155   5.850  10.230 -1.9068 -0.3246 -0.9511
  151SAPE    C316717   3.648   5.856  10.269  0.6723  0.1414  0.2056
  151SAPE    HX16718   3.611   5.756  10.301  0.0966  0.1498 -0.4228
  151SAPE    HY16719   3.727   5.887  10.341  0.6716  0.5299  0.0382
  151SAPE   O3116720   3.711   5.854  10.140 -0.4046 -0.3984  0.1780
  151SAPE   C3116721   3.662   5.767  10.047 -0.7579  0.0896  0.1085
  151SAPE   O3216722   3.570   5.691  10.065  0.1864  0.0617 -0.0384
  151SAPE   C3216723   3.753   5.776   9.919  0.4444  0.1039 -0.7050
  151SAPE   H2X16724   3.856   5.759   9.958  0.1502 -0.3485 -0.1051
  151SAPE   H2Y16725   3.752   5.883   9.888 -1.5865 -0.2614 -2.0822
  151SAPE   C2316726   3.069   6.022  10.121 -0.3501  0.6283  0.4126
  151SAPE   H3R16727   3.061   6.092  10.206  0.3567 -1.2097  2.0763
  151SAPE   H3S16728   2.974   5.964  10.122  0.8306 -1.4567  1.9585
  151SAPE   C2416729   3.080   6.093   9.987 -0.3533  0.0147 -0.5263
  151SAPE   H4R16730   3.174   6.151   9.983  0.3540 -1.1146 -0.7616
  151SAPE   H4S16731   2.997   6.167   9.979 -0.4740 -0.1543 -0.8854
  151SAPE   C2516732   3.081   5.987   9.877 -0.0819 -0.7195 -0.6772
  151SAPE   H5R16733   2.999   5.914   9.880 -1.7600  1.0536 -1.1879
  151SAPE   C2616734   3.169   5.974   9.776 -0.4315 -0.1717 -0.6096
  151SAPE   H6R16735   3.166   5.888   9.708  3.7435 -0.6467 -0.4490
  151SAPE   C2716736   3.287   6.066   9.750  0.6356  0.0395  0.3532
  151SAPE   H7R16737   3.288   6.143   9.830  2.5276  1.5298 -1.0133
  151SAPE   H7S16738   3.268   6.117   9.654 -1.1088  1.4943  1.4008
  151SAPE   C2816739   3.411   5.984   9.746 -0.4623 -0.6133 -0.5195
  151SAPE   H8R16740   3.426   5.922   9.836 -0.4952 -1.1327 -0.8680
  151SAPE   C2916741   3.492   5.971   9.643 -0.1226 -1.1771  0.3899
  151SAPE   H9R16742   3.588   5.916   9.645  0.1143 -0.7778  0.0949
  151SAPE  C21016743   3.467   6.047   9.507  0.2620 -0.6080  0.2101
  151SAPE  H10R16744   3.565   6.062   9.457  1.3274 -2.1185  1.7054
  151SAPE  H10S16745   3.437   6.151   9.532  0.8612 -0.2509 -0.5265
  151SAPE  C21116746   3.358   5.984   9.419  0.0050 -0.5090 -0.2036
  151SAPE  H11R16747   3.293   5.912   9.472  0.6752 -1.4071 -0.5828
  151SAPE  C21216748   3.341   6.025   9.293 -0.7040 -0.4079  0.0413
  151SAPE  H12R16749   3.271   5.970   9.228  0.4246 -2.0552  0.1603
  151SAPE  C21316750   3.419   6.130   9.223 -0.4522 -0.2822 -0.4145
  151SAPE  H13R16751   3.513   6.076   9.198  0.2026  0.2108  0.8950
  151SAPE  H13S16752   3.455   6.211   9.290  2.0268 -1.4354 -0.2266
  151SAPE  C21416753   3.339   6.178   9.103  0.1736  0.3627 -0.2636
  151SAPE  H14R16754   3.232   6.181   9.127  0.0495 -4.0725  0.5418
  151SAPE  C21516755   3.380   6.187   8.977  0.3125  0.4081 -0.7647
  151SAPE  H15R16756   3.311   6.225   8.901 -0.8219  1.4002  0.6970
  151SAPE  C21616757   3.519   6.170   8.927 -0.0984 -0.0621 -0.5012
  151SAPE  H16R16758   3.532   6.060   8.912 -2.0735 -0.3663 -0.3125
  151SAPE  H16S16759   3.590   6.193   9.009 -0.2424 -1.0985 -0.0572
  151SAPE  C21716760   3.553   6.248   8.803  0.0451 -0.8123  0.5929
  151SAPE  H17R16761   3.545   6.358   8.817 -0.5444 -0.6964 -0.5222
  151SAPE  H17S16762   3.487   6.221   8.718 -0.2055  0.0251  0.5100
  151SAPE  C21816763   3.702   6.222   8.764 -0.8148 -0.6075  0.1103
  151SAPE  H18R16764   3.717   6.112   8.758 -2.9026 -0.9446  0.3461
  151SAPE  H18S16765   3.761   6.253   8.853 -1.0342 -0.3412  0.1636
  151SAPE  C21916766   3.747   6.286   8.626 -0.2450  0.1207  0.7212
  151SAPE  H19R16767   3.715   6.221   8.542  0.0973 -1.4339  1.7600
  151SAPE  H19S16768   3.856   6.306   8.627 -0.5397  1.8726  0.8023
  151SAPE  C22016769   3.691   6.426   8.599  0.2552 -0.2853 -0.0963
  151SAPE  H20R16770   3.752   6.473   8.518  1.9162  0.7251  1.6550
  151SAPE  H20S16771   3.700   6.503   8.679 -0.7317 -0.6275  0.3482
  151SAPE  H20T16772   3.582   6.417   8.579  0.5431 -3.0704 -0.7675
  151SAPE   C3316773   3.718   5.680   9.802 -0.8270  0.2275 -0.6979
  151SAPE   H3X16774   3.610   5.689   9.780 -0.9439 -1.0329 -0.7103
  151SAPE   H3Y16775   3.739   5.573   9.823  2.0330  0.9377  0.5131
  151SAPE   C3416776   3.796   5.725   9.677  0.3199  0.1037 -0.1532
  151SAPE   H4X16777   3.905   5.704   9.671  0.2693 -1.0531  2.1858
  151SAPE   H4Y16778   3.793   5.836   9.680 -0.1131  0.1274 -0.9787
  151SAPE   C3516779   3.722   5.669   9.556 -0.0302  0.1304  0.4354
  151SAPE   H5X16780   3.616   5.704   9.561 -0.2036  0.1198 -1.9126
  151SAPE   H5Y16781   3.712   5.561   9.579 -1.6412  0.5739  2.0905
  151SAPE   C3616782   3.786   5.697   9.420  0.2856 -0.0595 -0.8115
  151SAPE   H6X16783   3.885   5.648   9.429 -1.0970 -2.7174  1.2574
  151SAPE   H6Y16784   3.811   5.804   9.407  0.1192  0.1212  0.3177
  151SAPE   C3716785   3.704   5.651   9.304  0.3761  0.7420 -0.0565
  151SAPE   H7X16786   3.619   5.723   9.300  0.9374  1.4678  0.7385
  151SAPE   H7Y16787   3.665   5.549   9.324 -0.7224  0.9124 -1.1898
  151SAPE   C3816788   3.775   5.661   9.167 -0.2651  0.2306 -0.0921
  151SAPE   H8X16789   3.840   5.573   9.149  0.6297  1.1546 -1.6555
  151SAPE   H8Y16790   3.846   5.747   9.166 -2.9797  2.6251 -0.3873
  151SAPE   C3916791   3.684   5.691   9.041  0.2615 -0.4090 -0.4798
  151SAPE   H9X16792   3.613   5.772   9.067  0.3599 -0.7392  0.8970
  151SAPE   H9Y16793   3.625   5.598   9.025 -0.5065 -0.2334  1.1724
  151SAPE  C31016794   3.758   5.707   8.911 -0.1373 -0.3227  0.7397
  151SAPE  H10X16795   3.704   5.675   8.820  3.5390 -0.7228 -1.5283
  151SAPE  H10Y16796   3.851   5.646   8.916  0.0611 -0.1977 -0.8326
  151SAPE  C31116797   3.816   5.850   8.893  0.3395 -1.2290 -0.3638
  151SAPE  H11X16798   3.888   5.861   8.977 -1.1303 -0.4063  0.8388
  151SAPE  H11Y16799   3.721   5.906   8.909  1.0598 -0.3246  0.9227
  151SAPE  C31216800   3.875   5.868   8.752 -0.0036  0.2215  0.4862
  151SAPE  H12X16801   3.798   5.903   8.680 -1.3416  1.0408  2.2395
  151SAPE  H12Y16802   3.915   5.768   8.723 -2.0930 -0.9404  1.3889
  151SAPE  C31316803   3.989   5.968   8.741  0.1503 -0.4282 -0.3277
  151SAPE  H13X16804   4.072   5.920   8.798 -0.5319 -1.6142 -0.3029
  151SAPE  H13Y16805   3.953   6.058   8.796 -1.3840 -1.4173  0.3558
  151SAPE  C31416806   4.005   6.007   8.598  0.6549 -0.0308 -0.4752
  151SAPE  H14X16807   3.916   6.052   8.550  0.5752 -1.3448 -1.6290
  151SAPE  H14Y16808   4.018   5.914   8.539 -0.1105 -0.9129  0.6936
  151SAPE  C31516809   4.120   6.107   8.574 -0.1686 -0.5117 -0.0354
  151SAPE  H15X16810   4.111   6.178   8.659  1.7644 -1.7078  1.2455
  151SAPE  H15Y16811   4.101   6.173   8.487 -0.5720 -0.4387  0.1052
  151SAPE  C31616812   4.259   6.045   8.557  1.3099  0.7173  0.0668
  151SAPE  H16X16813   4.241   5.981   8.468  1.7816 -0.5860  0.8802
  151SAPE  H16Y16814   4.272   5.968   8.636  0.9411  0.1096 -0.4587
  151SAPE  C31716815   4.379   6.137   8.540 -0.1664  0.3110  0.2287
  151SAPE  H17X16816   4.406   6.196   8.631  0.9681  0.9127 -0.4747
  151SAPE  H17Y16817   4.343   6.212   8.467 -1.4043  0.8919  1.3968
  151SAPE  C31816818   4.496   6.059   8.484 -0.5885 -0.0132 -0.9386
  151SAPE  H18X16819   4.579   6.130   8.464 -0.1693 -1.0270 -3.2075
  151SAPE  H18Y16820   4.491   6.000   8.389  2.7911 -3.6903  0.8770
  151SAPE  H18Z16821   4.537   5.991   8.562  0.1949 -0.4107 -1.6742
  152SAPE     N16822   4.421   4.877  10.560  0.3374  0.3416 -0.3266
  152SAPE   HN116823   4.489   4.867  10.638 -0.0703  2.0351  0.2883
  152SAPE   HN216824   4.378   4.971  10.572 -1.1817 -0.4067  0.3754
  152SAPE   HN316825   4.345   4.811  10.587 -0.9736  2.2897  1.0630
  152SAPE   C1216826   4.475   4.851  10.429 -0.4222  0.6011  0.7032
  152SAPE  H12A16827   4.566   4.915  10.425 -1.3723  1.9857  0.5519
  152SAPE  H12B16828   4.414   4.891  10.345  0.8536 -0.8126 -0.9687
  152SAPE   C1116829   4.514   4.705  10.407  0.6237 -0.0552  0.1452
  152SAPE  H11A16830   4.520   4.693  10.296  0.4344  0.6145  0.0601
  152SAPE  H11B16831   4.429   4.640  10.434  0.5044 -0.8842 -2.0312
  152SAPE     P16832   4.765   4.648  10.412 -0.0465  0.3629 -0.2312
  152SAPE   O1316833   4.810   4.781  10.381  0.3332 -0.1850  0.1514
  152SAPE   O1416834   4.856   4.565  10.495 -0.4559 -0.2279 -0.4190
  152SAPE   O1216835   4.625   4.664  10.486 -0.3733 -0.3939  0.1713
  152SAPE   O1116836   4.731   4.564  10.277 -0.2561  0.0835 -0.4673
  152SAPE    C116837   4.658   4.447  10.281 -0.3130  0.3630  0.4001
  152SAPE    HA16838   4.651   4.410  10.385  1.3340  0.0194  0.3982
  152SAPE    HB16839   4.553   4.461  10.247 -0.4869 -1.3539  0.1749
  152SAPE    C216840   4.737   4.331  10.208 -0.3914 -0.2491  0.5992
  152SAPE    HS16841   4.845   4.329  10.235 -0.2265 -0.7106 -0.0733
  152SAPE   O2116842   4.729   4.332  10.066  0.9055  1.0280 -0.1865
  152SAPE   C2116843   4.815   4.396  10.000 -0.7647 -0.6655  0.4721
  152SAPE   O2216844   4.910   4.459  10.042 -0.6332  0.2478  0.1015
  152SAPE   C2216845   4.787   4.395   9.852  0.8067  0.3324 -0.7692
  152SAPE   H2R16846   4.689   4.445   9.840  0.2786 -0.4373  0.1792
  152SAPE   H2S16847   4.869   4.454   9.805  0.4059  1.7529  0.2317
  152SAPE    C316848   4.676   4.192  10.257 -0.3902 -0.3303  0.4633
  152SAPE    HX16849   4.566   4.208  10.252  0.0712  3.3203 -2.3699
  152SAPE    HY16850   4.704   4.181  10.364 -1.7864  0.2997  0.9172
  152SAPE   O3116851   4.720   4.082  10.174 -0.3319  0.4184  0.0959
  152SAPE   C3116852   4.849   4.051  10.182  0.2229 -0.3238  0.0011
  152SAPE   O3216853   4.924   4.071  10.278 -0.0557 -0.1280 -0.0339
  152SAPE   C3216854   4.874   3.951  10.068  0.3527 -0.3366  0.1782
  152SAPE   H2X16855   4.833   3.990   9.973 -4.6986 -0.3747  2.0209
  152SAPE   H2Y16856   4.822   3.856  10.091  0.0671  0.3796  2.9670
  152SAPE   C2316857   4.787   4.252   9.798 -0.0340 -0.1456 -0.2695
  152SAPE   H3R16858   4.702   4.189   9.834 -0.7352  0.4190 -0.8850
  152SAPE   H3S16859   4.885   4.211   9.829  0.7667  0.0492 -2.3368
  152SAPE   C2416860   4.792   4.243   9.645  0.1258 -0.0478 -0.3299
  152SAPE   H4R16861   4.846   4.334   9.611 -0.4318  0.5875  0.4378
  152SAPE   H4S16862   4.684   4.255   9.619  0.5075  1.8530 -1.1937
  152SAPE   C2516863   4.846   4.105   9.593  0.2714 -0.2028  0.7886
  152SAPE   H5R16864   4.776   4.023   9.611  2.7820 -2.9131 -0.9398
  152SAPE   C2616865   4.964   4.068   9.541  0.2167  0.1729 -0.1826
  152SAPE   H6R16866   4.971   3.966   9.502  0.1068 -0.1801  0.6970
  152SAPE   C2716867   5.077   4.160   9.504 -0.6975  0.7394 -0.5750
  152SAPE   H7R16868   5.067   4.246   9.573 -0.0330 -0.8352  1.6160
  152SAPE   H7S16869   5.051   4.219   9.415  0.1002  2.1688  0.1079
  152SAPE   C2816870   5.217   4.101   9.496  0.3886  0.2851 -0.5130
  152SAPE   H8R16871   5.264   4.064   9.588 -2.7001 -2.4065  0.1773
  152SAPE   C2916872   5.295   4.105   9.385 -0.0636 -0.1513 -0.1617
  152SAPE   H9R16873   5.393   4.055   9.384  0.3946  0.7205 -1.7928
  152SAPE  C21016874   5.246   4.147   9.256  0.3753  0.2657  0.1655
  152SAPE  H10R16875   5.203   4.248   9.276  1.7381  1.1227 -1.0118
  152SAPE  H10S16876   5.169   4.074   9.224  0.8738 -0.2880  0.2111
  152SAPE  C21116877   5.348   4.164   9.144 -0.5482 -0.4871 -0.6464
  152SAPE  H11R16878   5.398   4.260   9.163  0.1773 -1.2648  1.7623
  152SAPE  C21216879   5.375   4.074   9.040 -0.3503 -0.9033 -0.0506
  152SAPE  H12R16880   5.448   4.101   8.962  0.6799 -1.4140  0.7132
  152SAPE  C21316881   5.321   3.939   9.014 -1.3033 -0.1947  0.3245
  152SAPE  H13R16882   5.300   3.935   8.905  0.2901  1.7526 -0.1227
  152SAPE  H13S16883   5.229   3.920   9.074 -1.9352 -0.4971 -0.7128
  152SAPE  C21416884   5.426   3.832   9.042  0.1054  0.9634 -0.4720
  152SAPE  H14R16885   5.445   3.818   9.149  2.9704 -0.0403 -1.0434
  152SAPE  C21516886   5.477   3.739   8.962  0.9526  1.1644 -0.5500
  152SAPE  H15R16887   5.551   3.671   9.008 -1.0236 -2.4139 -2.2654
  152SAPE  C21616888   5.462   3.720   8.816  0.4991 -0.2624  0.3108
  152SAPE  H16R16889   5.555   3.749   8.762  0.1143 -1.6621 -1.1688
  152SAPE  H16S16890   5.375   3.778   8.780 -0.1840 -1.5680 -0.2003
  152SAPE  C21716891   5.438   3.570   8.781  0.4128 -0.1770  0.0050
  152SAPE  H17R16892   5.359   3.523   8.844 -1.0328  0.6083 -1.1936
  152SAPE  H17S16893   5.531   3.509   8.793  0.4209 -0.1292  0.1982
  152SAPE  C21816894   5.386   3.555   8.635 -0.5283 -0.1664  0.0095
  152SAPE  H18R16895   5.475   3.577   8.572  0.1924 -0.6479  0.8377
  152SAPE  H18S16896   5.308   3.632   8.615 -0.5319 -0.6852 -2.2818
  152SAPE  C21916897   5.331   3.420   8.593  0.0203 -0.0909 -0.0164
  152SAPE  H19R16898   5.243   3.386   8.652  0.9075 -1.5887  0.5008
  152SAPE  H19S16899   5.420   3.356   8.612  0.3274  0.5269  0.6566
  152SAPE  C22016900   5.296   3.421   8.443  0.2312 -0.4242  0.1957
  152SAPE  H20R16901   5.376   3.468   8.383  0.7334 -0.0009  1.1593
  152SAPE  H20S16902   5.209   3.481   8.409  1.5505  1.4894  0.0004
  152SAPE  H20T16903   5.283   3.315   8.412 -0.3495 -0.9616  2.1054
  152SAPE   C3316904   5.024   3.926  10.061 -0.2018 -0.0647 -0.2807
  152SAPE   H3X16905   5.072   3.912  10.160  2.0496 -0.6029 -1.3705
  152SAPE   H3Y16906   5.072   4.008  10.003 -2.4378  2.7511  1.5624
  152SAPE   C3416907   5.067   3.797   9.988  0.7700 -0.4520  0.1147
  152SAPE   H4X16908   5.026   3.704  10.032 -0.2634 -0.4333 -0.7725
  152SAPE   H4Y16909   5.178   3.801   9.989  0.7680  2.4808  2.0798
  152SAPE   C3516910   5.027   3.804   9.838  0.0975  0.2356  0.3633
  152SAPE   H5X16911   5.079   3.886   9.784 -1.2246 -0.5815 -2.3795
  152SAPE   H5Y16912   4.917   3.821   9.827  0.5357  2.0086 -1.8993
  152SAPE   C3616913   5.085   3.679   9.775  0.7182  0.3250  0.8049
  152SAPE   H6X16914   5.031   3.585   9.800 -1.4765  1.1140 -0.5877
  152SAPE   H6Y16915   5.189   3.656   9.805  1.3823 -1.1446 -2.1961
  152SAPE   C3716916   5.085   3.678   9.615 -0.3505  0.0523  0.3764
  152SAPE   H7X16917   5.154   3.599   9.577 -0.8931 -0.3327  0.1810
  152SAPE   H7Y16918   5.134   3.767   9.570 -1.1309  1.0132  1.3653
  152SAPE   C3816919   4.950   3.670   9.543  0.3675 -0.3537  0.2064
  152SAPE   H8X16920   4.885   3.754   9.575  3.0909  1.1201  2.3248
  152SAPE   H8Y16921   4.901   3.577   9.579 -0.6775  0.1300  0.0756
  152SAPE   C3916922   4.951   3.665   9.391 -1.0628  0.3383 -0.0202
  152SAPE   H9X16923   5.011   3.753   9.358 -0.5290 -0.5672 -1.5666
  152SAPE   H9Y16924   4.850   3.685   9.349 -0.5548  1.4229 -0.7840
  152SAPE  C31016925   5.004   3.530   9.344 -0.2337 -0.5244  0.9121
  152SAPE  H10X16926   4.957   3.455   9.411 -2.1160 -0.1686  0.0736
  152SAPE  H10Y16927   5.115   3.527   9.350 -0.0850  0.5644 -0.5150
  152SAPE  C31116928   4.965   3.510   9.192 -0.3674  0.4230  0.2383
  152SAPE  H11X16929   5.015   3.587   9.130 -0.9436 -1.0470 -2.1744
  152SAPE  H11Y16930   4.857   3.509   9.166  0.2469  0.3596 -2.6042
  152SAPE  C31216931   5.024   3.375   9.144 -0.4132  0.4911 -0.2624
  152SAPE  H12X16932   4.970   3.285   9.181 -1.5894  0.4888 -1.8793
  152SAPE  H12Y16933   5.123   3.360   9.191  0.4948  0.3553 -2.1149
  152SAPE  C31316934   5.046   3.368   8.996 -0.8607 -0.3939  0.1153
  152SAPE  H13X16935   5.119   3.291   8.964 -0.2156  1.6471 -4.0689
  152SAPE  H13Y16936   5.086   3.466   8.962  0.4328 -1.4672 -1.6215
  152SAPE  C31416937   4.923   3.347   8.919  0.1787  0.1692 -0.2378
  152SAPE  H14X16938   4.863   3.440   8.932 -1.3837 -0.3964 -2.6907
  152SAPE  H14Y16939   4.866   3.255   8.945 -1.5996  0.8134 -1.6260
  152SAPE  C31516940   4.955   3.349   8.766 -0.7893  0.1004  0.0282
  152SAPE  H15X16941   5.017   3.263   8.735 -1.8972  0.0014 -2.0922
  152SAPE  H15Y16942   5.015   3.439   8.741  0.3605 -0.7146 -0.2389
  152SAPE  C31616943   4.827   3.341   8.681  0.5457 -0.1617  0.6318
  152SAPE  H16X16944   4.774   3.437   8.701  0.4436 -0.0413 -0.1855
  152SAPE  H16Y16945   4.763   3.255   8.710 -1.5319  0.5901 -1.5092
  152SAPE  C31716946   4.862   3.349   8.532 -0.7755  0.7326 -0.0527
  152SAPE  H17X16947   4.776   3.301   8.480 -3.2714  2.4014  2.2909
  152SAPE  H17Y16948   4.955   3.293   8.509  0.9895  2.6617  1.9910
  152SAPE  C31816949   4.866   3.494   8.478  0.0626  0.2216 -0.3245
  152SAPE  H18X16950   4.767   3.538   8.507  1.4841  3.3275  0.2540
  152SAPE  H18Y16951   4.886   3.492   8.369  0.4495 -1.3290 -0.2395
  152SAPE  H18Z16952   4.940   3.557   8.532 -0.7729  0.0214  1.1403
  153SAPE     N16953   5.690   6.083  10.371 -0.0303  0.0257  0.7021
  153SAPE   HN116954   5.687   6.170  10.314 -0.6534 -1.0142 -0.9022
  153SAPE   HN216955   5.763   6.097  10.445 -0.8318  2.9119  1.1005
  153SAPE   HN316956   5.711   6.009  10.302 -2.2999  0.6523 -0.7404
  153SAPE   C1216957   5.554   6.047  10.426 -0.3162  0.1432  0.5207
  153SAPE  H12A16958   5.477   6.084  10.353 -0.0186 -1.7402 -0.8205
  153SAPE  H12B16959   5.531   6.104  10.519 -4.5997  0.6652 -0.6299
  153SAPE   C1116960   5.543   5.902  10.448 -0.5203  0.0183 -0.2542
  153SAPE  H11A16961   5.549   5.851  10.350  3.4169 -0.4799  0.0636
  153SAPE  H11B16962   5.452   5.886  10.510 -0.8240 -0.7972 -0.9012
  153SAPE     P16963   5.680   5.701  10.540 -0.2896  0.1436 -0.1873
  153SAPE   O1316964   5.782   5.677  10.642 -0.0557  0.2762 -0.0973
  153SAPE   O1416965   5.545   5.634  10.541 -0.2166  0.3421 -0.0429
  153SAPE   O1216966   5.657   5.853  10.524  0.2817 -0.2516 -0.0667
  153SAPE   O1116967   5.747   5.675  10.403 -0.1680 -1.3737 -0.2166
  153SAPE    C116968   5.868   5.738  10.371  0.4129  0.0865  0.0675
  153SAPE    HA16969   5.854   5.848  10.381 -4.3198 -0.1392 -1.3805
  153SAPE    HB16970   5.942   5.694  10.441  0.0611 -2.1055 -0.8344
  153SAPE    C216971   5.910   5.688  10.226  0.0822  0.2935  0.2750
  153SAPE    HS16972   6.000   5.746  10.198  0.8248 -1.1288 -0.4166
  153SAPE   O2116973   5.815   5.704  10.126 -0.6078 -0.0599 -0.1202
  153SAPE   C2116974   5.744   5.815  10.111  0.2309  0.2482 -1.1841
  153SAPE   O2216975   5.758   5.916  10.174  0.0644 -0.0497 -0.1767
  153SAPE   C2216976   5.642   5.788  10.006  0.4773  0.0649  0.1455
  153SAPE   H2R16977   5.694   5.767   9.910  0.9238 -1.0116  0.6018
  153SAPE   H2S16978   5.583   5.696  10.024  1.4614 -0.6343 -0.1193
  153SAPE    C316979   5.944   5.533  10.237 -0.3650  0.1015 -0.7618
  153SAPE    HX16980   5.849   5.478  10.245 -0.5830  0.3459 -1.5518
  153SAPE    HY16981   5.994   5.511  10.333 -0.3128 -0.1373 -0.8446
  153SAPE   O3116982   6.023   5.493  10.121  0.0163 -0.0115 -0.4483
  153SAPE   C3116983   6.150   5.535  10.111  0.4112  0.8934  0.4463
  153SAPE   O3216984   6.211   5.610  10.185 -0.7364 -0.2709  0.4040
  153SAPE   C3216985   6.208   5.473   9.982 -0.3185 -0.2430  0.1633
  153SAPE   H2X16986   6.176   5.529   9.892 -1.5087 -0.5079  0.4083
  153SAPE   H2Y16987   6.173   5.368   9.970  3.4000 -1.3252 -4.3925
  153SAPE   C2316988   5.539   5.907   9.990  0.1431 -0.5786 -0.3114
  153SAPE   H3R16989   5.599   5.997   9.968 -0.5348  0.2982  1.2788
  153SAPE   H3S16990   5.490   5.928  10.088 -1.4336  1.2436 -1.4285
  153SAPE   C2416991   5.432   5.870   9.893 -0.3100  0.2457  0.0441
  153SAPE   H4R16992   5.344   5.937   9.910  0.6595  0.9986  2.6001
  153SAPE   H4S16993   5.391   5.768   9.915 -0.3599  0.7974  2.9264
  153SAPE   C2516994   5.484   5.880   9.750  0.1098  0.7267  0.2022
  153SAPE   H5R16995   5.513   5.982   9.721 -1.4383  1.0474 -0.3208
  153SAPE   C2616996   5.481   5.780   9.659 -0.9639  0.0078 -0.0866
  153SAPE   H6R16997   5.525   5.806   9.561  3.1809  0.3148  1.6736
  153SAPE   C2716998   5.453   5.633   9.669  0.7529  0.0728  0.5434
  153SAPE   H7R16999   5.432   5.595   9.771 -0.6019  0.8380  0.5683
  153SAPE   H7S17000   5.544   5.578   9.638 -0.4761 -1.6642 -0.1579
  153SAPE   C2817001   5.342   5.573   9.580 -0.8572  0.2798 -0.6746
  153SAPE   H8R17002   5.245   5.583   9.631  0.4852  2.1907  1.7179
  153SAPE   C2917003   5.359   5.496   9.471 -0.0810  0.0682  0.1458
  153SAPE   H9R17004   5.270   5.469   9.413 -0.7872 -2.5921  2.2293
  153SAPE  C21017005   5.494   5.460   9.413  0.1855  0.8449  0.6542
  153SAPE  H10R17006   5.520   5.361   9.457  1.3346  1.5176  1.5744
  153SAPE  H10S17007   5.574   5.531   9.444  1.3143 -0.9537  2.0187
  153SAPE  C21117008   5.484   5.444   9.257  0.0353 -0.0890 -0.3370
  153SAPE  H11R17009   5.418   5.364   9.222  1.8604 -1.2219 -1.3340
  153SAPE  C21217010   5.534   5.524   9.166 -0.0381 -0.1965  0.1868
  153SAPE  H12R17011   5.509   5.495   9.063 -1.1925  0.4780  0.2564
  153SAPE  C21317012   5.610   5.651   9.183 -0.4352 -0.0692  0.2654
  153SAPE  H13R17013   5.648   5.673   9.081  0.4869 -1.3858  0.3014
  153SAPE  H13S17014   5.704   5.645   9.243  1.3721  3.4098 -1.8823
  153SAPE  C21417015   5.533   5.763   9.237  0.5815  0.1248  0.0471
  153SAPE  H14R17016   5.486   5.735   9.332  1.0005  1.3483  0.6377
  153SAPE  C21517017   5.515   5.890   9.192 -0.8673 -0.0973  0.4589
  153SAPE  H15R17018   5.464   5.957   9.263  1.6013  0.4474  1.8326
  153SAPE  C21617019   5.574   5.947   9.062  0.3790 -0.4304  0.1813
  153SAPE  H16R17020   5.633   5.880   8.996  0.3236  0.4841 -0.8315
  153SAPE  H16S17021   5.652   6.023   9.087 -0.1709 -0.0257  0.6864
  153SAPE  C21717022   5.465   6.029   8.986  0.2572 -0.3736  0.5629
  153SAPE  H17R17023   5.424   6.107   9.053  2.5339  0.2576  1.3321
  153SAPE  H17S17024   5.397   5.956   8.937  2.4348 -1.1814 -1.4429
  153SAPE  C21817025   5.540   6.104   8.867 -0.0482 -0.0126 -0.5736
  153SAPE  H18R17026   5.600   6.022   8.821 -0.5410 -2.0103  2.1120
  153SAPE  H18S17027   5.605   6.181   8.913 -0.9056 -0.2291  1.0477
  153SAPE  C21917028   5.456   6.165   8.761  0.0172 -0.3025 -0.1182
  153SAPE  H19R17029   5.520   6.201   8.678 -2.0277  0.3363 -1.4914
  153SAPE  H19S17030   5.415   6.257   8.810  0.4195 -1.2489  2.1224
  153SAPE  C22017031   5.350   6.076   8.702  0.2718 -0.3466  0.0463
  153SAPE  H20R17032   5.387   5.994   8.637 -0.6821 -0.5003 -0.3190
  153SAPE  H20S17033   5.277   6.129   8.636  0.6512 -0.2092 -0.2684
  153SAPE  H20T17034   5.292   6.025   8.781 -1.1318  3.5127  1.7687
  153SAPE   C3317035   6.362   5.467   9.977  0.1068  0.3238  0.3617
  153SAPE   H3X17036   6.404   5.439  10.076  0.4929 -1.2649 -0.2224
  153SAPE   H3Y17037   6.399   5.570   9.956  0.0360 -0.2724 -3.2969
  153SAPE   C3417038   6.418   5.377   9.871  0.3435  0.6294  0.2768
  153SAPE   H4X17039   6.373   5.275   9.875 -1.3206  1.2934 -0.7144
  153SAPE   H4Y17040   6.525   5.365   9.898 -0.0803 -1.3467  1.2902
  153SAPE   C3517041   6.414   5.438   9.732  0.3283  0.8536 -0.1312
  153SAPE   H5X17042   6.478   5.528   9.739  1.3375  0.1815 -0.4122
  153SAPE   H5Y17043   6.308   5.455   9.702 -0.0443  1.0993  1.2829
  153SAPE   C3617044   6.483   5.343   9.631  0.5862 -0.5283 -0.1587
  153SAPE   H6X17045   6.458   5.238   9.657  0.6712 -0.4660  0.1866
  153SAPE   H6Y17046   6.593   5.363   9.636  0.3233  1.1225 -0.4238
  153SAPE   C3717047   6.444   5.381   9.486 -0.1755  0.0622 -0.3706
  153SAPE   H7X17048   6.438   5.492   9.485  1.4551  0.2195  1.2630
  153SAPE   H7Y17049   6.339   5.347   9.475  0.0467 -0.9797  0.4928
  153SAPE   C3817050   6.531   5.319   9.376 -0.1455  0.4820  0.4201
  153SAPE   H8X17051   6.554   5.211   9.393 -0.5183  0.1132 -1.2418
  153SAPE   H8Y17052   6.619   5.386   9.365 -1.5744  2.0037 -2.8532
  153SAPE   C3917053   6.446   5.307   9.246  0.3402 -0.5492  0.3677
  153SAPE   H9X17054   6.380   5.391   9.217  1.4647 -0.4138 -2.0245
  153SAPE   H9Y17055   6.394   5.212   9.270  0.8659 -0.3873  2.3395
  153SAPE  C31017056   6.540   5.278   9.123  0.6044  0.8715  0.2450
  153SAPE  H10X17057   6.484   5.192   9.079 -1.9912  2.2623  0.6601
  153SAPE  H10Y17058   6.634   5.228   9.156  1.2792 -0.0545 -2.7612
  153SAPE  C31117059   6.568   5.389   9.023  0.1445 -0.3236 -0.5501
  153SAPE  H11X17060   6.638   5.355   8.945 -1.7354 -1.4129 -1.8570
  153SAPE  H11Y17061   6.623   5.469   9.078 -2.9006  1.9304 -0.4938
  153SAPE  C31217062   6.443   5.465   8.965 -0.6470 -0.2935  0.1712
  153SAPE  H12X17063   6.413   5.535   9.045  0.0904  0.3704 -0.1175
  153SAPE  H12Y17064   6.361   5.392   8.949 -1.1735  0.2376  0.4271
  153SAPE  C31317065   6.474   5.528   8.832 -0.0552 -0.1224 -0.4996
  153SAPE  H13X17066   6.497   5.449   8.757 -0.1674  0.1243 -0.8013
  153SAPE  H13Y17067   6.556   5.603   8.834 -0.5122  0.3583  0.9263
  153SAPE  C31417068   6.350   5.606   8.782  0.5726  0.5592  0.6799
  153SAPE  H14X17069   6.315   5.674   8.862 -0.1240  0.4123  0.5105
  153SAPE  H14Y17070   6.265   5.537   8.764  0.1704  0.5039  2.5753
  153SAPE  C31517071   6.382   5.685   8.651 -0.1827  0.1242 -0.0822
  153SAPE  H15X17072   6.440   5.625   8.577  1.0877  0.6449  0.4616
  153SAPE  H15Y17073   6.450   5.769   8.679 -2.3204  1.9349  0.0139
  153SAPE  C31617074   6.256   5.752   8.597  0.0329  0.2983  0.4321
  153SAPE  H16X17075   6.215   5.806   8.685  1.6335 -1.8990  2.6508
  153SAPE  H16Y17076   6.167   5.684   8.598 -1.5657  2.2635  1.7176
  153SAPE  C31717077   6.271   5.834   8.472 -0.4359 -0.4059  0.4887
  153SAPE  H17X17078   6.168   5.862   8.440 -0.8518 -1.3092  1.0297
  153SAPE  H17Y17079   6.311   5.776   8.386 -1.3153 -0.6744  0.2475
  153SAPE  C31817080   6.362   5.955   8.495  0.3497 -0.3393  0.3837
  153SAPE  H18X17081   6.343   6.034   8.419  0.1620 -0.7252  0.0250
  153SAPE  H18Y17082   6.468   5.921   8.495  0.1344 -1.0708  1.5424
  153SAPE  H18Z17083   6.339   5.991   8.597  1.0152  2.0396 -0.2516
  154SAPE     N17084   0.015   6.419  10.934 -0.9872 -0.2161  0.4781
  154SAPE   HN117085   0.057   6.327  10.960 -1.6559 -0.3998  0.9391
  154SAPE   HN217086   0.068   6.461  10.856 -1.1189  1.2186  1.1374
  154SAPE   HN317087   0.036   6.493  11.004 -1.0059  3.1553 -2.7879
  154SAPE   C1217088  -0.129   6.388  10.912  0.4716 -0.2412  0.1802
  154SAPE  H12A17089  -0.195   6.477  10.911  0.5874 -0.1434 -1.2500
  154SAPE  H12B17090  -0.163   6.319  10.993 -1.5755  0.4397 -0.0580
  154SAPE   C1117091  -0.151   6.296  10.783  0.3650  0.2471  0.3016
  154SAPE  H11A17092  -0.125   6.353  10.692 -1.0426  1.4261  0.6002
  154SAPE  H11B17093  -0.260   6.277  10.782 -0.2136  3.1336 -1.1822
  154SAPE     P17094  -0.143   6.039  10.835 -0.1699 -0.1494  0.4708
  154SAPE   O1317095  -0.035   5.946  10.878  0.6044  0.3905  0.6631
  154SAPE   O1417096  -0.256   6.065  10.925 -0.1549 -0.1256  0.4371
  154SAPE   O1217097  -0.073   6.181  10.804  0.0606  0.6840  0.1301
  154SAPE   O1117098  -0.195   5.986  10.695  0.0125 -0.9351  0.0570
  154SAPE    C117099  -0.103   5.912  10.611 -0.5555 -0.5742 -0.4403
  154SAPE    HA17100   0.001   5.895  10.647 -1.3423 -1.0984  1.7800
  154SAPE    HB17101  -0.139   5.807  10.612  0.3767 -0.9267  1.8386
  154SAPE    C217102  -0.107   5.954  10.465 -0.3244  1.0938 -0.0331
  154SAPE    HS17103  -0.045   5.891  10.397  0.3249  0.7626  0.8586
  154SAPE   O2117104  -0.055   6.083  10.451 -0.3635  0.0589 -0.8619
  154SAPE   C2117105   0.079   6.084  10.420  0.5179 -0.3709 -0.3061
  154SAPE   O2217106   0.146   5.989  10.396  0.4754  0.6648 -0.1318
  154SAPE   C2217107   0.113   6.236  10.415 -0.8202 -0.2311 -0.2120
  154SAPE   H2R17108   0.017   6.290  10.410 -0.7282  0.0005  0.3967
  154SAPE   H2S17109   0.158   6.258  10.514 -0.3984  0.7916 -0.6154
  154SAPE    C317110  -0.250   5.947  10.406  0.0042  0.2212 -0.1923
  154SAPE    HX17111  -0.308   6.027  10.456  2.6171  0.6985  2.3004
  154SAPE    HY17112  -0.289   5.845  10.428  0.4942  0.1954  0.5859
  154SAPE   O3117113  -0.243   5.975  10.265  0.4424  0.1932 -0.3919
  154SAPE   C3117114  -0.208   5.882  10.188 -0.0391  0.3119  0.3974
  154SAPE   O3217115  -0.181   5.763  10.219  0.2315 -0.5868  0.7566
  154SAPE   C3217116  -0.208   5.925  10.041 -0.2684 -0.3540  0.3195
  154SAPE   H2X17117  -0.159   6.024  10.034  2.7991 -1.8026 -0.5349
  154SAPE   H2Y17118  -0.315   5.937  10.013 -0.2367  0.9660  0.6724
  154SAPE   C2317119   0.206   6.266  10.292 -0.6638 -0.0673 -0.2875
  154SAPE   H3R17120   0.282   6.185  10.289 -0.2138  0.3104  0.5041
  154SAPE   H3S17121   0.244   6.368  10.313 -1.2676  0.3862 -1.3745
  154SAPE   C2417122   0.136   6.267  10.153  0.4379 -0.3810 -0.6163
  154SAPE   H4R17123   0.209   6.324  10.092 -0.6651  1.4632 -0.2851
  154SAPE   H4S17124   0.041   6.325  10.155  0.7012  0.0111  0.7842
  154SAPE   C2517125   0.113   6.136  10.088 -0.0462 -0.3762 -0.0877
  154SAPE   H5R17126   0.102   6.046  10.150 -0.6753 -1.1221 -1.2495
  154SAPE   C2617127   0.106   6.127   9.956 -0.8591  0.0477  0.3444
  154SAPE   H6R17128   0.074   6.035   9.904 -1.6188  1.7659 -2.4694
  154SAPE   C2717129   0.126   6.245   9.855 -0.1599  0.2993  0.2091
  154SAPE   H7R17130   0.229   6.245   9.814 -0.7061 -1.1073 -1.2942
  154SAPE   H7S17131   0.120   6.343   9.906  0.2132 -0.5925  2.0197
  154SAPE   C2817132   0.022   6.260   9.745 -0.5813 -0.1813 -0.4533
  154SAPE   H8R17133  -0.062   6.326   9.772  1.1334  1.6333  0.7904
  154SAPE   C2917134   0.023   6.203   9.623  0.4907  1.0397  0.3274
  154SAPE   H9R17135  -0.059   6.218   9.551 -0.5065 -6.1042 -0.8630
  154SAPE  C21017136   0.131   6.111   9.565  0.3588  0.0398  0.1331
  154SAPE  H10R17137   0.094   6.007   9.574 -1.1003  0.6698  2.0321
  154SAPE  H10S17138   0.218   6.099   9.633 -0.0140 -1.1593  0.4263
  154SAPE  C21117139   0.180   6.165   9.435  0.1521  0.2858  0.1638
  154SAPE  H11R17140   0.237   6.259   9.439  0.3943  0.1202  3.7378
  154SAPE  C21217141   0.177   6.082   9.327  0.1895 -0.2106 -0.4436
  154SAPE  H12R17142   0.208   6.122   9.229  1.5778 -1.7591 -0.6966
  154SAPE  C21317143   0.115   5.947   9.322  0.5196 -0.3430  0.2505
  154SAPE  H13R17144   0.005   5.955   9.340  0.7774  1.6404  1.2610
  154SAPE  H13S17145   0.151   5.884   9.406 -0.3141  0.1323  0.9823
  154SAPE  C21417146   0.139   5.871   9.193  0.2207  0.7814  0.4615
  154SAPE  H14R17147   0.246   5.854   9.175  0.3863  1.0253  1.1573
  154SAPE  C21517148   0.054   5.819   9.103 -1.0541 -0.1527  0.5416
  154SAPE  H15R17149   0.095   5.771   9.012 -2.1327 -0.6854  0.3144
  154SAPE  C21617150  -0.090   5.820   9.103 -0.3371  0.0663  0.2484
  154SAPE  H16R17151  -0.127   5.855   9.201 -1.6645  0.5051 -0.3892
  154SAPE  H16S17152  -0.118   5.715   9.078  0.4985  0.2668 -1.8043
  154SAPE  C21717153  -0.140   5.898   8.985 -0.1300 -0.1074 -0.2267
  154SAPE  H17R17154  -0.114   5.852   8.887 -2.4864 -0.2959 -0.8244
  154SAPE  H17S17155  -0.094   5.998   8.976 -2.1664  0.9418  0.3581
  154SAPE  C21817156  -0.291   5.926   8.991  0.4803  0.9790 -0.1864
  154SAPE  H18R17157  -0.316   5.975   9.088 -1.5175  2.5424 -1.4006
  154SAPE  H18S17158  -0.344   5.828   8.989  0.9485  0.7310 -0.5418
  154SAPE  C21917159  -0.334   6.018   8.869 -0.5090 -0.7268 -0.1770
  154SAPE  H19R17160  -0.444   6.008   8.852 -0.3019 -0.5571 -1.6802
  154SAPE  H19S17161  -0.288   5.984   8.774 -1.1020 -2.7084  0.1930
  154SAPE  C22017162  -0.300   6.167   8.895 -0.7347 -0.6151  0.5453
  154SAPE  H20R17163  -0.189   6.164   8.892 -0.7589 -1.3548 -0.0130
  154SAPE  H20S17164  -0.342   6.208   8.989 -1.8362 -0.0767 -0.1628
  154SAPE  H20T17165  -0.327   6.231   8.808  1.4491  0.0384  0.2916
  154SAPE   C3317166  -0.123   5.833   9.954  0.3850 -0.1847 -0.0432
  154SAPE   H3X17167  -0.149   5.725   9.970 -1.4058  0.4553  1.8922
  154SAPE   H3Y17168  -0.019   5.856   9.986 -0.0977  0.8162  0.8638
  154SAPE   C3417169  -0.138   5.870   9.809 -0.3862 -0.6978  0.2675
  154SAPE   H4X17170  -0.054   5.828   9.749  1.3176  1.1480  1.2352
  154SAPE   H4Y17171  -0.120   5.980   9.800  2.0528 -0.7784  2.7079
  154SAPE   C3517172  -0.271   5.837   9.749  0.0234 -0.0916 -0.2908
  154SAPE   H5X17173  -0.349   5.894   9.804  1.3835  0.1564  1.4802
  154SAPE   H5Y17174  -0.287   5.728   9.766  0.1530  0.1704  1.8173
  154SAPE   C3617175  -0.279   5.876   9.601  1.0729  0.2167 -0.3535
  154SAPE   H6X17176  -0.190   5.842   9.544  1.0124 -0.0780 -0.2742
  154SAPE   H6Y17177  -0.283   5.987   9.591 -1.7627  0.2129 -0.0843
  154SAPE   C3717178  -0.413   5.821   9.543 -0.3959  0.2931  0.3644
  154SAPE   H7X17179  -0.484   5.902   9.570 -0.9534  0.1931 -0.7531
  154SAPE   H7Y17180  -0.440   5.722   9.586 -1.5745 -0.1663 -1.3441
  154SAPE   C3817181  -0.411   5.811   9.398  0.2167  0.2137  0.1152
  154SAPE   H8X17182  -0.335   5.735   9.370  1.4730  1.0091  1.2609
  154SAPE   H8Y17183  -0.386   5.908   9.349 -1.2689 -1.3932 -4.3303
  154SAPE   C3917184  -0.554   5.775   9.354  0.3599 -0.0787 -0.2436
  154SAPE   H9X17185  -0.619   5.857   9.391 -0.2169 -0.7351  0.2219
  154SAPE   H9Y17186  -0.594   5.688   9.409  0.7066 -0.1051 -0.0324
  154SAPE  C31017187  -0.567   5.751   9.199  0.5538 -0.5922  0.7947
  154SAPE  H10X17188  -0.516   5.658   9.168  0.7765  0.5673 -2.7914
  154SAPE  H10Y17189  -0.531   5.843   9.149 -1.4501  1.1047  2.2379
  154SAPE  C31117190  -0.713   5.734   9.154 -0.6200 -0.1935  0.5192
  154SAPE  H11X17191  -0.758   5.833   9.175 -1.6488 -1.3018  4.3014
  154SAPE  H11Y17192  -0.764   5.657   9.216 -1.3630  0.0699  0.2440
  154SAPE  C31217193  -0.720   5.692   9.008 -0.0611 -0.7966  0.4113
  154SAPE  H12X17194  -0.678   5.591   8.991 -1.1820 -1.4740  1.4927
  154SAPE  H12Y17195  -0.667   5.756   8.934 -0.8912  0.2878  0.7367
  154SAPE  C31317196  -0.867   5.676   8.961 -0.5101 -0.1454 -0.0057
  154SAPE  H13X17197  -0.933   5.762   8.988  0.9982  0.5976  1.4537
  154SAPE  H13Y17198  -0.913   5.583   9.001 -1.1107 -0.5394 -1.5298
  154SAPE  C31417199  -0.876   5.678   8.808  0.0581  0.7321  0.4985
  154SAPE  H14X17200  -0.800   5.611   8.764  0.5177  1.1143  0.7002
  154SAPE  H14Y17201  -0.849   5.779   8.771  2.0709 -0.4555 -1.5271
  154SAPE  C31517202  -1.013   5.640   8.760  0.7336 -0.5134 -0.2912
  154SAPE  H15X17203  -1.026   5.625   8.651  1.9592  0.8861 -0.6576
  154SAPE  H15Y17204  -1.087   5.714   8.797 -1.9511 -2.5833 -1.1942
  154SAPE  C31617205  -1.053   5.502   8.818 -0.7275 -0.2819  0.2827
  154SAPE  H16X17206  -1.064   5.502   8.928  0.9411  1.3477  0.5007
  154SAPE  H16Y17207  -0.971   5.430   8.796  0.3546  0.6962  1.0035
  154SAPE  C31717208  -1.175   5.445   8.734  0.2779 -0.6384 -0.6398
  154SAPE  H17X17209  -1.215   5.355   8.784  1.1193  0.6047  2.5738
  154SAPE  H17Y17210  -1.133   5.419   8.634 -0.5110  2.1658 -1.8014
  154SAPE  C31817211  -1.294   5.545   8.719  0.2529  0.7133 -0.8653
  154SAPE  H18X17212  -1.386   5.499   8.677  1.6975 -2.1008 -1.1723
  154SAPE  H18Y17213  -1.262   5.641   8.673 -0.4972  1.9044  0.9792
  154SAPE  H18Z17214  -1.329   5.586   8.816 -1.7061  0.2944 -1.3482
  155SAPE     N17215   6.133   0.659  10.966 -0.9673  0.1286  0.4206
  155SAPE   HN117216   6.116   0.759  10.984  1.2559  0.3687  1.4832
  155SAPE   HN217217   6.068   0.600  11.022 -1.1370 -0.2005 -0.1154
  155SAPE   HN317218   6.227   0.630  11.001  0.5532 -0.1964 -3.3765
  155SAPE   C1217219   6.129   0.627  10.819  0.2856  0.1291  0.7347
  155SAPE  H12A17220   6.152   0.519  10.806  1.0953  0.3861 -0.0591
  155SAPE  H12B17221   6.209   0.681  10.765 -0.6580  1.4934  0.6383
  155SAPE   C1117222   5.988   0.659  10.759 -0.9401  0.1937 -0.3635
  155SAPE  H11A17223   5.902   0.610  10.810 -0.5337  0.5338  0.6667
  155SAPE  H11B17224   5.988   0.614  10.657  0.6175 -1.2363  0.2113
  155SAPE     P17225   5.858   0.893  10.745 -0.4870 -0.2696  0.2320
  155SAPE   O1317226   5.789   0.893  10.875  0.7764 -0.0354  0.0936
  155SAPE   O1417227   5.899   1.026  10.698 -0.1352  0.0712  0.1026
  155SAPE   O1217228   5.977   0.797  10.758 -0.5443  0.3265  0.6897
  155SAPE   O1117229   5.762   0.822  10.645  0.2489  0.5121 -0.0845
  155SAPE    C117230   5.799   0.752  10.528 -0.7063  0.6947  0.2795
  155SAPE    HA17231   5.908   0.742  10.512 -0.5489 -0.1105  1.6698
  155SAPE    HB17232   5.771   0.647  10.551 -0.5006  0.9992  2.0404
  155SAPE    C217233   5.729   0.810  10.406 -0.0269 -0.0948  0.3100
  155SAPE    HS17234   5.744   0.734  10.326 -2.3292 -0.2618 -0.0262
  155SAPE   O2117235   5.786   0.941  10.375  0.1050  0.4702  0.0057
  155SAPE   C2117236   5.771   0.985  10.250  0.4648 -0.5161 -0.3704
  155SAPE   O2217237   5.722   0.925  10.157 -0.0905  0.2670  0.1187
  155SAPE   C2217238   5.833   1.125  10.243 -0.1523  0.7271  0.1871
  155SAPE   H2R17239   5.759   1.202  10.276 -0.7135  0.5321 -0.5917
  155SAPE   H2S17240   5.918   1.119  10.315  0.0627  0.9139 -0.0496
  155SAPE    C317241   5.578   0.808  10.429  0.2069 -0.0019  0.3677
  155SAPE    HX17242   5.553   0.888  10.503  0.0916  0.1393  0.1767
  155SAPE    HY17243   5.545   0.710  10.469  1.0231 -0.9672 -1.2476
  155SAPE   O3117244   5.500   0.847  10.310  0.7803  0.5663  0.4834
  155SAPE   C3117245   5.452   0.747  10.229  0.1983 -0.2086 -0.8728
  155SAPE   O3217246   5.472   0.627  10.249 -0.3282  0.3349  0.2290
  155SAPE   C3217247   5.374   0.799  10.106  0.0995 -0.0088  0.2372
  155SAPE   H2X17248   5.383   0.910  10.105  0.3704  0.0128  1.8590
  155SAPE   H2Y17249   5.269   0.763  10.100  0.3085 -0.5066 -0.6401
  155SAPE   C2317250   5.882   1.162  10.098 -0.0450 -0.8380 -0.1634
  155SAPE   H3R17251   5.923   1.264  10.084 -2.8876  0.4058 -0.1542
  155SAPE   H3S17252   5.798   1.150  10.027 -1.2951  0.2397  1.0605
  155SAPE   C2417253   6.002   1.076  10.045 -0.3457 -0.2270  0.5870
  155SAPE   H4R17254   5.986   0.966  10.049  1.0638 -0.4311  3.3867
  155SAPE   H4S17255   6.088   1.092  10.113  1.4130  0.8576 -1.7553
  155SAPE   C2517256   6.041   1.124   9.908 -0.1267  0.1373 -0.0887
  155SAPE   H5R17257   6.109   1.210   9.898  1.3270 -1.2251 -3.6557
  155SAPE   C2617258   6.007   1.056   9.797  0.2898  0.2264 -0.3570
  155SAPE   H6R17259   6.060   1.074   9.702 -1.1535  0.9615 -1.0589
  155SAPE   C2717260   5.929   0.927   9.787  1.0010 -0.4859 -0.4035
  155SAPE   H7R17261   5.894   0.893   9.887 -0.9730 -1.7799 -1.4743
  155SAPE   H7S17262   6.006   0.859   9.744  1.5954 -0.0312 -0.0679
  155SAPE   C2817263   5.809   0.949   9.694  0.9145  0.3363 -0.1099
  155SAPE   H8R17264   5.726   0.995   9.750  0.4118 -1.6999  0.9304
  155SAPE   C2917265   5.801   0.930   9.560  0.7855  0.3564 -0.0303
  155SAPE   H9R17266   5.708   0.964   9.510  2.2063  2.9571 -1.1235
  155SAPE  C21017267   5.913   0.878   9.467 -0.3885  0.0648  0.7602
  155SAPE  H10R17268   5.906   0.768   9.455  0.4192 -0.0203  1.0212
  155SAPE  H10S17269   6.013   0.880   9.516 -0.0079  1.1406 -0.0218
  155SAPE  C21117270   5.919   0.948   9.329  0.2527  0.0899  0.4350
  155SAPE  H11R17271   5.896   1.055   9.330 -1.1478 -0.1742  1.9711
  155SAPE  C21217272   5.928   0.888   9.209 -0.3865 -0.3037  0.2720
  155SAPE  H12R17273   5.939   0.940   9.112  3.3483 -0.7211  0.2981
  155SAPE  C21317274   5.943   0.737   9.196  0.4562 -0.5974  0.1444
  155SAPE  H13R17275   5.892   0.697   9.106 -0.5505  1.3897 -0.2184
  155SAPE  H13S17276   5.882   0.679   9.269 -0.6776 -0.9653 -1.0493
  155SAPE  C21417277   6.080   0.679   9.194  0.0234  0.6438 -0.1664
  155SAPE  H14R17278   6.102   0.634   9.292 -0.1631 -4.2337 -2.0804
  155SAPE  C21517279   6.172   0.673   9.092  0.2974  0.0388 -0.1732
  155SAPE  H15R17280   6.275   0.636   9.105  1.2820  1.3702 -3.2575
  155SAPE  C21617281   6.154   0.736   8.952 -0.5276  0.1719  0.4527
  155SAPE  H16R17282   6.240   0.800   8.923 -0.8879  0.4947  0.0878
  155SAPE  H16S17283   6.060   0.794   8.939 -1.5807 -1.6678 -0.7875
  155SAPE  C21717284   6.137   0.630   8.851  0.1661 -0.2636 -0.6617
  155SAPE  H17R17285   6.063   0.554   8.884 -0.1840  0.3856  0.0921
  155SAPE  H17S17286   6.236   0.580   8.851  0.7662  0.6838  2.5241
  155SAPE  C21817287   6.096   0.681   8.717 -0.1031  0.4223 -0.0487
  155SAPE  H18R17288   6.135   0.623   8.631 -0.2006  2.4381 -1.5303
  155SAPE  H18S17289   6.123   0.788   8.706  1.5337 -0.0631 -0.9849
  155SAPE  C21917290   5.940   0.672   8.701  0.1999  0.8073  0.1761
  155SAPE  H19R17291   5.875   0.726   8.772 -1.3528  0.1738 -0.7161
  155SAPE  H19S17292   5.911   0.566   8.716  0.8386  0.4934 -0.6935
  155SAPE  C22017293   5.900   0.711   8.563 -0.5475 -0.3616  0.4426
  155SAPE  H20R17294   5.865   0.817   8.572 -0.2653 -0.2984  0.8162
  155SAPE  H20S17295   5.809   0.650   8.542 -1.8310  0.6522  2.6824
  155SAPE  H20T17296   5.973   0.690   8.482 -0.2301  0.5379  0.4839
  155SAPE   C3317297   5.448   0.744   9.986  0.1019  0.8024 -0.1436
  155SAPE   H3X17298   5.416   0.638   9.980  0.6137  0.5169  1.7003
  155SAPE   H3Y17299   5.558   0.757   9.994  0.5039 -1.8132 -0.4445
  155SAPE   C3417300   5.406   0.819   9.859 -0.0249  0.4601  0.4399
  155SAPE   H4X17301   5.446   0.923   9.865  1.1828  0.4247 -3.8803
  155SAPE   H4Y17302   5.297   0.807   9.840 -0.1419  0.9542  0.7755
  155SAPE   C3517303   5.477   0.750   9.737  0.4199 -0.5740 -0.3518
  155SAPE   H5X17304   5.443   0.644   9.734 -0.5071 -0.5012  3.0737
  155SAPE   H5Y17305   5.587   0.744   9.757  0.4545  1.0017  0.0300
  155SAPE   C3617306   5.432   0.815   9.606 -0.2597 -0.5486 -0.6497
  155SAPE   H6X17307   5.452   0.924   9.613  2.3016 -0.6963 -3.6229
  155SAPE   H6Y17308   5.323   0.789   9.604 -0.4504  0.2398 -0.6989
  155SAPE   C3717309   5.498   0.752   9.487  0.2420 -0.4549  0.4475
  155SAPE   H7X17310   5.455   0.650   9.482 -2.2156  0.3982  2.2617
  155SAPE   H7Y17311   5.609   0.747   9.500  0.7704  2.0380 -2.0383
  155SAPE   C3817312   5.476   0.831   9.355 -1.3328 -0.2036  0.0870
  155SAPE   H8X17313   5.510   0.936   9.365 -2.4633  0.1395  0.3517
  155SAPE   H8Y17314   5.368   0.835   9.334 -1.3131 -0.5733 -0.0870
  155SAPE   C3917315   5.552   0.767   9.238 -0.2107  0.1062 -0.4121
  155SAPE   H9X17316   5.533   0.660   9.260 -1.0763  0.3701  0.1664
  155SAPE   H9Y17317   5.662   0.782   9.252 -0.5581  0.3313  2.6755
  155SAPE  C31017318   5.496   0.776   9.097 -0.1575 -0.0367  0.4712
  155SAPE  H10X17319   5.405   0.838   9.084  1.4637  2.8983  2.0867
  155SAPE  H10Y17320   5.484   0.668   9.071 -0.5294  0.0054  0.4656
  155SAPE  C31117321   5.605   0.849   9.013 -0.6974  0.2069  0.6890
  155SAPE  H11X17322   5.569   0.838   8.908  1.9449 -0.2053 -0.2494
  155SAPE  H11Y17323   5.700   0.791   9.015 -0.3946  0.6603 -0.1875
  155SAPE  C31217324   5.621   0.998   9.055 -0.1468 -0.3232  0.3435
  155SAPE  H12X17325   5.695   1.014   9.137 -0.1692  1.1984  0.0979
  155SAPE  H12Y17326   5.524   1.034   9.094 -1.2078  0.8557 -3.0374
  155SAPE  C31317327   5.668   1.086   8.940  0.0875 -0.3923 -0.6558
  155SAPE  H13X17328   5.670   1.192   8.973  1.9090 -0.6051  0.0266
  155SAPE  H13Y17329   5.606   1.064   8.850 -0.6517 -2.3954  0.2893
  155SAPE  C31417330   5.813   1.054   8.893  0.4102  0.1990  0.3016
  155SAPE  H14X17331   5.813   0.943   8.882 -0.3484  0.2479 -0.2627
  155SAPE  H14Y17332   5.889   1.088   8.966  1.3241 -0.7687 -0.1692
  155SAPE  C31517333   5.850   1.119   8.751  0.8401 -0.5378 -0.8703
  155SAPE  H15X17334   5.827   1.228   8.752  1.4214 -0.3932  0.6021
  155SAPE  H15Y17335   5.775   1.069   8.687 -0.8584  0.0852  0.5457
  155SAPE  C31617336   5.990   1.082   8.710 -0.4113 -0.4419  0.4715
  155SAPE  H16X17337   6.003   0.972   8.709 -1.0732 -0.5251  1.0160
  155SAPE  H16Y17338   6.060   1.123   8.786  0.2459  2.8709 -1.7178
  155SAPE  C31717339   6.026   1.146   8.574 -0.0540 -0.7356 -0.1760
  155SAPE  H17X17340   6.023   1.252   8.607  1.4941 -1.3488  2.1931
  155SAPE  H17Y17341   5.945   1.133   8.499  0.6616  0.5180 -1.2202
  155SAPE  C31817342   6.160   1.103   8.512 -0.6670  0.4215 -0.8752
  155SAPE  H18X17343   6.241   1.139   8.579 -0.6377 -3.7777  1.7603
  155SAPE  H18Y17344   6.186   1.144   8.412  0.6268  1.0382 -0.3010
  155SAPE  H18Z17345   6.169   0.992   8.510 -3.4091  0.1176 -0.8524
  156SAPE     N17346   4.712   5.287  10.445 -0.5210  0.4020 -0.5375
  156SAPE   HN117347   4.643   5.293  10.522  0.3439 -0.4632  0.3219
  156SAPE   HN217348   4.734   5.187  10.427 -0.2987  0.6882 -2.0208
  156SAPE   HN317349   4.796   5.337  10.480  0.4768 -0.6885 -1.2918
  156SAPE   C1217350   4.643   5.348  10.327  0.4352  0.2981 -0.0211
  156SAPE  H12A17351   4.720   5.386  10.257  0.4118  1.5034  0.5768
  156SAPE  H12B17352   4.583   5.431  10.369  0.5069  0.7021 -0.7074
  156SAPE   C1117353   4.542   5.251  10.263  0.0423  0.3791  0.1943
  156SAPE  H11A17354   4.602   5.169  10.220  1.1358 -0.4743  3.1311
  156SAPE  H11B17355   4.477   5.311  10.195 -0.6258 -0.1973  0.3072
  156SAPE     P17356   4.332   5.226  10.420  0.2167  0.4844  0.1950
  156SAPE   O1317357   4.281   5.108  10.491  0.8822 -0.6199 -0.0800
  156SAPE   O1417358   4.342   5.353  10.491  0.2152 -0.5800 -0.5047
  156SAPE   O1217359   4.476   5.188  10.367 -0.3116 -0.1660  0.2929
  156SAPE   O1117360   4.245   5.247  10.292 -0.2527  0.0167 -0.2538
  156SAPE    C117361   4.201   5.134  10.225  0.3001  0.9492  0.4896
  156SAPE    HA17362   4.254   5.135  10.127 -1.7465  2.3743 -0.6690
  156SAPE    HB17363   4.231   5.038  10.272  1.1309 -0.0216 -1.8644
  156SAPE    C217364   4.046   5.134  10.216 -0.1171 -0.0788 -0.1085
  156SAPE    HS17365   4.006   5.074  10.300 -1.7885  0.1652 -0.6954
  156SAPE   O2117366   4.001   5.082  10.092  0.1793 -0.6381  0.1160
  156SAPE   C2117367   4.052   4.969  10.039 -0.5729  0.4368  0.1309
  156SAPE   O2217368   4.130   4.893  10.095 -0.4505  0.0430 -0.2572
  156SAPE   C2217369   3.989   4.956   9.903  0.4396  0.1433  0.2076
  156SAPE   H2R17370   3.881   4.971   9.925  0.7271  2.9794  0.0629
  156SAPE   H2S17371   4.031   5.028   9.831 -0.0469  0.0107 -0.2143
  156SAPE    C317372   3.976   5.271  10.248  0.2603 -0.1905  0.3377
  156SAPE    HX17373   4.031   5.349  10.191 -2.1582  2.1699  1.0256
  156SAPE    HY17374   3.981   5.297  10.356 -2.5301  2.3384 -0.0209
  156SAPE   O3117375   3.838   5.248  10.218 -0.0466  0.1512 -0.8576
  156SAPE   C3117376   3.783   5.360  10.164 -0.2996 -0.5058 -1.4053
  156SAPE   O3217377   3.842   5.466  10.141 -0.3673 -0.5414  0.4839
  156SAPE   C3217378   3.632   5.347  10.143  0.1451  0.8333 -0.7410
  156SAPE   H2X17379   3.586   5.445  10.169  1.3028  0.4599  3.4494
  156SAPE   H2Y17380   3.588   5.277  10.218  0.9997 -0.0506 -1.0462
  156SAPE   C2317381   3.995   4.812   9.838 -0.1638  0.3764 -0.1292
  156SAPE   H3R17382   3.936   4.740   9.898  1.3202 -1.6100 -0.9678
  156SAPE   H3S17383   4.099   4.776   9.846 -1.1184 -2.1329  4.4835
  156SAPE   C2417384   3.931   4.802   9.699 -0.6513  0.0269  0.5294
  156SAPE   H4R17385   3.996   4.860   9.630  0.1051 -2.4422 -0.9732
  156SAPE   H4S17386   3.828   4.843   9.698 -1.1573 -1.0513  2.4807
  156SAPE   C2517387   3.919   4.660   9.651 -0.9467  0.4036  0.2393
  156SAPE   H5R17388   3.920   4.576   9.722  1.8036 -0.0649 -0.2219
  156SAPE   C2617389   3.918   4.623   9.518 -0.3080 -0.4061 -0.2616
  156SAPE   H6R17390   3.921   4.518   9.485 -1.4180 -1.1898  1.9453
  156SAPE   C2717391   3.916   4.716   9.401 -0.4746 -0.6606  0.2517
  156SAPE   H7R17392   4.018   4.704   9.357  0.2013  1.6842  1.0297
  156SAPE   H7S17393   3.914   4.823   9.430 -0.3588 -0.5287 -0.2218
  156SAPE   C2817394   3.808   4.689   9.297  0.2300 -0.5098 -0.5382
  156SAPE   H8R17395   3.713   4.722   9.343  1.4316  3.0040 -0.2691
  156SAPE   C2917396   3.807   4.624   9.177 -0.5335 -0.4667  0.3411
  156SAPE   H9R17397   3.716   4.612   9.117 -0.8295 -0.7188  0.8310
  156SAPE  C21017398   3.924   4.558   9.109 -0.3290 -0.0666  0.0747
  156SAPE  H10R17399   3.896   4.453   9.088 -0.4920 -0.2015  0.9401
  156SAPE  H10S17400   4.005   4.548   9.184  0.0240  2.6146  0.1496
  156SAPE  C21117401   3.984   4.635   8.994 -0.7311 -0.2363 -0.0950
  156SAPE  H11R17402   4.063   4.704   9.027  1.0949 -2.6738  0.9270
  156SAPE  C21217403   3.955   4.630   8.866 -0.2375 -0.4422 -0.4194
  156SAPE  H12R17404   4.016   4.693   8.799  0.4687  0.3104  0.9027
  156SAPE  C21317405   3.843   4.545   8.795 -0.2998  0.3278 -0.2571
  156SAPE  H13R17406   3.752   4.541   8.859 -0.0042  0.8510  0.2096
  156SAPE  H13S17407   3.880   4.441   8.782 -1.2549  0.0235 -0.6012
  156SAPE  C21417408   3.819   4.603   8.651  0.0973  0.9362 -0.7059
  156SAPE  H14R17409   3.787   4.708   8.645 -0.2787  0.7723 -2.0590
  156SAPE  C21517410   3.838   4.531   8.541 -0.0654  0.0309  0.1471
  156SAPE  H15R17411   3.824   4.573   8.441 -1.4062 -1.3267 -0.2851
  156SAPE  C21617412   3.886   4.392   8.530  0.3590  0.1478  0.7692
  156SAPE  H16R17413   3.878   4.333   8.624 -3.6713 -0.8035  0.0217
  156SAPE  H16S17414   3.996   4.395   8.518  0.2588 -1.3741 -0.8642
  156SAPE  C21717415   3.827   4.315   8.407  0.0236  0.3544 -0.2191
  156SAPE  H17R17416   3.891   4.231   8.373  1.9332  1.6600 -0.0000
  156SAPE  H17S17417   3.805   4.383   8.322 -1.2779 -1.6451 -1.5690
  156SAPE  C21817418   3.698   4.234   8.452  0.3844  0.4339  0.1276
  156SAPE  H18R17419   3.741   4.177   8.537  1.3566  1.6914  0.5183
  156SAPE  H18S17420   3.675   4.173   8.362  2.2545 -0.2293  0.0480
  156SAPE  C21917421   3.571   4.309   8.492 -0.2391  0.8866  0.3412
  156SAPE  H19R17422   3.550   4.378   8.407 -2.4102  1.7004  1.4376
  156SAPE  H19S17423   3.595   4.365   8.585 -2.7918  0.2506  1.4698
  156SAPE  C22017424   3.453   4.219   8.503  0.0961 -0.1532  0.4679
  156SAPE  H20R17425   3.480   4.138   8.575  0.9006 -0.5163 -0.2159
  156SAPE  H20S17426   3.438   4.177   8.402  0.1038 -0.1322  0.4576
  156SAPE  H20T17427   3.360   4.274   8.527  2.1550  3.3946  1.0515
  156SAPE   C3317428   3.593   5.308   9.999  0.6099 -0.2459  0.6696
  156SAPE   H3X17429   3.599   5.398   9.933 -2.5555 -2.0905 -2.5265
  156SAPE   H3Y17430   3.482   5.296   9.994  0.7397 -1.1867 -1.7330
  156SAPE   C3417431   3.648   5.173   9.939 -0.3677  0.0118 -0.3697
  156SAPE   H4X17432   3.639   5.093  10.017 -0.9303 -0.9851 -1.4180
  156SAPE   H4Y17433   3.757   5.183   9.921 -0.6681  3.5306 -0.9334
  156SAPE   C3517434   3.582   5.131   9.808 -0.2785  0.5403 -0.2020
  156SAPE   H5X17435   3.598   5.212   9.733  3.6261 -1.1049 -1.3894
  156SAPE   H5Y17436   3.474   5.134   9.834 -0.3202  0.5581 -0.3779
  156SAPE   C3617437   3.638   5.007   9.748  0.1587 -0.2667  0.5450
  156SAPE   H6X17438   3.636   4.926   9.823  0.9665  0.2823  1.1779
  156SAPE   H6Y17439   3.746   5.019   9.724 -0.0092 -1.3460 -0.8975
  156SAPE   C3717440   3.539   4.953   9.632 -0.1221 -0.7826  0.1992
  156SAPE   H7X17441   3.440   4.993   9.665  1.3240  2.5055  0.9573
  156SAPE   H7Y17442   3.542   4.843   9.647  2.9287 -0.6037  1.4461
  156SAPE   C3817443   3.586   4.989   9.488 -0.0352 -0.6730  0.3724
  156SAPE   H8X17444   3.692   4.956   9.483  0.4962  0.2172  3.3906
  156SAPE   H8Y17445   3.574   5.098   9.471  1.8027 -0.5116 -0.0829
  156SAPE   C3917446   3.500   4.916   9.382 -0.9937 -0.1519 -0.2595
  156SAPE   H9X17447   3.395   4.949   9.394 -0.0751  2.7015  0.9342
  156SAPE   H9Y17448   3.499   4.806   9.391 -0.8443 -0.2856 -1.5789
  156SAPE  C31017449   3.548   4.952   9.239  0.4185  0.3922 -0.0922
  156SAPE  H10X17450   3.651   4.914   9.225 -0.9908 -3.6347 -0.7580
  156SAPE  H10Y17451   3.537   5.062   9.223  3.2829  1.0062  1.3539
  156SAPE  C31117452   3.469   4.884   9.136  0.6948 -0.2219  0.0101
  156SAPE  H11X17453   3.373   4.939   9.135 -0.1836 -1.6789  0.7326
  156SAPE  H11Y17454   3.456   4.782   9.178  2.7535 -0.6642 -0.3039
  156SAPE  C31217455   3.543   4.872   9.003  0.5308 -0.6232 -0.1876
  156SAPE  H12X17456   3.640   4.818   8.994 -0.2581 -1.9021 -1.4404
  156SAPE  H12Y17457   3.559   4.973   8.959 -0.6276 -1.9349 -4.0302
  156SAPE  C31317458   3.459   4.785   8.902  0.4840 -0.4212 -0.5168
  156SAPE  H13X17459   3.350   4.799   8.915  0.6740  0.2920  0.3700
  156SAPE  H13Y17460   3.466   4.680   8.938  0.4631  0.2590  1.6285
  156SAPE  C31417461   3.516   4.784   8.754  0.3286 -0.1904  0.0294
  156SAPE  H14X17462   3.625   4.762   8.756 -0.1387 -2.7881  0.6275
  156SAPE  H14Y17463   3.486   4.884   8.716 -1.7812  0.0238  2.0404
  156SAPE  C31517464   3.447   4.677   8.670  0.1336 -0.2542  0.7383
  156SAPE  H15X17465   3.473   4.577   8.712 -0.1995 -0.2654  0.9198
  156SAPE  H15Y17466   3.490   4.674   8.568 -0.3737 -1.2400  0.5313
  156SAPE  C31617467   3.295   4.700   8.652 -0.5090  0.0361 -0.4754
  156SAPE  H16X17468   3.278   4.799   8.605  3.6190  0.9778 -0.3659
  156SAPE  H16Y17469   3.241   4.706   8.749  0.5162 -1.1655  0.2158
  156SAPE  C31717470   3.214   4.586   8.584  0.1681  0.3751  0.5520
  156SAPE  H17X17471   3.106   4.610   8.587 -1.3377 -4.9577 -1.0790
  156SAPE  H17Y17472   3.244   4.492   8.635 -1.0337 -1.7862 -2.4305
  156SAPE  C31817473   3.266   4.557   8.437 -0.3898  0.6535 -0.2229
  156SAPE  H18X17474   3.277   4.656   8.388  0.8495 -0.6178 -2.6932
  156SAPE  H18Y17475   3.187   4.503   8.381 -2.2202  2.4904  0.4611
  156SAPE  H18Z17476   3.362   4.501   8.436 -1.0433 -0.5304  0.8772
  157SAPE     N17477   3.229   4.766  10.735 -0.1175  0.2259 -0.6257
  157SAPE   HN117478   3.319   4.755  10.786  0.0754  1.2958 -0.6998
  157SAPE   HN217479   3.202   4.867  10.739 -1.6952 -0.1749 -0.2957
  157SAPE   HN317480   3.152   4.714  10.781  2.9299 -2.4604  1.8475
  157SAPE   C1217481   3.240   4.714  10.600 -0.5537  0.1384  0.1593
  157SAPE  H12A17482   3.155   4.755  10.541  0.9737  3.1343 -0.1333
  157SAPE  H12B17483   3.251   4.604  10.609 -0.3523  0.1595  0.1807
  157SAPE   C1117484   3.380   4.750  10.532  0.0520  0.1214  0.8488
  157SAPE  H11A17485   3.350   4.796  10.436 -0.1948 -1.3864  0.1784
  157SAPE  H11B17486   3.434   4.654  10.518 -2.3993 -1.0749 -1.2315
  157SAPE     P17487   3.508   4.973  10.563 -0.3665 -0.1398  0.0694
  157SAPE   O1317488   3.403   5.080  10.587 -0.0165  0.4672  0.1561
  157SAPE   O1417489   3.634   4.997  10.632 -0.0610  0.2053  0.4573
  157SAPE   O1217490   3.454   4.836  10.616 -0.1221 -0.3710  0.3658
  157SAPE   O1117491   3.525   4.935  10.409  0.0967 -0.1238  0.4512
  157SAPE    C117492   3.526   5.031  10.302 -0.4352 -0.4739 -0.0942
  157SAPE    HA17493   3.508   5.131  10.349  2.4050 -0.2211  0.6442
  157SAPE    HB17494   3.623   5.030  10.248  0.2155 -0.6976  1.0328
  157SAPE    C217495   3.413   5.017  10.198  0.0901 -0.0113  0.0316
  157SAPE    HS17496   3.414   5.090  10.114  0.8002 -1.4198 -1.2328
  157SAPE   O2117497   3.285   5.028  10.262 -0.0097  0.1867 -0.5933
  157SAPE   C2117498   3.245   5.150  10.279 -0.0943  0.8021 -0.8889
  157SAPE   O2217499   3.309   5.252  10.258  0.3697 -0.2707 -0.3601
  157SAPE   C2217500   3.105   5.157  10.346 -0.1497 -0.1880 -0.1581
  157SAPE   H2R17501   3.105   5.113  10.448  2.4103  0.8511  0.3607
  157SAPE   H2S17502   3.080   5.265  10.356 -2.4192 -0.6755  0.0567
  157SAPE    C317503   3.403   4.871  10.132  0.4666 -0.6950 -0.0951
  157SAPE    HX17504   3.384   4.805  10.219 -2.0909  1.3718  1.0455
  157SAPE    HY17505   3.504   4.853  10.090  0.2581  0.5899 -1.2338
  157SAPE   O3117506   3.300   4.868  10.031 -0.4965 -0.0625 -0.3265
  157SAPE   C3117507   3.304   4.755   9.956  0.6161  0.5841 -0.3993
  157SAPE   O3217508   3.389   4.670   9.968 -0.7018  1.1888  0.4236
  157SAPE   C3217509   3.188   4.751   9.865 -0.0091  0.0514  0.3822
  157SAPE   H2X17510   3.106   4.781   9.933 -0.9208  0.0287 -0.6838
  157SAPE   H2Y17511   3.169   4.649   9.827  2.3649 -0.5993  0.7789
  157SAPE   C2317512   2.988   5.090  10.263 -0.9357  0.4023 -0.3825
  157SAPE   H3R17513   2.896   5.087  10.325 -0.7706  1.7311 -0.0388
  157SAPE   H3S17514   3.029   4.988  10.250 -0.9739  0.1232  1.4711
  157SAPE   C2417515   2.951   5.160  10.134 -0.9841  1.0105  0.4972
  157SAPE   H4R17516   3.005   5.119  10.045 -0.6649  2.5874 -0.0687
  157SAPE   H4S17517   2.992   5.263  10.136  4.4552 -0.7057 -1.8372
  157SAPE   C2517518   2.812   5.150  10.094  0.0323 -0.3557 -0.2020
  157SAPE   H5R17519   2.736   5.176  10.169  0.4380  0.8182 -0.1774
  157SAPE   C2617520   2.754   5.087   9.989  0.1968  0.4734 -0.1812
  157SAPE   H6R17521   2.647   5.091   9.965 -0.0949 -2.1976  0.4458
  157SAPE   C2717522   2.816   5.009   9.877 -0.4211 -0.2409 -0.4906
  157SAPE   H7R17523   2.924   4.994   9.897 -0.4447  0.0358 -0.1368
  157SAPE   H7S17524   2.808   5.066   9.782  0.4519 -2.1822 -1.7962
  157SAPE   C2817525   2.754   4.868   9.863  0.4324 -0.1047 -0.9227
  157SAPE   H8R17526   2.809   4.788   9.914  0.3936  0.5328  0.1469
  157SAPE   C2917527   2.626   4.850   9.823 -0.5003 -0.1758  0.1266
  157SAPE   H9R17528   2.592   4.746   9.823  1.7309 -0.9760  1.5720
  157SAPE  C21017529   2.522   4.953   9.767 -0.1801  0.2442 -0.4374
  157SAPE  H10R17530   2.569   5.052   9.745 -0.4829  0.3262 -0.7195
  157SAPE  H10S17531   2.458   4.993   9.849 -0.0950 -2.5419  1.0873
  157SAPE  C21117532   2.413   4.898   9.672  0.2729  0.5880  0.4766
  157SAPE  H11R17533   2.314   4.898   9.719  0.5176  0.9948  1.0153
  157SAPE  C21217534   2.431   4.853   9.545 -0.2206 -0.1729  0.3888
  157SAPE  H12R17535   2.339   4.813   9.498 -0.3016 -1.6828  1.7661
  157SAPE  C21317536   2.553   4.844   9.448  0.1509 -0.4481 -0.3116
  157SAPE  H13R17537   2.552   4.741   9.407 -1.9975 -0.4527 -0.3417
  157SAPE  H13S17538   2.650   4.855   9.501 -0.2605 -0.5250  0.4600
  157SAPE  C21417539   2.554   4.955   9.351 -0.0537  0.5181 -0.0377
  157SAPE  H14R17540   2.601   5.046   9.391  1.1916 -1.1426  2.5922
  157SAPE  C21517541   2.498   4.947   9.230 -0.1581  0.6320  0.0389
  157SAPE  H15R17542   2.492   5.043   9.176 -1.8676  0.6463  0.2193
  157SAPE  C21617543   2.419   4.829   9.163 -0.2336 -0.0744 -0.8458
  157SAPE  H16R17544   2.447   4.726   9.195  1.4002  0.3040 -0.9789
  157SAPE  H16S17545   2.431   4.836   9.053 -2.4589 -2.8815 -1.3828
  157SAPE  C21717546   2.270   4.850   9.195 -0.6619 -0.1736  0.3634
  157SAPE  H17R17547   2.241   4.956   9.179  0.7198  0.3884  1.3903
  157SAPE  H17S17548   2.256   4.827   9.303  2.1630  0.7977  1.0025
  157SAPE  C21817549   2.185   4.765   9.103 -0.9613  0.5558 -0.3191
  157SAPE  H18R17550   2.231   4.768   9.002  2.5204  1.2667  1.1461
  157SAPE  H18S17551   2.088   4.819   9.105 -1.4163  0.0892 -3.6605
  157SAPE  C21917552   2.158   4.617   9.147 -0.2466 -0.3654 -0.3940
  157SAPE  H19R17553   2.111   4.620   9.247  2.3467  2.4034  0.8906
  157SAPE  H19S17554   2.256   4.571   9.167  0.3957  1.5008  1.0675
  157SAPE  C22017555   2.086   4.536   9.039 -0.4082 -0.0375 -0.4731
  157SAPE  H20R17556   2.071   4.426   9.050  0.9437 -0.2259 -0.4285
  157SAPE  H20S17557   2.141   4.534   8.942  0.5628 -1.0722  0.0879
  157SAPE  H20T17558   1.987   4.580   9.015 -0.1095  0.3518 -1.0120
  157SAPE   C3317559   3.201   4.860   9.751  0.3216  0.1223 -0.5560
  157SAPE   H3X17560   3.297   4.847   9.695  1.6070 -0.2250  1.6137
  157SAPE   H3Y17561   3.211   4.961   9.796 -1.2076  0.5854 -1.1991
  157SAPE   C3417562   3.093   4.877   9.644 -0.2431  0.4708 -0.2827
  157SAPE   H4X17563   3.088   4.983   9.613 -0.7076  0.1689 -1.2865
  157SAPE   H4Y17564   2.997   4.850   9.694  0.7263 -0.9672  0.8919
  157SAPE   C3517565   3.119   4.791   9.514 -0.4106  0.7207 -0.0642
  157SAPE   H5X17566   3.095   4.685   9.536  1.5018 -0.0423 -1.3839
  157SAPE   H5Y17567   3.229   4.781   9.507 -0.5455 -0.1177 -1.3892
  157SAPE   C3617568   3.068   4.855   9.395  0.6075  0.0909 -0.2589
  157SAPE   H6X17569   3.099   4.961   9.407  0.4833  0.5279 -2.9968
  157SAPE   H6Y17570   2.957   4.853   9.392  0.5072  2.4925 -1.2251
  157SAPE   C3717571   3.116   4.804   9.261 -0.3899  0.5727  0.1420
  157SAPE   H7X17572   3.112   4.693   9.260 -0.9799  0.5859 -0.5815
  157SAPE   H7Y17573   3.223   4.831   9.268 -0.4779  0.7347  0.9006
  157SAPE   C3817574   3.050   4.871   9.137 -0.1102 -0.2664  0.4427
  157SAPE   H8X17575   3.115   4.840   9.053  0.6987  2.4179 -0.0022
  157SAPE   H8Y17576   3.066   4.981   9.143 -1.3800 -0.1431  3.4253
  157SAPE   C3917577   2.893   4.864   9.131 -0.3163 -0.0551  0.3558
  157SAPE   H9X17578   2.884   4.915   9.033 -1.3867  1.6638  1.2819
  157SAPE   H9Y17579   2.850   4.924   9.215 -2.0518  0.5031 -0.8724
  157SAPE  C31017580   2.830   4.732   9.114  0.0658 -0.6796 -0.1059
  157SAPE  H10X17581   2.722   4.751   9.096 -0.0316 -0.8317  0.2965
  157SAPE  H10Y17582   2.833   4.669   9.206  1.0984 -1.5342 -0.7018
  157SAPE  C31117583   2.881   4.664   8.989  0.0524  0.1312 -0.5410
  157SAPE  H11X17584   2.990   4.646   9.003  0.0063  1.0621  1.3028
  157SAPE  H11Y17585   2.879   4.738   8.906 -0.3608 -1.1467 -1.7040
  157SAPE  C31217586   2.797   4.549   8.940 -0.5707  0.3882 -0.1825
  157SAPE  H12X17587   2.786   4.491   9.034 -1.6603  1.4210  0.3526
  157SAPE  H12Y17588   2.872   4.496   8.878 -1.7864  1.0263 -2.2900
  157SAPE  C31317589   2.664   4.577   8.868  0.1709 -0.3300  0.6781
  157SAPE  H13X17590   2.594   4.630   8.936 -1.5541 -0.4071 -0.9672
  157SAPE  H13Y17591   2.617   4.478   8.847  1.0997 -1.2653  2.7180
  157SAPE  C31417592   2.691   4.666   8.743 -0.4800  0.3580 -0.4155
  157SAPE  H14X17593   2.783   4.638   8.687 -0.8270  1.0225 -1.3434
  157SAPE  H14Y17594   2.717   4.773   8.760  0.1205  0.4916 -2.0386
  157SAPE  C31517595   2.566   4.649   8.647 -0.2570 -0.0468 -0.3590
  157SAPE  H15X17596   2.467   4.655   8.695 -1.3424 -1.0996 -2.3434
  157SAPE  H15Y17597   2.568   4.545   8.606 -0.7312 -0.3104  0.2823
  157SAPE  C31617598   2.564   4.749   8.528  0.2199  0.4142 -0.0649
  157SAPE  H16X17599   2.663   4.749   8.478  1.3069  3.2559  1.8615
  157SAPE  H16Y17600   2.543   4.855   8.554  0.3406  0.7160 -1.1433
  157SAPE  C31717601   2.453   4.713   8.421  0.1164  0.8374 -0.1978
  157SAPE  H17X17602   2.354   4.742   8.461 -0.6970  0.2074 -1.6847
  157SAPE  H17Y17603   2.462   4.604   8.402  1.7836  0.5013  2.0451
  157SAPE  C31817604   2.460   4.788   8.290 -0.3953 -0.3229 -0.0561
  157SAPE  H18X17605   2.395   4.743   8.213 -1.7749  2.2734 -0.5358
  157SAPE  H18Y17606   2.560   4.781   8.241 -0.6325 -0.6741 -0.4910
  157SAPE  H18Z17607   2.420   4.887   8.321  0.7430  0.0036  0.4156
  158SAPE     N17608   4.944   5.814  10.173 -0.5457 -0.6109 -0.5114
  158SAPE   HN117609   5.033   5.764  10.150  0.3676 -0.4295  2.2300
  158SAPE   HN217610   4.862   5.769  10.128 -0.7822 -0.7973  0.1018
  158SAPE   HN317611   4.962   5.911  10.138  0.9958  0.5679  3.0420
  158SAPE   C1217612   4.933   5.819  10.322 -0.4493  0.9170 -0.1541
  158SAPE  H12A17613   4.865   5.905  10.339 -1.4977  0.0588  0.0845
  158SAPE  H12B17614   5.030   5.829  10.376  0.4595 -1.4432 -1.2031
  158SAPE   C1117615   4.863   5.689  10.362 -0.5989  0.0025  0.2118
  158SAPE  H11A17616   4.765   5.672  10.312  0.5672  1.2160 -2.6574
  158SAPE  H11B17617   4.838   5.672  10.469 -1.6489 -0.2992 -0.0698
  158SAPE     P17618   5.041   5.490  10.412  0.0133  0.2092 -0.4862
  158SAPE   O1317619   5.146   5.554  10.486  0.3255 -0.2742  0.1564
  158SAPE   O1417620   4.942   5.409  10.487  0.8290 -0.6690  0.0625
  158SAPE   O1217621   4.961   5.584  10.324 -0.0083 -0.0253  0.0641
  158SAPE   O1117622   5.104   5.391  10.312 -0.7984  0.3282 -0.2135
  158SAPE    C117623   5.179   5.429  10.194  0.0222  1.0261  0.3177
  158SAPE    HA17624   5.235   5.524  10.208  0.4975  1.2197 -2.3369
  158SAPE    HB17625   5.251   5.347  10.173 -1.4444 -0.1360 -0.4179
  158SAPE    C217626   5.089   5.446  10.059  0.2602 -0.1840 -0.2475
  158SAPE    HS17627   5.003   5.511  10.084 -1.3659 -1.5789 -1.9366
  158SAPE   O2117628   5.039   5.319  10.001 -0.8129 -0.4998  0.1025
  158SAPE   C2117629   4.908   5.311   9.978 -0.0317 -0.0809 -0.3751
  158SAPE   O2217630   4.829   5.402   9.958 -0.5401  0.1094 -0.3450
  158SAPE   C2217631   4.861   5.167   9.978  0.7410  0.6962 -0.4114
  158SAPE   H2R17632   4.918   5.107   9.904  2.9208  1.3129  0.7111
  158SAPE   H2S17633   4.865   5.129  10.082 -0.6348 -0.2826 -0.6864
  158SAPE    C317634   5.169   5.515   9.950  0.0112  0.2260 -0.0404
  158SAPE    HX17635   5.261   5.454   9.935 -0.2862 -0.4795  0.9255
  158SAPE    HY17636   5.191   5.616   9.990 -3.0580 -0.2163  3.3011
  158SAPE   O3117637   5.100   5.536   9.824 -0.5839  0.1235 -0.2082
  158SAPE   C3117638   4.992   5.620   9.828  0.2593  0.3518 -0.4838
  158SAPE   O3217639   4.963   5.693   9.921 -0.3577 -0.1603  0.3842
  158SAPE   C3217640   4.913   5.621   9.701 -0.3620 -0.4247  0.2574
  158SAPE   H2X17641   4.966   5.678   9.622  2.0435 -2.3364  0.3656
  158SAPE   H2Y17642   4.812   5.667   9.713 -0.3666 -0.0540 -1.0986
  158SAPE   C2317643   4.705   5.154   9.934 -0.1158  0.1732 -0.7326
  158SAPE   H3R17644   4.694   5.233   9.857  2.0207  3.4907  2.0718
  158SAPE   H3S17645   4.637   5.194  10.012 -0.1502  1.2860 -1.3128
  158SAPE   C2417646   4.665   5.018   9.868  0.6748 -0.2537  0.4569
  158SAPE   H4R17647   4.738   4.990   9.789 -1.2268  1.3057 -2.0005
  158SAPE   H4S17648   4.568   5.037   9.816 -0.4395 -2.1953  1.6938
  158SAPE   C2517649   4.649   4.915   9.977  0.1824 -0.6039  0.1931
  158SAPE   H5R17650   4.665   4.948  10.081 -1.5017 -1.4050  0.7266
  158SAPE   C2617651   4.602   4.793   9.953  0.4382 -0.1271  0.5457
  158SAPE   H6R17652   4.596   4.720  10.035 -4.3022  0.9310  1.3955
  158SAPE   C2717653   4.543   4.756   9.818  0.1602 -0.3235  0.0892
  158SAPE   H7R17654   4.601   4.667   9.785  0.3215 -0.1602 -0.0732
  158SAPE   H7S17655   4.550   4.835   9.740  0.4621  1.0950  1.4961
  158SAPE   C2817656   4.399   4.713   9.824 -0.4135  0.5157  0.1849
  158SAPE   H8R17657   4.361   4.706   9.927 -0.5177  0.1556  0.1237
  158SAPE   C2917658   4.322   4.670   9.718  0.6553 -0.2310 -0.1067
  158SAPE   H9R17659   4.219   4.643   9.744  0.6016 -0.0803 -0.1606
  158SAPE  C21017660   4.366   4.661   9.575  0.0868  0.5361  0.2625
  158SAPE  H10R17661   4.472   4.691   9.556  0.7513 -1.1132  1.1946
  158SAPE  H10S17662   4.313   4.734   9.510 -0.6288  0.0244  0.2627
  158SAPE  C21117663   4.353   4.525   9.508  0.5891 -0.2946 -0.2539
  158SAPE  H11R17664   4.371   4.442   9.578 -1.8143  0.8490  1.8965
  158SAPE  C21217665   4.320   4.496   9.378 -0.2142  0.9083 -0.2111
  158SAPE  H12R17666   4.312   4.388   9.358  0.8104  0.6667  0.6122
  158SAPE  C21317667   4.295   4.594   9.264 -0.1905 -0.3463 -0.0995
  158SAPE  H13R17668   4.295   4.702   9.290 -0.4905 -0.2069 -0.6722
  158SAPE  H13S17669   4.195   4.572   9.221 -0.8367 -2.4802  2.2440
  158SAPE  C21417670   4.403   4.580   9.156  0.2305  0.1594 -0.3927
  158SAPE  H14R17671   4.457   4.484   9.161  0.6298  0.4025  0.1697
  158SAPE  C21517672   4.441   4.675   9.065  0.1331  0.2768  0.7594
  158SAPE  H15R17673   4.531   4.666   9.002 -2.8776 -0.0385 -4.0364
  158SAPE  C21617674   4.375   4.810   9.047 -0.6863 -0.7434 -0.2680
  158SAPE  H16R17675   4.274   4.813   9.092 -0.0529  0.1289  1.2058
  158SAPE  H16S17676   4.367   4.839   8.940  0.6963  1.7714  0.2277
  158SAPE  C21717677   4.465   4.912   9.113 -0.8393 -0.6280 -0.0706
  158SAPE  H17R17678   4.414   5.009   9.095  0.2689 -0.2391 -1.1894
  158SAPE  H17S17679   4.570   4.910   9.078  0.0099  1.0967  2.1389
  158SAPE  C21817680   4.453   4.905   9.265 -0.1687  0.1210 -0.6169
  158SAPE  H18R17681   4.498   4.809   9.298 -2.5573 -0.8088  0.1594
  158SAPE  H18S17682   4.346   4.893   9.291  0.4139 -1.7057  1.1993
  158SAPE  C21917683   4.516   5.026   9.339 -0.2029 -0.8055 -0.3412
  158SAPE  H19R17684   4.465   5.123   9.320  0.0106 -0.9298 -1.6477
  158SAPE  H19S17685   4.615   5.041   9.290 -1.3131  3.3765 -1.7315
  158SAPE  C22017686   4.554   4.997   9.481 -0.6731  0.3355  0.0167
  158SAPE  H20R17687   4.558   5.083   9.551  0.4059  0.4300 -0.1421
  158SAPE  H20S17688   4.657   4.956   9.494 -0.2650  1.2851 -0.1488
  158SAPE  H20T17689   4.488   4.915   9.517  1.3850 -2.5427 -2.2863
  158SAPE   C3317690   4.892   5.483   9.630 -0.1614  0.6096 -1.2881
  158SAPE   H3X17691   4.943   5.401   9.685  0.6383  0.3173 -2.4273
  158SAPE   H3Y17692   4.917   5.487   9.522 -0.9642 -1.0959 -1.5715
  158SAPE   C3417693   4.748   5.453   9.622  0.2448  0.1903  0.0500
  158SAPE   H4X17694   4.690   5.540   9.583 -0.4435 -0.3864 -0.2522
  158SAPE   H4Y17695   4.724   5.452   9.731  3.3089  1.5710  0.8503
  158SAPE   C3517696   4.709   5.319   9.559  0.1603  0.1428 -0.1184
  158SAPE   H5X17697   4.607   5.289   9.590  1.6819 -1.8814  3.5977
  158SAPE   H5Y17698   4.770   5.241   9.609 -1.5118 -0.2363  1.4299
  158SAPE   C3617699   4.720   5.317   9.411  0.7842 -0.6676 -0.1416
  158SAPE   H6X17700   4.671   5.225   9.375 -1.2285 -0.4469  1.8463
  158SAPE   H6Y17701   4.827   5.304   9.385  2.0897  0.7952  3.6844
  158SAPE   C3717702   4.653   5.442   9.356  0.0599 -0.6182  0.2998
  158SAPE   H7X17703   4.714   5.533   9.372  0.5206 -0.9150  0.2288
  158SAPE   H7Y17704   4.564   5.474   9.416 -0.2151  1.5822 -1.1352
  158SAPE   C3817705   4.591   5.429   9.211 -0.7278 -0.1654 -0.1509
  158SAPE   H8X17706   4.547   5.531   9.209  1.1720  0.7116  0.3365
  158SAPE   H8Y17707   4.517   5.346   9.212  0.1568 -1.0055  1.5765
  158SAPE   C3917708   4.686   5.410   9.097  0.2440  0.5604  0.0567
  158SAPE   H9X17709   4.730   5.308   9.100 -1.5723 -0.2395  0.2481
  158SAPE   H9Y17710   4.767   5.486   9.102 -0.5941  1.5085 -0.4687
  158SAPE  C31017711   4.612   5.419   8.969 -0.2934 -0.0416 -0.1136
  158SAPE  H10X17712   4.680   5.417   8.882 -1.6858  1.2959 -1.2963
  158SAPE  H10Y17713   4.568   5.521   8.959  1.4349  1.0782  2.5644
  158SAPE  C31117714   4.492   5.324   8.938 -0.4072 -0.4954  0.3024
  158SAPE  H11X17715   4.402   5.376   8.978  0.1783  1.3295 -0.6528
  158SAPE  H11Y17716   4.515   5.231   8.994  2.5050 -1.1040 -1.6846
  158SAPE  C31217717   4.467   5.314   8.784  0.7286  0.8374  0.0595
  158SAPE  H12X17718   4.549   5.258   8.735 -1.7050 -5.1568  1.9371
  158SAPE  H12Y17719   4.458   5.412   8.733 -0.7263  0.5755 -0.2339
  158SAPE  C31317720   4.337   5.228   8.751 -0.7827 -0.3292 -0.6155
  158SAPE  H13X17721   4.248   5.282   8.790  0.2353  1.1513 -0.2570
  158SAPE  H13Y17722   4.349   5.138   8.816  0.7713  1.5736  1.9151
  158SAPE  C31417723   4.319   5.190   8.595  0.9029 -0.0150  0.4006
  158SAPE  H14X17724   4.410   5.136   8.561  0.6388 -0.1258 -0.1295
  158SAPE  H14Y17725   4.324   5.287   8.540 -0.9589  1.3268  2.4196
  158SAPE  C31517726   4.189   5.119   8.568 -0.3992 -0.2783 -0.0233
  158SAPE  H15X17727   4.182   5.018   8.615 -2.1721  0.5610  1.6452
  158SAPE  H15Y17728   4.198   5.093   8.460 -0.3466 -2.6269  0.4784
  158SAPE  C31617729   4.063   5.193   8.592  0.1140 -0.5366 -0.3603
  158SAPE  H16X17730   4.079   5.291   8.543  1.8085 -0.9236 -0.6295
  158SAPE  H16Y17731   4.047   5.208   8.701 -1.0072 -1.3201 -0.3948
  158SAPE  C31717732   3.938   5.115   8.534 -0.1443  0.4352 -0.2472
  158SAPE  H17X17733   3.927   5.120   8.424 -2.1668  2.5146 -0.0352
  158SAPE  H17Y17734   3.853   5.178   8.569  0.7221  1.3733  0.2535
  158SAPE  C31817735   3.924   4.977   8.582 -0.2942 -0.3154 -0.0388
  158SAPE  H18X17736   3.940   4.971   8.692  1.2623  1.7572 -0.0903
  158SAPE  H18Y17737   3.993   4.903   8.538 -0.0616  0.6704 -1.3882
  158SAPE  H18Z17738   3.822   4.951   8.545 -0.4996  0.2218  0.1318
  159SAPE     N17739   3.843   1.384   6.513  0.9231 -0.3215 -0.1827
  159SAPE   HN117740   3.942   1.354   6.508  1.5260  1.4284  0.3225
  159SAPE   HN217741   3.843   1.461   6.583 -0.7982 -0.9972  0.6031
  159SAPE   HN317742   3.784   1.307   6.549 -1.8571  2.9723  3.1642
  159SAPE   C1217743   3.791   1.430   6.378 -0.1434 -0.5564  0.3309
  159SAPE  H12A17744   3.680   1.438   6.389 -0.0340 -1.8968  3.7989
  159SAPE  H12B17745   3.822   1.349   6.309 -1.6036 -0.0158 -1.0242
  159SAPE   C1117746   3.868   1.554   6.322 -0.6254 -0.1691 -0.1133
  159SAPE  H11A17747   3.805   1.580   6.235  0.0633 -3.4079 -1.7306
  159SAPE  H11B17748   3.962   1.507   6.287 -1.0904 -1.6371  0.5131
  159SAPE     P17749   3.773   1.772   6.446 -0.0774  0.4741  0.4026
  159SAPE   O1317750   3.795   1.876   6.344 -0.5076 -0.3148  0.3123
  159SAPE   O1417751   3.636   1.710   6.436 -0.7130 -0.4367 -0.2746
  159SAPE   O1217752   3.881   1.656   6.423 -0.2801 -0.2486  0.0521
  159SAPE   O1117753   3.800   1.825   6.594 -0.7538  0.0157  0.2587
  159SAPE    C117754   3.737   1.938   6.652 -0.1554  0.1259  0.4146
  159SAPE    HA17755   3.636   1.957   6.608 -0.6150 -1.2761  0.8222
  159SAPE    HB17756   3.724   1.927   6.762 -1.7083  2.7685  0.5911
  159SAPE    C217757   3.827   2.069   6.655  0.0800  0.3261 -0.1631
  159SAPE    HS17758   3.838   2.109   6.552 -0.8580  0.0370 -0.3837
  159SAPE   O2117759   3.947   2.038   6.716  0.4950 -0.5684  0.0349
  159SAPE   C2117760   4.039   1.978   6.649  0.7223 -0.0774  0.1327
  159SAPE   O2217761   4.041   1.971   6.528 -0.9494  0.3869  0.1391
  159SAPE   C2217762   4.137   1.908   6.737  0.2689 -0.1634  0.0980
  159SAPE   H2R17763   4.084   1.817   6.774  1.6788 -0.5190  1.3503
  159SAPE   H2S17764   4.228   1.881   6.678 -0.5069  1.1136 -1.7793
  159SAPE    C317765   3.764   2.181   6.740 -0.3028 -0.2976  0.0077
  159SAPE    HX17766   3.682   2.224   6.677  1.0521  1.6092 -0.5586
  159SAPE    HY17767   3.850   2.246   6.765  1.3213 -2.7010  0.9225
  159SAPE   O3117768   3.695   2.128   6.853 -0.5071 -0.5558 -0.0998
  159SAPE   C3117769   3.626   2.216   6.915 -0.8686 -0.4123  0.3168
  159SAPE   O3217770   3.623   2.338   6.887 -0.1978  0.3179 -0.1014
  159SAPE   C3217771   3.553   2.139   7.025 -0.0181  0.4796  0.4785
  159SAPE   H2X17772   3.569   2.029   7.014  0.4386  0.7326 -2.0168
  159SAPE   H2Y17773   3.446   2.163   7.015 -0.2602 -0.5245  0.5250
  159SAPE   C2317774   4.181   1.998   6.852 -0.3514  0.4195 -0.5206
  159SAPE   H3R17775   4.091   2.053   6.885 -0.9394 -0.4114 -0.7192
  159SAPE   H3S17776   4.263   2.064   6.816  1.6044 -0.3494  2.1863
  159SAPE   C2417777   4.225   1.911   6.976 -0.3930 -0.6419 -0.3768
  159SAPE   H4R17778   4.295   1.835   6.934  3.9355  1.2910  2.6342
  159SAPE   H4S17779   4.137   1.857   7.018  1.5068 -1.0726  3.4689
  159SAPE   C2517780   4.301   1.981   7.086 -0.6202  0.9871 -0.2829
  159SAPE   H5R17781   4.343   2.078   7.058 -0.2298  0.6241 -0.9913
  159SAPE   C2617782   4.326   1.928   7.209 -1.3429 -0.0092 -0.0778
  159SAPE   H6R17783   4.390   1.996   7.267 -0.7435 -1.1232  0.6151
  159SAPE   C2717784   4.284   1.796   7.265  0.6520  1.3793  0.2143
  159SAPE   H7R17785   4.223   1.739   7.192  0.8156  3.1065 -1.3145
  159SAPE   H7S17786   4.213   1.821   7.347 -1.1162 -1.1218 -0.4495
  159SAPE   C2817787   4.403   1.723   7.316 -0.4598  0.5392  0.5959
  159SAPE   H8R17788   4.472   1.675   7.246  0.3078  0.8149  1.1531
  159SAPE   C2917789   4.448   1.716   7.442 -0.3110  0.0688  0.5992
  159SAPE   H9R17790   4.552   1.682   7.454 -0.7493 -1.1196  1.2054
  159SAPE  C21017791   4.382   1.780   7.571 -0.1638 -0.0122 -0.2847
  159SAPE  H10R17792   4.349   1.703   7.643  0.6404  0.5133  0.6773
  159SAPE  H10S17793   4.290   1.841   7.556 -0.8268 -0.6401  1.0575
  159SAPE  C21117794   4.493   1.859   7.639 -0.3184  0.4170  0.2786
  159SAPE  H11R17795   4.555   1.926   7.577  1.0069  0.6502  1.7788
  159SAPE  C21217796   4.508   1.872   7.773 -0.2878 -0.7600 -0.0911
  159SAPE  H12R17797   4.606   1.917   7.796  0.2352 -0.5725 -2.3731
  159SAPE  C21317798   4.418   1.813   7.883 -0.1475 -0.6827 -0.3728
  159SAPE  H13R17799   4.478   1.745   7.947 -1.3133 -0.2868  1.1954
  159SAPE  H13S17800   4.338   1.752   7.835 -0.6743  0.0063 -0.3788
  159SAPE  C21417801   4.340   1.911   7.973 -0.4571 -0.9580 -0.0014
  159SAPE  H14R17802   4.330   2.014   7.937 -2.2244 -1.5289 -1.2786
  159SAPE  C21517803   4.263   1.866   8.078  0.3062 -1.0410  0.7945
  159SAPE  H15R17804   4.193   1.935   8.128 -3.2412 -1.2064 -3.3304
  159SAPE  C21617805   4.254   1.731   8.130  0.1198 -0.4598 -0.3570
  159SAPE  H16R17806   4.244   1.662   8.043 -1.7942 -0.5696 -0.1018
  159SAPE  H16S17807   4.170   1.724   8.202  1.9766  1.6512  2.2003
  159SAPE  C21717808   4.372   1.703   8.217 -0.0650 -0.0636 -0.4300
  159SAPE  H17R17809   4.460   1.680   8.154  0.1285 -0.3593 -0.0534
  159SAPE  H17S17810   4.360   1.606   8.269  0.2354  0.2860  0.2954
  159SAPE  C21817811   4.393   1.813   8.322 -0.3255  0.5152  0.4006
  159SAPE  H18R17812   4.299   1.821   8.379  0.0410 -0.2190  1.1314
  159SAPE  H18S17813   4.414   1.910   8.272 -0.5546  0.8524  0.9587
  159SAPE  C21917814   4.506   1.778   8.427  0.1420 -0.2641 -0.0784
  159SAPE  H19R17815   4.602   1.735   8.389 -0.7612 -0.2479 -2.5337
  159SAPE  H19S17816   4.459   1.698   8.487  1.2299 -0.5886  0.3750
  159SAPE  C22017817   4.547   1.887   8.522 -0.3574 -1.2102 -0.4171
  159SAPE  H20R17818   4.471   1.930   8.590  1.5768 -1.9458  2.3678
  159SAPE  H20S17819   4.589   1.969   8.459  2.1567 -1.1303  1.2448
  159SAPE  H20T17820   4.639   1.861   8.578 -1.5969 -0.2375  2.2263
  159SAPE   C3317821   3.594   2.194   7.162 -0.6169  0.7328  0.4689
  159SAPE   H3X17822   3.600   2.305   7.160  1.2032  0.6580 -0.1869
  159SAPE   H3Y17823   3.691   2.147   7.188  0.0365  2.0090  0.4040
  159SAPE   C3417824   3.511   2.138   7.269 -0.3987 -0.9797  0.1483
  159SAPE   H4X17825   3.492   2.030   7.251 -0.0906 -0.7877 -1.5589
  159SAPE   H4Y17826   3.414   2.191   7.269  1.1073  2.0110  0.2020
  159SAPE   C3517827   3.569   2.159   7.408 -1.3788 -0.6490  0.1155
  159SAPE   H5X17828   3.595   2.266   7.422 -0.6017 -0.5837 -1.5750
  159SAPE   H5Y17829   3.661   2.098   7.413  0.1720  1.4670 -0.9076
  159SAPE   C3617830   3.470   2.110   7.512  0.2125  0.5062  0.7109
  159SAPE   H6X17831   3.458   2.001   7.492  0.2501  0.6267  0.0018
  159SAPE   H6Y17832   3.377   2.169   7.499 -0.9884 -1.0629  1.8162
  159SAPE   C3717833   3.516   2.120   7.655 -0.1576  0.1676 -0.3507
  159SAPE   H7X17834   3.512   2.227   7.684 -1.5690  0.7664 -2.5476
  159SAPE   H7Y17835   3.618   2.077   7.661 -1.7142 -3.7257  2.0253
  159SAPE   C3817836   3.431   2.043   7.762 -0.5268 -0.1576 -0.3998
  159SAPE   H8X17837   3.447   1.934   7.752  0.4553 -0.1423  0.6992
  159SAPE   H8Y17838   3.323   2.065   7.755 -0.0215  2.2560 -1.9972
  159SAPE   C3917839   3.477   2.081   7.901 -0.1083 -0.5111 -0.0099
  159SAPE   H9X17840   3.438   2.184   7.918  0.6595  0.0027 -1.2446
  159SAPE   H9Y17841   3.588   2.076   7.908 -0.1915 -1.6740  0.7550
  159SAPE  C31017842   3.412   1.990   8.007  0.4350  0.0351 -0.3195
  159SAPE  H10X17843   3.452   1.886   8.006  0.5890  0.0492  1.2346
  159SAPE  H10Y17844   3.304   1.997   7.982 -0.1346  2.5444  2.3059
  159SAPE  C31117845   3.414   2.035   8.152  0.3891 -0.1009 -0.0850
  159SAPE  H11X17846   3.385   2.141   8.165  2.6721  0.7256 -1.1441
  159SAPE  H11Y17847   3.519   2.020   8.188  0.7105  2.5992  0.3404
  159SAPE  C31217848   3.307   1.958   8.231 -0.2572  0.7622  0.0108
  159SAPE  H12X17849   3.345   1.855   8.216 -0.5023  0.6556  0.1394
  159SAPE  H12Y17850   3.210   1.980   8.182  0.1820 -0.7763 -1.6510
  159SAPE  C31317851   3.310   1.986   8.377  0.6933 -0.4850 -0.2315
  159SAPE  H13X17852   3.285   2.092   8.400 -1.4443 -1.3915  2.0265
  159SAPE  H13Y17853   3.409   1.952   8.416  0.8042 -2.6144 -2.1418
  159SAPE  C31417854   3.202   1.918   8.469  0.5994 -0.4921 -0.2429
  159SAPE  H14X17855   3.207   1.943   8.577  2.4507  1.8405 -0.7838
  159SAPE  H14Y17856   3.217   1.809   8.453  1.7017 -0.6665  1.6521
  159SAPE  C31517857   3.056   1.968   8.439  0.2614 -0.3724 -0.1011
  159SAPE  H15X17858   3.044   1.958   8.329 -1.8988  1.2254 -0.0726
  159SAPE  H15Y17859   3.055   2.077   8.459  0.1151 -0.2839 -0.5678
  159SAPE  C31617860   2.951   1.890   8.523 -0.0990  0.2102 -0.9821
  159SAPE  H16X17861   2.852   1.938   8.507 -0.6009 -0.0743  0.9702
  159SAPE  H16Y17862   2.983   1.900   8.629  0.3389  1.3635 -1.2090
  159SAPE  C31717863   2.943   1.737   8.492 -0.1119  0.6119 -0.0466
  159SAPE  H17X17864   3.037   1.704   8.443  1.0667 -0.2212  2.6089
  159SAPE  H17Y17865   2.860   1.722   8.419 -0.1060  2.4072 -0.4651
  159SAPE  C31817866   2.914   1.649   8.600  0.3923  0.3908 -0.1160
  159SAPE  H18X17867   2.987   1.651   8.683 -0.7668 -0.2513  0.9678
  159SAPE  H18Y17868   2.917   1.541   8.574  1.0497  0.8296 -1.9649
  159SAPE  H18Z17869   2.817   1.667   8.652  0.8230  1.2281  0.4007
  160SAPE     N17870   2.965   1.951   6.083 -0.0274 -0.2256  0.2880
  160SAPE   HN117871   2.867   1.972   6.109  0.5625  3.0335  0.2665
  160SAPE   HN217872   2.955   1.967   5.981 -1.6247 -4.3116 -0.3672
  160SAPE   HN317873   2.996   1.855   6.111 -1.3390 -0.4362  1.1195
  160SAPE   C1217874   3.052   2.046   6.161 -0.3407  0.5182  1.1460
  160SAPE  H12A17875   3.017   2.149   6.139 -3.5803 -0.5471  0.8263
  160SAPE  H12B17876   3.157   2.048   6.125 -0.9778 -0.3397 -0.8644
  160SAPE   C1117877   3.039   2.027   6.315 -0.2077 -0.3309  0.1784
  160SAPE  H11A17878   3.088   2.118   6.355 -0.6563 -0.2355  0.5152
  160SAPE  H11B17879   3.093   1.939   6.356  1.7655  0.2810 -0.9534
  160SAPE     P17880   2.817   2.125   6.434  0.3845 -0.0622  0.1182
  160SAPE   O1317881   2.840   2.256   6.382 -0.1245 -0.5338  0.0670
  160SAPE   O1417882   2.679   2.069   6.443 -0.5026  0.6344  0.1121
  160SAPE   O1217883   2.901   2.022   6.349 -0.2806  0.2334  0.3585
  160SAPE   O1117884   2.892   2.111   6.573 -0.6520  0.7619 -0.1899
  160SAPE    C117885   2.873   2.001   6.667  0.6205  0.6626  0.1521
  160SAPE    HA17886   2.796   2.023   6.744 -1.0393  0.5925 -1.4149
  160SAPE    HB17887   2.854   1.904   6.616  2.1264  0.4310  0.0006
  160SAPE    C217888   2.999   1.987   6.757 -0.6772  0.2979  0.4753
  160SAPE    HS17889   2.979   1.910   6.835 -0.5735 -2.6340 -2.1787
  160SAPE   O2117890   3.044   2.109   6.814  0.5921  0.2778  0.0356
  160SAPE   C2117891   2.968   2.173   6.901 -0.4389 -0.5227 -0.7377
  160SAPE   O2217892   2.860   2.132   6.944 -0.3297 -0.3375  0.4530
  160SAPE   C2217893   3.051   2.283   6.975  0.7133 -0.3095 -0.0249
  160SAPE   H2R17894   3.140   2.224   7.007  0.4799 -1.6065 -1.6108
  160SAPE   H2S17895   3.082   2.358   6.899  0.9408 -0.7709 -0.3986
  160SAPE    C317896   3.119   1.930   6.673 -0.3295  0.1474 -0.1808
  160SAPE    HX17897   3.136   1.999   6.588  1.2613  0.6748  0.5247
  160SAPE    HY17898   3.095   1.830   6.631 -0.1562  0.7337 -1.7045
  160SAPE   O3117899   3.241   1.932   6.746  0.1366  0.4890 -0.5241
  160SAPE   C3117900   3.248   1.834   6.838  1.4327 -0.8056 -0.2510
  160SAPE   O3217901   3.176   1.737   6.844  0.2437  0.2304 -0.0492
  160SAPE   C3217902   3.349   1.869   6.947 -0.5880 -0.1092 -0.2393
  160SAPE   H2X17903   3.363   1.979   6.954 -0.2941 -0.1963  0.5657
  160SAPE   H2Y17904   3.445   1.829   6.909  0.1646  0.0486  1.4276
  160SAPE   C2317905   2.977   2.348   7.094  0.2655  0.1592 -0.1031
  160SAPE   H3R17906   2.958   2.278   7.178 -0.5541  1.7565  1.0894
  160SAPE   H3S17907   2.881   2.394   7.061 -0.4860 -1.2121  0.0772
  160SAPE   C2417908   3.068   2.460   7.155 -0.0230  0.2660 -0.3565
  160SAPE   H4R17909   3.013   2.517   7.233  2.5834 -0.4718  2.1724
  160SAPE   H4S17910   3.092   2.528   7.071  1.2514 -0.6868 -0.7896
  160SAPE   C2517911   3.202   2.414   7.195 -0.1046  0.0533 -0.3730
  160SAPE   H5R17912   3.279   2.410   7.117  0.1119  1.2537 -0.2385
  160SAPE   C2617913   3.239   2.399   7.320  0.2768  0.5335  0.0866
  160SAPE   H6R17914   3.346   2.383   7.338  0.6586  1.2761 -1.4030
  160SAPE   C2717915   3.161   2.418   7.452 -0.1774  0.0108 -0.5767
  160SAPE   H7R17916   3.120   2.321   7.488 -3.2596  1.0456 -1.0364
  160SAPE   H7S17917   3.071   2.482   7.445 -1.0917 -1.3450 -1.8743
  160SAPE   C2817918   3.253   2.483   7.558 -0.0131  0.1544  0.7892
  160SAPE   H8R17919   3.314   2.567   7.523  1.3596 -1.0324  0.2266
  160SAPE   C2917920   3.252   2.449   7.690 -0.1303 -0.0007 -0.1886
  160SAPE   H9R17921   3.324   2.505   7.752  1.9544  0.6326 -2.9782
  160SAPE  C21017922   3.172   2.334   7.751 -0.1972  0.0304  0.2416
  160SAPE  H10R17923   3.212   2.247   7.695  3.1220  2.6519 -1.8774
  160SAPE  H10S17924   3.069   2.347   7.709 -0.5947  1.8184  1.6372
  160SAPE  C21117925   3.172   2.334   7.907 -0.2548  0.4127  0.9369
  160SAPE  H11R17926   3.205   2.429   7.950 -2.3960  1.8886 -0.5074
  160SAPE  C21217927   3.096   2.244   7.972 -1.1418 -0.5675 -0.8275
  160SAPE  H12R17928   3.118   2.238   8.079  0.8807 -3.2502 -1.2927
  160SAPE  C21317929   3.014   2.130   7.910 -0.4296  0.5489  0.4013
  160SAPE  H13R17930   3.068   2.083   7.825  1.0785 -0.2346  1.7419
  160SAPE  H13S17931   2.925   2.164   7.852 -0.1115 -1.0911 -1.1113
  160SAPE  C21417932   2.975   2.028   8.012  0.3368 -0.0955 -0.2360
  160SAPE  H14R17933   3.047   1.948   8.038 -0.1069  0.2585  2.4009
  160SAPE  C21517934   2.875   2.044   8.094  0.2311  0.5275  0.6617
  160SAPE  H15R17935   2.858   1.977   8.179  1.3694  0.7234  1.0714
  160SAPE  C21617936   2.775   2.161   8.094  0.8957 -0.1734 -0.4904
  160SAPE  H16R17937   2.680   2.132   8.045  0.7892 -1.3363  0.3434
  160SAPE  H16S17938   2.805   2.247   8.031 -1.9647 -0.4117 -2.3759
  160SAPE  C21717939   2.753   2.207   8.244  0.9597  0.6859 -0.2193
  160SAPE  H17R17940   2.734   2.114   8.301  1.2139  1.8767  1.9028
  160SAPE  H17S17941   2.659   2.267   8.244 -0.9709 -2.1695  0.2025
  160SAPE  C21817942   2.869   2.276   8.316  0.2813 -0.1638  0.2420
  160SAPE  H18R17943   2.876   2.381   8.281 -0.3547 -0.3365 -0.4335
  160SAPE  H18S17944   2.965   2.232   8.281 -0.1113  0.3700 -1.6469
  160SAPE  C21917945   2.857   2.293   8.464  0.1301 -0.1187 -0.3824
  160SAPE  H19R17946   2.843   2.194   8.513  1.0714 -0.3664 -0.6098
  160SAPE  H19S17947   2.759   2.340   8.490 -1.3661 -3.2451  0.0935
  160SAPE  C22017948   2.978   2.370   8.521 -0.1532  0.1770 -0.0614
  160SAPE  H20R17949   3.007   2.469   8.480 -0.6669  1.4910  2.4973
  160SAPE  H20S17950   3.073   2.315   8.505  0.1429  0.4523  0.7087
  160SAPE  H20T17951   2.968   2.389   8.630 -0.6880 -1.4406  0.1990
  160SAPE   C3317952   3.329   1.816   7.091  0.4581 -0.5781  0.5120
  160SAPE   H3X17953   3.424   1.837   7.144  0.8521  0.5376 -0.5730
  160SAPE   H3Y17954   3.325   1.705   7.093  1.4033 -0.6073  1.5706
  160SAPE   C3417955   3.211   1.876   7.180 -0.4736  0.4061 -0.5843
  160SAPE   H4X17956   3.134   1.799   7.157  1.9515 -2.0363 -1.1271
  160SAPE   H4Y17957   3.187   1.982   7.159 -1.9279  0.5313  1.3959
  160SAPE   C3517958   3.249   1.863   7.327  1.2163 -0.0338 -0.2003
  160SAPE   H5X17959   3.329   1.932   7.360 -0.2951  1.6377  0.1848
  160SAPE   H5Y17960   3.273   1.758   7.352  0.5926 -0.3997 -1.0954
  160SAPE   C3617961   3.126   1.894   7.416  0.0088  0.0216  0.0584
  160SAPE   H6X17962   3.041   1.828   7.389 -0.7829  0.3328  1.7119
  160SAPE   H6Y17963   3.103   2.002   7.417  1.5037  0.3948  2.7757
  160SAPE   C3717964   3.153   1.859   7.565  0.3778 -0.1651  0.0283
  160SAPE   H7X17965   3.073   1.887   7.636 -0.1502 -2.1958  0.3095
  160SAPE   H7Y17966   3.246   1.906   7.603 -1.2152  1.3076  2.3006
  160SAPE   C3817967   3.163   1.705   7.583  0.0829  0.2449 -0.5382
  160SAPE   H8X17968   3.262   1.667   7.551 -0.8317 -2.1701 -0.7535
  160SAPE   H8Y17969   3.097   1.649   7.513  2.4628 -1.0800 -1.8462
  160SAPE   C3917970   3.120   1.666   7.733  0.4819 -0.3568  0.7055
  160SAPE   H9X17971   3.135   1.557   7.749 -1.0333 -0.7362 -0.2710
  160SAPE   H9Y17972   3.010   1.672   7.746  0.2287 -1.9475 -0.3785
  160SAPE  C31017973   3.174   1.740   7.843  0.4475 -0.5472  0.0911
  160SAPE  H10X17974   3.108   1.825   7.870 -1.2745 -1.3284 -1.4728
  160SAPE  H10Y17975   3.274   1.782   7.817 -0.3053 -0.1049 -2.3348
  160SAPE  C31117976   3.205   1.653   7.967 -0.9799  0.1434 -0.0319
  160SAPE  H11X17977   3.242   1.714   8.052  0.7259  2.5529 -2.3548
  160SAPE  H11Y17978   3.283   1.578   7.940 -1.5173 -0.0522 -1.0869
  160SAPE  C31217979   3.087   1.579   8.021 -0.8259  0.3009  0.3930
  160SAPE  H12X17980   3.119   1.514   8.106  0.7145  0.3027 -0.1660
  160SAPE  H12Y17981   3.052   1.502   7.949  1.8794 -1.9513  1.2869
  160SAPE  C31317982   2.983   1.676   8.078 -0.1570  0.2179  0.3892
  160SAPE  H13X17983   2.950   1.744   7.996  4.2037 -1.0097 -2.6890
  160SAPE  H13Y17984   3.038   1.745   8.146  1.1613  0.2116 -0.6447
  160SAPE  C31417985   2.863   1.625   8.156 -0.3763 -0.1546 -0.3554
  160SAPE  H14X17986   2.818   1.718   8.198 -3.6228 -2.0800  0.7858
  160SAPE  H14Y17987   2.895   1.576   8.251  0.1904  0.2876 -0.3121
  160SAPE  C31517988   2.771   1.535   8.078  0.0596 -0.7654 -0.3509
  160SAPE  H15X17989   2.729   1.579   7.985  1.7370 -1.0561 -1.2815
  160SAPE  H15Y17990   2.688   1.519   8.151  0.2025 -0.6231 -0.1570
  160SAPE  C31617991   2.835   1.390   8.057  0.1710  0.1467 -0.5535
  160SAPE  H16X17992   2.908   1.359   8.134 -1.7978  0.4466  1.5398
  160SAPE  H16Y17993   2.874   1.392   7.953  0.4154 -2.8768 -0.5835
  160SAPE  C31717994   2.732   1.273   8.057  0.1349  0.1685 -0.2267
  160SAPE  H17X17995   2.665   1.286   8.145 -1.5248 -3.2187 -0.8254
  160SAPE  H17Y17996   2.779   1.173   8.071  0.3926  0.2747 -0.3300
  160SAPE  C31817997   2.654   1.263   7.932 -0.1328 -0.2019  0.4658
  160SAPE  H18X17998   2.717   1.235   7.845  0.6251  0.4314  0.7981
  160SAPE  H18Y17999   2.630   1.366   7.895  1.1404 -0.4180 -1.0426
  160SAPE  H18Z18000   2.567   1.194   7.930 -1.6340  1.6150 -0.0263
  161SAPE     N18001   4.995   1.461   6.313  0.4038  0.7569  0.2718
  161SAPE   HN118002   5.051   1.404   6.379 -0.6164  0.4677  0.9033
  161SAPE   HN218003   5.047   1.543   6.277 -0.7565  1.2646 -0.3015
  161SAPE   HN318004   4.916   1.495   6.371 -0.4590 -1.7877  0.7375
  161SAPE   C1218005   4.931   1.363   6.216  0.9411 -0.3249 -0.0472
  161SAPE  H12A18006   5.022   1.317   6.173  0.6188 -1.2411  0.2352
  161SAPE  H12B18007   4.881   1.424   6.137  1.7504 -0.4109 -0.6378
  161SAPE   C1118008   4.839   1.254   6.282 -0.2259  0.3091 -0.4637
  161SAPE  H11A18009   4.832   1.176   6.203 -3.2668 -1.1466  1.0741
  161SAPE  H11B18010   4.737   1.294   6.300 -0.6992  1.2686 -4.4119
  161SAPE     P18011   4.914   1.068   6.445 -0.0200 -0.2069 -0.2825
  161SAPE   O1318012   4.781   1.003   6.434  0.0736 -0.3639 -0.1851
  161SAPE   O1418013   5.013   0.992   6.364 -0.2591 -1.0707  0.0725
  161SAPE   O1218014   4.905   1.215   6.405  0.1607 -0.0279  0.7376
  161SAPE   O1118015   4.964   1.069   6.598 -0.2912 -0.0343  0.1814
  161SAPE    C118016   5.021   1.184   6.664 -0.2674 -0.0225  0.1487
  161SAPE    HA18017   5.131   1.187   6.643  0.1937  2.8027  2.3893
  161SAPE    HB18018   4.962   1.272   6.631 -3.4439 -1.9384  0.2858
  161SAPE    C218019   4.989   1.178   6.813 -0.0034 -0.6134  0.2293
  161SAPE    HS18020   5.021   1.277   6.851  2.4460 -0.3667 -2.1631
  161SAPE   O2118021   5.054   1.065   6.865 -0.6158 -0.2694  0.6786
  161SAPE   C2118022   5.095   1.078   6.994  0.3339  0.1335  0.7316
  161SAPE   O2218023   5.114   1.185   7.052 -0.0528  0.2079 -0.4388
  161SAPE   C2218024   5.123   0.936   7.058 -0.8803  0.5224  0.3269
  161SAPE   H2R18025   5.105   0.856   6.982 -0.7322 -0.2410  1.0911
  161SAPE   H2S18026   5.225   0.928   7.099 -1.6803  0.3376  2.3889
  161SAPE    C318027   4.831   1.168   6.843 -0.5816 -0.3516  0.8721
  161SAPE    HX18028   4.783   1.075   6.806 -0.7901  1.4769 -4.1973
  161SAPE    HY18029   4.785   1.250   6.785  0.6013  0.1187  0.5709
  161SAPE   O3118030   4.811   1.178   6.984  0.1768 -0.5539  0.0057
  161SAPE   C3118031   4.778   1.298   7.044  0.9316 -0.0457  0.1374
  161SAPE   O3218032   4.777   1.402   6.975  0.1778 -0.8591 -0.7151
  161SAPE   C3218033   4.731   1.274   7.185 -0.8031  0.2243 -1.5147
  161SAPE   H2X18034   4.823   1.284   7.247 -1.5409 -1.8558  0.0710
  161SAPE   H2Y18035   4.698   1.168   7.199  3.0215 -0.8898  0.4806
  161SAPE   C2318036   5.014   0.892   7.162 -0.3049  0.8892  0.5181
  161SAPE   H3R18037   5.036   0.789   7.198 -1.1736  0.5580  0.1251
  161SAPE   H3S18038   4.910   0.890   7.122 -0.1282  1.0717  0.0504
  161SAPE   C2418039   5.014   0.977   7.287  0.3799 -0.2860  0.3012
  161SAPE   H4R18040   4.916   0.961   7.338 -0.7119  1.1077 -1.2648
  161SAPE   H4S18041   5.011   1.087   7.275 -1.3390 -0.3009  0.3744
  161SAPE   C2518042   5.138   0.951   7.371 -0.4936 -0.6408 -0.6967
  161SAPE   H5R18043   5.236   0.991   7.341  0.8447 -0.3985  3.2784
  161SAPE   C2618044   5.132   0.897   7.495  0.2136 -0.4655 -0.6963
  161SAPE   H6R18045   5.226   0.883   7.551  1.6566  0.3966 -2.7697
  161SAPE   C2718046   5.009   0.855   7.574  0.6413  0.1038  0.3152
  161SAPE   H7R18047   5.045   0.787   7.654 -0.7851 -0.6756  0.3113
  161SAPE   H7S18048   4.938   0.805   7.505  1.0469 -1.7333  1.1512
  161SAPE   C2818049   4.935   0.975   7.631 -0.0168 -0.2984  0.7844
  161SAPE   H8R18050   4.861   1.027   7.569  0.9508 -1.6379 -1.6175
  161SAPE   C2918051   4.945   1.020   7.756  0.6214  0.1550 -0.5765
  161SAPE   H9R18052   4.886   1.105   7.794  0.7089 -0.3840  0.8118
  161SAPE  C21018053   5.036   0.963   7.862 -0.4632 -0.3071  0.0314
  161SAPE  H10R18054   5.053   1.059   7.915 -2.1924  0.6362 -1.0227
  161SAPE  H10S18055   5.133   0.927   7.821 -1.2361 -1.2916 -0.9970
  161SAPE  C21118056   4.984   0.867   7.957  1.1618  0.8357 -0.4063
  161SAPE  H11R18057   4.973   0.767   7.912  0.8041  1.3480 -1.4745
  161SAPE  C21218058   4.941   0.885   8.082  0.2922 -0.9363  0.1054
  161SAPE  H12R18059   4.905   0.801   8.143 -0.8126  0.5453  1.5852
  161SAPE  C21318060   4.929   1.016   8.159 -0.3411  0.4077  0.1489
  161SAPE  H13R18061   4.846   1.003   8.231 -0.4886 -0.7158 -0.1992
  161SAPE  H13S18062   4.907   1.094   8.084 -0.3351 -0.4340 -0.7467
  161SAPE  C21418063   5.066   1.039   8.226  0.3977 -0.2135 -0.2615
  161SAPE  H14R18064   5.147   1.085   8.167  0.1249  1.0047  0.3064
  161SAPE  C21518065   5.107   0.999   8.350 -0.0461 -0.8293 -0.1399
  161SAPE  H15R18066   5.210   1.019   8.384  0.3045  0.2343 -1.7209
  161SAPE  C21618067   5.024   0.925   8.457  0.2685 -0.4459 -0.0852
  161SAPE  H16R18068   5.084   0.839   8.492  0.0365 -0.8253 -0.6066
  161SAPE  H16S18069   4.929   0.881   8.422  0.1943 -0.2845 -0.0865
  161SAPE  C21718070   5.012   1.007   8.589 -0.3082  0.1411  0.4113
  161SAPE  H17R18071   4.962   1.101   8.556 -1.0517 -0.7039 -0.9491
  161SAPE  H17S18072   5.109   1.039   8.635  0.7011  1.0300 -2.1514
  161SAPE  C21818073   4.915   0.940   8.691 -0.0459  0.1797  0.5739
  161SAPE  H18R18074   4.942   0.833   8.681  0.7741  0.4793 -0.5788
  161SAPE  H18S18075   4.806   0.947   8.669 -0.2027 -1.6249  0.6214
  161SAPE  C21918076   4.919   1.007   8.821 -0.7338 -0.2953 -0.5236
  161SAPE  H19R18077   4.899   1.115   8.804  0.5284 -0.1172 -0.9410
  161SAPE  H19S18078   5.019   0.987   8.865 -0.0601  1.8961 -0.9623
  161SAPE  C22018079   4.804   0.960   8.920 -0.3416  0.0111  0.6993
  161SAPE  H20R18080   4.808   1.010   9.019  0.5994 -0.6027  0.9884
  161SAPE  H20S18081   4.826   0.852   8.936  0.5201 -0.1731 -1.3316
  161SAPE  H20T18082   4.705   0.970   8.870  1.0372  0.6281 -2.1028
  161SAPE   C3318083   4.618   1.368   7.233 -0.1581 -1.0666  0.0674
  161SAPE   H3X18084   4.533   1.349   7.163 -0.4396  0.7337 -0.1298
  161SAPE   H3Y18085   4.637   1.477   7.230 -1.3328 -0.8437  0.4882
  161SAPE   C3418086   4.568   1.344   7.375 -0.1282  0.1437  0.6778
  161SAPE   H4X18087   4.521   1.244   7.388 -0.3736  0.1923  0.1954
  161SAPE   H4Y18088   4.481   1.412   7.388 -0.8904 -0.2264 -1.8330
  161SAPE   C3518089   4.675   1.362   7.481  0.5439 -0.8382 -0.3580
  161SAPE   H5X18090   4.718   1.464   7.481 -0.5388 -0.3730  0.2365
  161SAPE   H5Y18091   4.760   1.290   7.479  3.1250  2.0050 -1.9149
  161SAPE   C3618092   4.608   1.351   7.618  0.2303 -0.0521 -0.1221
  161SAPE   H6X18093   4.551   1.256   7.621  0.9164 -0.4722 -0.3090
  161SAPE   H6Y18094   4.526   1.426   7.623  2.1435  2.3365 -1.7131
  161SAPE   C3718095   4.703   1.358   7.738 -0.4859  0.6698 -0.6017
  161SAPE   H7X18096   4.773   1.440   7.708 -0.4320  0.9024  0.1511
  161SAPE   H7Y18097   4.752   1.259   7.746 -3.0312 -0.5247  1.3414
  161SAPE   C3818098   4.631   1.380   7.870  0.2226  0.0906 -0.1421
  161SAPE   H8X18099   4.546   1.312   7.847 -0.2288  1.0252 -1.3595
  161SAPE   H8Y18100   4.587   1.482   7.874 -0.4371 -0.2177  0.6925
  161SAPE   C3918101   4.707   1.351   7.991 -0.5788 -0.1489 -0.2632
  161SAPE   H9X18102   4.737   1.450   8.031  0.5481  0.0417 -1.4998
  161SAPE   H9Y18103   4.796   1.291   7.962  2.3995  0.5898  5.8285
  161SAPE  C31018104   4.628   1.291   8.107  0.0547  0.1477 -0.4325
  161SAPE  H10X18105   4.606   1.186   8.077  1.5659 -0.4508  0.4512
  161SAPE  H10Y18106   4.534   1.349   8.116 -0.7311 -1.1739  0.3015
  161SAPE  C31118107   4.699   1.274   8.246  0.4041  0.2324 -0.3699
  161SAPE  H11X18108   4.807   1.254   8.230  0.3137  0.3318 -1.1638
  161SAPE  H11Y18109   4.652   1.186   8.295  1.0338  0.3936  0.5577
  161SAPE  C31218110   4.659   1.388   8.334  0.3311 -0.4679 -0.4935
  161SAPE  H12X18111   4.643   1.476   8.267 -0.4829 -0.1237  0.1261
  161SAPE  H12Y18112   4.736   1.425   8.406 -2.5058 -1.7772  3.6292
  161SAPE  C31318113   4.528   1.353   8.403  0.3771  0.0407 -0.0906
  161SAPE  H13X18114   4.454   1.320   8.327  1.0106 -0.2140 -0.6162
  161SAPE  H13Y18115   4.491   1.451   8.440  0.1387 -0.1242  0.1099
  161SAPE  C31418116   4.534   1.254   8.518  0.2919  0.0295 -0.2337
  161SAPE  H14X18117   4.607   1.288   8.595 -0.7697  0.5565  0.5724
  161SAPE  H14Y18118   4.574   1.159   8.476  0.9233 -0.0345  0.4858
  161SAPE  C31518119   4.384   1.247   8.574 -0.4387  0.6409 -0.0713
  161SAPE  H15X18120   4.319   1.191   8.503  1.3954 -0.7657 -0.7433
  161SAPE  H15Y18121   4.359   1.353   8.595 -1.3015  0.4889 -0.3070
  161SAPE  C31618122   4.374   1.166   8.707  0.0978 -0.6253  0.1130
  161SAPE  H16X18123   4.476   1.161   8.751  0.2125  0.1816 -0.0472
  161SAPE  H16Y18124   4.346   1.064   8.673 -1.0911 -0.6808  1.2326
  161SAPE  C31718125   4.277   1.219   8.815 -0.1540  0.7413 -0.0898
  161SAPE  H17X18126   4.284   1.329   8.824  1.1515  0.6248  0.4821
  161SAPE  H17Y18127   4.312   1.163   8.904 -1.3433  1.4405  0.8477
  161SAPE  C31818128   4.130   1.197   8.770 -0.1630  0.4434 -1.0510
  161SAPE  H18X18129   4.107   1.255   8.678  0.5567  0.1024 -1.4606
  161SAPE  H18Y18130   4.059   1.227   8.850  0.6433 -0.7966  0.1713
  161SAPE  H18Z18131   4.105   1.090   8.756 -0.2254  0.1638  0.8963
  162SAPE     N18132   2.568   3.130   6.424  0.1525  0.1642  0.1959
  162SAPE   HN118133   2.623   3.178   6.349 -2.5372 -1.9223 -3.4236
  162SAPE   HN218134   2.610   3.131   6.519 -1.8533  1.7856  1.1304
  162SAPE   HN318135   2.560   3.029   6.399  0.2076  0.6473 -2.0481
  162SAPE   C1218136   2.426   3.174   6.438 -0.4559 -0.1474  0.1324
  162SAPE  H12A18137   2.385   3.145   6.537 -1.3312 -0.3465 -0.2710
  162SAPE  H12B18138   2.375   3.108   6.365 -0.1627 -0.6491  0.3795
  162SAPE   C1118139   2.397   3.322   6.402  0.4085  0.4876  0.2819
  162SAPE  H11A18140   2.468   3.386   6.458  0.8520 -3.3134  4.6792
  162SAPE  H11B18141   2.289   3.339   6.421  0.1898 -0.9189  0.4344
  162SAPE     P18142   2.558   3.391   6.196 -0.5740  0.6940  0.4640
  162SAPE   O1318143   2.675   3.316   6.244 -0.6135  0.1265  0.7279
  162SAPE   O1418144   2.541   3.399   6.052 -0.3541 -0.2950  0.3398
  162SAPE   O1218145   2.428   3.332   6.264  0.5265  0.6074  0.6750
  162SAPE   O1118146   2.570   3.534   6.247 -0.4131  0.4823  0.4270
  162SAPE    C118147   2.465   3.629   6.216  0.1996  0.1354 -0.1016
  162SAPE    HA18148   2.485   3.673   6.116 -0.8275 -1.9618 -1.3116
  162SAPE    HB18149   2.363   3.585   6.215  1.1259 -2.3171  1.5683
  162SAPE    C218150   2.460   3.742   6.321  0.2710  0.6564 -1.0045
  162SAPE    HS18151   2.378   3.814   6.301 -0.3379  0.3660  0.3516
  162SAPE   O2118152   2.587   3.807   6.330 -0.0451  0.4471 -0.3395
  162SAPE   C2118153   2.604   3.918   6.262  0.5724  0.3117  0.8811
  162SAPE   O2218154   2.522   3.972   6.196 -0.1530 -0.7580 -0.1398
  162SAPE   C2218155   2.753   3.961   6.274 -0.2041 -0.2112  0.2257
  162SAPE   H2R18156   2.824   3.880   6.304 -2.3439 -1.9756  0.8264
  162SAPE   H2S18157   2.778   3.994   6.171  0.1669  0.1728  0.4384
  162SAPE    C318158   2.420   3.673   6.456 -0.3610  0.1733 -0.0622
  162SAPE    HX18159   2.504   3.606   6.487  0.2063  0.6590 -0.5373
  162SAPE    HY18160   2.335   3.607   6.428 -0.9728  1.9108 -2.6514
  162SAPE   O3118161   2.386   3.762   6.560  0.4962 -0.3166  0.4810
  162SAPE   C3118162   2.490   3.787   6.646  0.0093  0.9986 -0.6734
  162SAPE   O3218163   2.603   3.741   6.634 -0.0009  0.3001 -0.0749
  162SAPE   C3218164   2.449   3.886   6.762  0.2771 -0.1806 -0.0709
  162SAPE   H2X18165   2.363   3.837   6.810 -1.7700 -0.0236 -3.2657
  162SAPE   H2Y18166   2.414   3.979   6.712 -1.1899 -0.8377 -0.2992
  162SAPE   C2318167   2.778   4.088   6.365 -0.1564 -0.6477 -0.2744
  162SAPE   H3R18168   2.726   4.173   6.317  0.6999 -0.3582 -0.7078
  162SAPE   H3S18169   2.888   4.104   6.363  0.3207 -3.2748  0.3432
  162SAPE   C2418170   2.726   4.071   6.509 -0.0831  0.5880  0.2825
  162SAPE   H4R18171   2.772   3.993   6.573  1.9302  1.4766 -0.0188
  162SAPE   H4S18172   2.617   4.047   6.510 -0.5924  2.4417 -1.7883
  162SAPE   C2518173   2.757   4.200   6.579 -0.0237 -0.3236 -0.1999
  162SAPE   H5R18174   2.858   4.241   6.561  0.2284 -0.1453  1.4845
  162SAPE   C2618175   2.678   4.277   6.654  0.2404 -0.1409  0.0436
  162SAPE   H6R18176   2.714   4.371   6.700 -3.0895  1.3906 -0.1852
  162SAPE   C2718177   2.528   4.259   6.683  0.7113  0.6207 -0.5990
  162SAPE   H7R18178   2.529   4.196   6.774 -0.7818  1.7461  0.2409
  162SAPE   H7S18179   2.495   4.190   6.602  0.6863 -1.0764  0.7928
  162SAPE   C2818180   2.445   4.379   6.689 -0.0492 -0.3559 -0.1480
  162SAPE   H8R18181   2.423   4.438   6.598  0.5558  0.9818  0.5469
  162SAPE   C2918182   2.382   4.430   6.798 -0.5041  0.1187  0.0282
  162SAPE   H9R18183   2.311   4.513   6.784 -0.5348  0.7583  3.2208
  162SAPE  C21018184   2.369   4.383   6.940 -0.1754 -0.0980 -0.2190
  162SAPE  H10R18185   2.359   4.273   6.935  1.1886 -0.3527  1.5616
  162SAPE  H10S18186   2.279   4.418   6.995 -0.2090  1.0927 -0.9902
  162SAPE  C21118187   2.493   4.409   7.030  0.3633  0.2399  0.6153
  162SAPE  H11R18188   2.588   4.367   6.994  0.3667  0.7343  0.0342
  162SAPE  C21218189   2.499   4.487   7.141 -0.6696  1.4026 -0.3176
  162SAPE  H12R18190   2.590   4.492   7.204 -0.4503 -0.2854 -0.4708
  162SAPE  C21318191   2.389   4.557   7.215 -0.3944 -0.1848 -0.3604
  162SAPE  H13R18192   2.292   4.567   7.161 -1.4513 -1.8622  1.1129
  162SAPE  H13S18193   2.419   4.661   7.240  0.4227 -0.3400 -0.6402
  162SAPE  C21418194   2.351   4.484   7.339  0.7426  0.1154 -0.4806
  162SAPE  H14R18195   2.304   4.388   7.310  0.6916  0.3851 -1.3281
  162SAPE  C21518196   2.358   4.507   7.468 -0.3176  0.1332 -0.0811
  162SAPE  H15R18197   2.335   4.429   7.543  0.2196 -2.4456 -2.4548
  162SAPE  C21618198   2.407   4.645   7.511  0.3231  0.4650 -0.4115
  162SAPE  H16R18199   2.320   4.702   7.551 -0.5171 -0.4709 -0.8488
  162SAPE  H16S18200   2.447   4.707   7.428 -2.1428  1.1923 -1.1476
  162SAPE  C21718201   2.519   4.635   7.622 -0.4900 -0.9931  0.0441
  162SAPE  H17R18202   2.540   4.742   7.641 -3.4148 -0.3305  0.0981
  162SAPE  H17S18203   2.607   4.587   7.575 -2.2247 -3.1233 -1.2386
  162SAPE  C21818204   2.469   4.588   7.758  0.5593  0.3050  0.1129
  162SAPE  H18R18205   2.415   4.491   7.749  0.2096  0.5247 -0.1882
  162SAPE  H18S18206   2.404   4.668   7.798  1.6098  1.9364 -1.2995
  162SAPE  C21918207   2.562   4.577   7.869  0.1408 -0.5528 -0.1818
  162SAPE  H19R18208   2.602   4.680   7.886 -0.1520 -0.2565 -1.2075
  162SAPE  H19S18209   2.652   4.514   7.851 -0.5611 -1.1497 -1.7729
  162SAPE  C22018210   2.495   4.530   8.004 -0.7116  0.3052  0.6196
  162SAPE  H20R18211   2.557   4.546   8.095  1.7817  0.6224 -1.0343
  162SAPE  H20S18212   2.473   4.422   7.991  0.3269  0.1999 -0.4043
  162SAPE  H20T18213   2.395   4.579   8.014 -0.2725  1.5318 -0.5720
  162SAPE   C3318214   2.557   3.914   6.864  0.1931 -0.5681 -0.0779
  162SAPE   H3X18215   2.635   3.981   6.821 -2.1351  1.2200 -1.7774
  162SAPE   H3Y18216   2.612   3.822   6.893 -1.6798 -1.8720 -0.4882
  162SAPE   C3418217   2.486   3.956   6.993 -0.0141  0.1548 -0.4747
  162SAPE   H4X18218   2.441   3.862   7.031 -0.1896  0.2996 -0.3260
  162SAPE   H4Y18219   2.408   4.029   6.964 -3.4422 -1.6061  3.2728
  162SAPE   C3518220   2.591   4.018   7.091  0.1319 -0.4347 -0.3527
  162SAPE   H5X18221   2.633   4.105   7.036 -0.7100  0.6619  0.6725
  162SAPE   H5Y18222   2.678   3.951   7.105  0.1242 -0.7815 -1.8171
  162SAPE   C3618223   2.528   4.068   7.218  0.0788 -0.2719 -0.1341
  162SAPE   H6X18224   2.463   3.988   7.259 -1.9823  1.7598  0.7142
  162SAPE   H6Y18225   2.479   4.166   7.205  0.3597 -0.0727  0.2947
  162SAPE   C3718226   2.628   4.093   7.327 -0.1326 -0.2235  0.4409
  162SAPE   H7X18227   2.691   4.177   7.291 -1.4034  0.4023 -0.4170
  162SAPE   H7Y18228   2.680   3.995   7.336 -0.6728 -0.6368 -0.7280
  162SAPE   C3818229   2.574   4.137   7.469  0.0505 -0.4755 -0.3502
  162SAPE   H8X18230   2.511   4.054   7.508  2.6544 -1.7836  1.4327
  162SAPE   H8Y18231   2.508   4.225   7.462  0.9755  0.2185 -0.5872
  162SAPE   C3918232   2.686   4.162   7.568 -0.2049  0.4005  0.0868
  162SAPE   H9X18233   2.758   4.239   7.531  0.8216  0.2163  1.5923
  162SAPE   H9Y18234   2.745   4.069   7.578  0.1940  0.7188  0.7659
  162SAPE  C31018235   2.631   4.187   7.707 -0.6920  0.0426 -0.3808
  162SAPE  H10X18236   2.552   4.112   7.724 -1.3912  0.4300 -1.7614
  162SAPE  H10Y18237   2.580   4.286   7.704 -0.4749  0.1715  0.0574
  162SAPE  C31118238   2.734   4.177   7.821  0.3872 -0.3441  0.1553
  162SAPE  H11X18239   2.784   4.275   7.837 -1.4417  0.6594  0.1185
  162SAPE  H11Y18240   2.805   4.094   7.805  1.2062  0.2880  0.4393
  162SAPE  C31218241   2.647   4.138   7.936  1.0776  0.0301 -0.4932
  162SAPE  H12X18242   2.616   4.033   7.917  1.4259  0.0428 -1.1647
  162SAPE  H12Y18243   2.548   4.188   7.937  0.0399 -1.9272  0.0613
  162SAPE  C31318244   2.733   4.136   8.065 -0.0368  0.3619 -0.0132
  162SAPE  H13X18245   2.829   4.093   8.030  1.7734  3.1967  1.1229
  162SAPE  H13Y18246   2.687   4.068   8.139 -0.8889  1.0490  0.1061
  162SAPE  C31418247   2.762   4.279   8.117 -0.0387 -0.2765 -0.5489
  162SAPE  H14X18248   2.670   4.340   8.129  1.7907  2.3431  1.3151
  162SAPE  H14Y18249   2.827   4.334   8.046  3.0255 -1.4578  1.1513
  162SAPE  C31518250   2.853   4.290   8.243 -0.3435  0.0465  0.7067
  162SAPE  H15X18251   2.902   4.389   8.253 -1.1841  0.5687 -0.1973
  162SAPE  H15Y18252   2.934   4.214   8.239 -0.3587 -0.0739  2.0865
  162SAPE  C31618253   2.769   4.273   8.371 -0.7701 -0.0102  0.2449
  162SAPE  H16X18254   2.718   4.177   8.392 -0.1745 -0.4825 -0.4254
  162SAPE  H16Y18255   2.687   4.348   8.365  0.2760  1.3144  1.6227
  162SAPE  C31718256   2.841   4.297   8.499  0.2437  0.0641  0.2342
  162SAPE  H17X18257   2.882   4.401   8.500  0.6981 -0.0658 -1.8956
  162SAPE  H17Y18258   2.935   4.238   8.505  0.5052  0.3910 -0.5494
  162SAPE  C31818259   2.758   4.283   8.627  0.0895  0.1542  0.0973
  162SAPE  H18X18260   2.681   4.363   8.622 -0.7520 -0.5480  1.2545
  162SAPE  H18Y18261   2.825   4.312   8.711 -0.6640  1.8029  0.1691
  162SAPE  H18Z18262   2.720   4.179   8.638 -0.3209  0.2993  0.0902
  163SAPE     N18263   1.906   1.729   6.368 -0.3831 -0.0006  0.0194
  163SAPE   HN118264   1.966   1.645   6.355 -1.5973 -0.9284  0.2221
  163SAPE   HN218265   1.910   1.791   6.285 -0.1776 -0.6971 -0.4946
  163SAPE   HN318266   1.950   1.787   6.443 -2.3144  1.8435 -0.1600
  163SAPE   C1218267   1.791   1.668   6.430  0.1825 -0.7416  0.0819
  163SAPE  H12A18268   1.813   1.561   6.449  0.3157 -0.4433  1.6918
  163SAPE  H12B18269   1.716   1.662   6.348 -0.0515 -0.1538  0.2470
  163SAPE   C1118270   1.760   1.739   6.562  0.5705 -0.4477 -0.9648
  163SAPE  H11A18271   1.832   1.707   6.641 -2.3520 -1.1087  1.6699
  163SAPE  H11B18272   1.658   1.698   6.580  0.3192  0.7948  0.7060
  163SAPE     P18273   1.688   1.964   6.668  0.0473  0.0167 -0.1395
  163SAPE   O1318274   1.742   2.098   6.647 -0.4096 -0.2939 -0.7826
  163SAPE   O1418275   1.542   1.937   6.652 -0.6957 -0.7119  0.3570
  163SAPE   O1218276   1.753   1.881   6.554  0.2640 -0.4708  0.1427
  163SAPE   O1118277   1.750   1.894   6.796  0.1118  0.4740 -0.3894
  163SAPE    C118278   1.882   1.936   6.836 -0.3969  0.0731  0.4704
  163SAPE    HA18279   1.936   1.845   6.869 -0.6293  0.2018  1.2369
  163SAPE    HB18280   1.933   1.980   6.748 -2.7631 -2.3135 -2.3395
  163SAPE    C218281   1.878   2.027   6.961  0.4781  0.4567 -0.1037
  163SAPE    HS18282   1.860   2.129   6.921  1.4404  1.0584  0.9466
  163SAPE   O2118283   1.989   2.017   7.049 -0.3902  0.5437 -0.1172
  163SAPE   C2118284   2.089   2.095   7.025 -0.2387  0.4034 -1.1210
  163SAPE   O2218285   2.088   2.184   6.937 -0.1288 -0.3468 -0.4383
  163SAPE   C2218286   2.195   2.079   7.128 -0.3129  0.3819 -0.0492
  163SAPE   H2R18287   2.147   2.047   7.223  1.2501 -3.0445 -0.2499
  163SAPE   H2S18288   2.258   1.991   7.105  0.8681  0.4929  2.3563
  163SAPE    C318289   1.751   1.998   7.046  0.5171 -0.1576  0.3879
  163SAPE    HX18290   1.748   1.888   7.064 -0.9696 -0.1668  0.1771
  163SAPE    HY18291   1.660   2.025   6.989  1.9449  0.5295 -1.6718
  163SAPE   O3118292   1.761   2.069   7.171 -0.3060 -0.8124  0.4042
  163SAPE   C3118293   1.728   2.196   7.163  0.5247  0.2519 -0.3850
  163SAPE   O3218294   1.699   2.255   7.055 -0.7298 -0.1215  0.7454
  163SAPE   C3218295   1.707   2.266   7.301  0.4958  0.8451 -0.0210
  163SAPE   H2X18296   1.662   2.191   7.371  0.3764  0.8402 -0.1036
  163SAPE   H2Y18297   1.624   2.340   7.294  0.9730  1.3262 -0.6777
  163SAPE   C2318298   2.278   2.209   7.131 -0.9927  1.0645  0.6230
  163SAPE   H3R18299   2.210   2.296   7.118 -3.9513 -1.2304 -0.4682
  163SAPE   H3S18300   2.352   2.211   7.049 -0.7958  0.3159  0.7700
  163SAPE   C2418301   2.351   2.213   7.265 -0.9506 -0.5673  0.3344
  163SAPE   H4R18302   2.451   2.260   7.266 -1.3170  0.2392  1.6944
  163SAPE   H4S18303   2.375   2.107   7.291 -0.0126 -0.5676 -0.5216
  163SAPE   C2518304   2.271   2.281   7.375 -0.1231  0.4757  0.3548
  163SAPE   H5R18305   2.208   2.362   7.337 -1.8272 -0.9883 -0.0731
  163SAPE   C2618306   2.290   2.257   7.504  1.3089 -0.1501 -0.1713
  163SAPE   H6R18307   2.235   2.322   7.574 -0.3686 -0.6315 -0.9972
  163SAPE   C2718308   2.384   2.170   7.579 -0.6334  0.5546 -0.5506
  163SAPE   H7R18309   2.447   2.113   7.507 -0.4775 -0.2681  0.2235
  163SAPE   H7S18310   2.331   2.090   7.634 -0.9087  1.2632  0.2385
  163SAPE   C2818311   2.462   2.254   7.686 -0.2304  0.4106  0.2940
  163SAPE   H8R18312   2.536   2.312   7.629  0.9179  0.7999  2.1004
  163SAPE   C2918313   2.432   2.263   7.820 -0.3575 -0.4026  0.2818
  163SAPE   H9R18314   2.489   2.339   7.877 -1.7995  0.3637  0.7425
  163SAPE  C21018315   2.334   2.184   7.893 -0.0425 -0.2585 -0.4265
  163SAPE  H10R18316   2.372   2.081   7.911  0.4820  0.2201  1.3246
  163SAPE  H10S18317   2.246   2.169   7.827  0.6421 -2.1781 -0.9883
  163SAPE  C21118318   2.294   2.254   8.023 -0.7656 -0.0804  0.8342
  163SAPE  H11R18319   2.360   2.233   8.108 -0.9365  3.1903  1.9089
  163SAPE  C21218320   2.208   2.358   8.023 -0.9080  0.5887 -0.8881
  163SAPE  H12R18321   2.200   2.425   8.110 -0.9290 -0.3660 -0.1316
  163SAPE  C21318322   2.131   2.421   7.911 -0.3366  0.3209  0.2308
  163SAPE  H13R18323   2.024   2.444   7.933 -1.2416 -2.1603 -1.1694
  163SAPE  H13S18324   2.129   2.346   7.829 -0.1485  0.0063  0.5113
  163SAPE  C21418325   2.208   2.546   7.872  0.7368  0.0383  0.2741
  163SAPE  H14R18326   2.303   2.527   7.819 -0.0812  0.8629 -1.5757
  163SAPE  C21518327   2.169   2.671   7.896 -0.8554  0.1707  0.0204
  163SAPE  H15R18328   2.241   2.748   7.865 -1.6141  1.8814  2.2197
  163SAPE  C21618329   2.053   2.721   7.984 -0.1820  0.6452 -0.2010
  163SAPE  H16R18330   1.965   2.653   7.971 -0.1926  0.3219  1.4351
  163SAPE  H16S18331   2.027   2.823   7.950  0.3930  0.5776 -0.8869
  163SAPE  C21718332   2.100   2.722   8.133  0.4526 -0.3229  0.0633
  163SAPE  H17R18333   2.169   2.808   8.145  0.8551 -0.4427 -1.2584
  163SAPE  H17S18334   2.158   2.631   8.159  2.8458  0.8270 -1.0258
  163SAPE  C21818335   1.990   2.738   8.245  0.6349 -0.3476  0.0038
  163SAPE  H18R18336   2.051   2.733   8.337  1.4370  3.3705 -0.1706
  163SAPE  H18S18337   1.918   2.654   8.233  1.1508 -0.6493 -1.1401
  163SAPE  C21918338   1.931   2.880   8.237 -0.7561  0.1727  0.0810
  163SAPE  H19R18339   1.845   2.879   8.167 -0.8528 -3.9224  0.0275
  163SAPE  H19S18340   2.000   2.959   8.200 -1.8539  1.2937  0.3890
  163SAPE  C22018341   1.898   2.928   8.380 -0.4207  0.6913  0.4441
  163SAPE  H20R18342   1.990   2.912   8.441  0.8185  0.8406 -1.2997
  163SAPE  H20S18343   1.819   2.859   8.415 -2.0512  0.3821 -3.3723
  163SAPE  H20T18344   1.862   3.033   8.382  1.6192  1.4840 -0.6295
  163SAPE   C3318345   1.824   2.343   7.358 -0.4742  0.1422  0.1600
  163SAPE   H3X18346   1.872   2.411   7.284 -0.7971 -1.7000 -1.8699
  163SAPE   H3Y18347   1.900   2.267   7.387  0.0277  0.7733  0.5273
  163SAPE   C3418348   1.782   2.431   7.477  0.5444 -0.4672 -0.3119
  163SAPE   H4X18349   1.691   2.488   7.452  1.0211 -0.2717 -1.6581
  163SAPE   H4Y18350   1.864   2.503   7.496  0.0933  0.7029 -2.4620
  163SAPE   C3518351   1.760   2.352   7.614 -0.0361  0.4009  0.4052
  163SAPE   H5X18352   1.676   2.284   7.588  1.8740 -2.0725  0.3286
  163SAPE   H5Y18353   1.729   2.428   7.689  1.8999  1.6302  0.0497
  163SAPE   C3618354   1.877   2.280   7.677  0.2595 -0.2178 -0.3825
  163SAPE   H6X18355   1.971   2.339   7.688  0.4359 -0.6219  0.3148
  163SAPE   H6Y18356   1.906   2.204   7.602 -0.2496 -1.0708  0.2602
  163SAPE   C3718357   1.825   2.202   7.796 -0.3634 -0.0690  0.0414
  163SAPE   H7X18358   1.742   2.139   7.757  0.4539 -1.9971  1.2596
  163SAPE   H7Y18359   1.786   2.266   7.879 -0.0620 -1.0576  0.9624
  163SAPE   C3818360   1.920   2.096   7.847 -0.5405 -0.2011 -0.2280
  163SAPE   H8X18361   2.027   2.121   7.860 -0.3173 -1.3975  0.3104
  163SAPE   H8Y18362   1.915   2.009   7.778 -0.0167 -1.3337  1.1178
  163SAPE   C3918363   1.871   2.046   7.981 -0.3148 -0.0766  0.2046
  163SAPE   H9X18364   1.766   2.012   7.971 -0.5877  0.7946  0.0292
  163SAPE   H9Y18365   1.887   2.126   8.055 -1.6941  1.3453 -0.9795
  163SAPE  C31018366   1.948   1.925   8.035 -0.8740  0.5065  0.0939
  163SAPE  H10X18367   1.946   1.845   7.959  1.9350 -1.2367  1.6869
  163SAPE  H10Y18368   1.905   1.901   8.135 -2.1516  2.3577  0.0408
  163SAPE  C31118369   2.091   1.951   8.068  0.8883 -0.4656  0.1692
  163SAPE  H11X18370   2.105   2.047   8.121 -3.6720  0.2699  0.4646
  163SAPE  H11Y18371   2.138   1.961   7.967 -1.5467  1.2264 -0.8876
  163SAPE  C31218372   2.159   1.834   8.139  0.6800 -0.1967  0.6513
  163SAPE  H12X18373   2.128   1.743   8.084  1.2240  0.4937 -0.8425
  163SAPE  H12Y18374   2.117   1.841   8.242  2.6304 -0.8383  1.5394
  163SAPE  C31318375   2.309   1.846   8.163  0.5348 -0.0350  0.0632
  163SAPE  H13X18376   2.311   1.935   8.230  1.8123  0.8746 -1.1254
  163SAPE  H13Y18377   2.361   1.866   8.067  0.0793  0.7816 -0.0213
  163SAPE  C31418378   2.361   1.725   8.248 -0.3079 -0.3135 -0.3769
  163SAPE  H14X18379   2.339   1.628   8.199 -0.4087 -0.1829 -0.5893
  163SAPE  H14Y18380   2.306   1.734   8.344 -3.5009 -0.6668 -2.0566
  163SAPE  C31518381   2.508   1.720   8.288  1.3755 -0.0292 -0.0279
  163SAPE  H15X18382   2.568   1.695   8.199 -0.9090  2.0381 -2.2948
  163SAPE  H15Y18383   2.525   1.633   8.355  1.9257  0.1804  0.1101
  163SAPE  C31618384   2.559   1.849   8.356  0.7009 -0.4403 -0.0505
  163SAPE  H16X18385   2.563   1.935   8.285 -1.7861 -1.0487 -1.0272
  163SAPE  H16Y18386   2.661   1.834   8.398  0.0107 -2.3400  1.0598
  163SAPE  C31718387   2.487   1.880   8.486 -0.1224  0.0303  0.1661
  163SAPE  H17X18388   2.539   1.837   8.573 -0.9031  1.1861  1.2373
  163SAPE  H17Y18389   2.379   1.854   8.490  0.3547 -2.1611  0.0650
  163SAPE  C31818390   2.491   2.032   8.517  0.0719  0.5858 -0.1054
  163SAPE  H18X18391   2.436   2.100   8.449 -1.5739 -0.2836  0.3001
  163SAPE  H18Y18392   2.595   2.070   8.517 -0.4688  2.1193  0.6108
  163SAPE  H18Z18393   2.444   2.055   8.615  0.4117  0.5312  0.0717
  164SAPE     N18394   6.117   6.273   6.291  0.0512 -0.1140  0.6073
  164SAPE   HN118395   6.152   6.366   6.260  0.3405 -0.5559 -0.4205
  164SAPE   HN218396   6.018   6.278   6.323  0.4931  2.8316  1.9050
  164SAPE   HN318397   6.171   6.247   6.376 -3.1032  2.4381  3.7341
  164SAPE   C1218398   6.123   6.176   6.174 -0.0468 -0.1868 -0.8953
  164SAPE  H12A18399   6.093   6.078   6.218  1.3475 -0.4358 -0.4461
  164SAPE  H12B18400   6.230   6.169   6.147  1.2658 -0.1704  3.4830
  164SAPE   C1118401   6.024   6.214   6.057 -0.2587  0.6217 -0.3025
  164SAPE  H11A18402   5.928   6.219   6.113 -0.3695  2.7328 -0.6158
  164SAPE  H11B18403   6.022   6.126   5.989  0.0925  0.1269  0.3098
  164SAPE     P18404   5.979   6.468   6.001  0.3464  0.2237 -0.1768
  164SAPE   O1318405   6.062   6.559   5.926 -0.8707 -0.3927  0.2090
  164SAPE   O1418406   5.842   6.449   5.940 -0.2609 -0.1199  0.3374
  164SAPE   O1218407   6.051   6.332   5.984 -0.3078  0.3212  0.2234
  164SAPE   O1118408   5.989   6.478   6.157  0.2715  0.6502 -0.6302
  164SAPE    C118409   5.925   6.594   6.218 -0.4483  0.7838 -0.0989
  164SAPE    HA18410   5.999   6.677   6.227 -0.0919  0.4225  0.3863
  164SAPE    HB18411   5.833   6.629   6.168  0.0083 -0.3300 -1.8078
  164SAPE    C218412   5.880   6.567   6.363 -0.0606 -0.2877  0.0255
  164SAPE    HS18413   5.837   6.666   6.390  0.7738  0.3136 -0.7680
  164SAPE   O2118414   5.995   6.527   6.444  0.0538 -0.3327 -0.1849
  164SAPE   C2118415   6.024   6.611   6.543  0.3618  0.0316 -0.1350
  164SAPE   O2218416   5.961   6.711   6.576 -0.1060 -0.1380  0.3383
  164SAPE   C2218417   6.155   6.560   6.611 -0.7631  0.1615  0.1606
  164SAPE   H2R18418   6.145   6.455   6.647  1.2644 -0.5655 -1.2357
  164SAPE   H2S18419   6.239   6.561   6.538 -0.6367  1.9486  0.3011
  164SAPE    C318420   5.766   6.457   6.368 -0.6497  0.0521 -0.1085
  164SAPE    HX18421   5.798   6.359   6.327 -1.6802 -1.1482  1.8058
  164SAPE    HY18422   5.679   6.482   6.304 -0.2933  1.4738 -0.0672
  164SAPE   O3118423   5.714   6.444   6.498  0.3058  0.2089 -0.2903
  164SAPE   C3118424   5.640   6.542   6.550 -0.4941 -0.6029 -0.1233
  164SAPE   O3218425   5.606   6.645   6.499 -0.2777  0.1170  0.1560
  164SAPE   C3218426   5.584   6.498   6.682  0.2227  0.0216  0.1043
  164SAPE   H2X18427   5.525   6.404   6.669  0.5758 -0.0542 -1.0392
  164SAPE   H2Y18428   5.510   6.577   6.707 -2.0624 -0.8700 -3.0931
  164SAPE   C2318429   6.183   6.644   6.743  0.7247  0.4391 -0.2660
  164SAPE   H3R18430   6.177   6.753   6.719 -1.9644  0.9752  2.2998
  164SAPE   H3S18431   6.285   6.625   6.782  1.2875  2.2053 -0.7472
  164SAPE   C2418432   6.085   6.628   6.863  0.6292  0.8367 -0.2374
  164SAPE   H4R18433   5.979   6.648   6.835 -0.0490 -0.0834  1.4996
  164SAPE   H4S18434   6.115   6.707   6.936  0.1633  0.1952  0.6616
  164SAPE   C2518435   6.101   6.502   6.940 -0.3163  0.6875  0.4628
  164SAPE   H5R18436   6.157   6.422   6.889  0.8052  1.6038  0.2081
  164SAPE   C2618437   6.043   6.480   7.055  0.5047  0.0047  0.2756
  164SAPE   H6R18438   6.056   6.386   7.111 -0.6520  0.7273  1.8216
  164SAPE   C2718439   5.963   6.582   7.135 -0.1681  0.0078 -0.2708
  164SAPE   H7R18440   5.875   6.531   7.179 -0.6591 -0.0854 -1.3126
  164SAPE   H7S18441   5.908   6.656   7.071  0.8422  0.9308 -0.1070
  164SAPE   C2818442   6.039   6.654   7.246  0.2610  0.0710  0.2642
  164SAPE   H8R18443   6.108   6.731   7.208 -1.2871  1.1296 -0.5080
  164SAPE   C2918444   6.042   6.631   7.371  0.0222  0.5135 -0.0996
  164SAPE   H9R18445   6.091   6.696   7.445 -1.3594 -0.3283  1.6593
  164SAPE  C21018446   5.974   6.529   7.452 -0.5670  0.0057 -0.1561
  164SAPE  H10R18447   6.037   6.498   7.538  0.7989  1.2127 -0.6880
  164SAPE  H10S18448   5.961   6.440   7.387 -3.2046 -0.7411  1.2547
  164SAPE  C21118449   5.846   6.574   7.526  0.3151  0.1229 -0.0774
  164SAPE  H11R18450   5.756   6.576   7.464  0.8158 -0.1984 -0.8244
  164SAPE  C21218451   5.824   6.604   7.658  0.1474  0.3145 -0.2309
  164SAPE  H12R18452   5.722   6.633   7.686  0.0695 -0.3714  0.2177
  164SAPE  C21318453   5.926   6.606   7.761 -0.9181  0.4921 -1.4043
  164SAPE  H13R18454   5.985   6.514   7.743  1.2921  1.9586 -2.0473
  164SAPE  H13S18455   5.885   6.609   7.864  2.0704 -1.8723  0.0311
  164SAPE  C21418456   6.021   6.728   7.756 -0.0261 -0.6297  0.2512
  164SAPE  H14R18457   6.029   6.780   7.660  2.4070  0.6908  1.0877
  164SAPE  C21518458   6.115   6.766   7.850  0.2839  0.2719  0.2804
  164SAPE  H15R18459   6.178   6.855   7.842 -0.8394  0.9427 -1.7671
  164SAPE  C21618460   6.136   6.694   7.987 -0.2787 -0.1911  0.7208
  164SAPE  H16R18461   6.245   6.674   7.994  0.0014  0.2278 -1.5661
  164SAPE  H16S18462   6.086   6.596   7.974 -1.4927  0.6611 -1.6559
  164SAPE  C21718463   6.090   6.780   8.106 -0.3551  0.4760  0.7410
  164SAPE  H17R18464   5.994   6.827   8.078  0.2602  2.8076  2.2657
  164SAPE  H17S18465   6.162   6.862   8.125  1.4483 -1.1363  1.1990
  164SAPE  C21818466   6.075   6.699   8.232 -0.2910 -0.8457  0.1686
  164SAPE  H18R18467   5.978   6.647   8.246 -1.3096  1.2531  1.4015
  164SAPE  H18S18468   6.072   6.773   8.315  1.4986  0.8016 -1.1299
  164SAPE  C21918469   6.200   6.606   8.265  0.7401 -0.0685  0.1449
  164SAPE  H19R18470   6.294   6.666   8.271 -0.2956  1.4555  4.2642
  164SAPE  H19S18471   6.216   6.531   8.185  0.0400  1.5605 -1.6122
  164SAPE  C22018472   6.187   6.537   8.400  0.0705  0.3451  0.9020
  164SAPE  H20R18473   6.117   6.452   8.411 -0.2139  0.6036  1.1520
  164SAPE  H20S18474   6.160   6.608   8.482  2.4937 -0.7897  2.8301
  164SAPE  H20T18475   6.285   6.499   8.434 -0.5581 -1.2835  0.9555
  164SAPE   C3318476   5.691   6.472   6.790 -0.0662 -0.3114  0.2935
  164SAPE   H3X18477   5.757   6.561   6.784 -2.3386  1.5159  1.3514
  164SAPE   H3Y18478   5.747   6.380   6.762  1.2225  0.4603  0.2534
  164SAPE   C3418479   5.641   6.473   6.940 -0.6492  0.1129  0.1624
  164SAPE   H4X18480   5.730   6.440   6.998  0.2972  0.0375 -1.2762
  164SAPE   H4Y18481   5.565   6.394   6.959 -1.5342  1.4521  2.6640
  164SAPE   C3518482   5.600   6.612   6.994  0.4422 -0.3588  0.5017
  164SAPE   H5X18483   5.510   6.660   6.949  0.4500  0.6175  1.4778
  164SAPE   H5Y18484   5.686   6.678   6.969  0.3880  0.1015  1.4565
  164SAPE   C3618485   5.578   6.596   7.149 -0.0913  0.0064  0.0400
  164SAPE   H6X18486   5.588   6.694   7.199 -1.6863  0.7543 -1.0109
  164SAPE   H6Y18487   5.648   6.518   7.185  0.4111  0.8329  0.8933
  164SAPE   C3718488   5.434   6.570   7.179 -0.2969 -0.0416 -0.3186
  164SAPE   H7X18489   5.379   6.493   7.120  0.0630 -0.5057 -0.0572
  164SAPE   H7Y18490   5.380   6.665   7.158 -2.7734 -1.4828 -0.9167
  164SAPE   C3818491   5.425   6.533   7.329 -0.5767  0.7144  0.1962
  164SAPE   H8X18492   5.498   6.585   7.396  0.0692 -0.4121  0.3952
  164SAPE   H8Y18493   5.452   6.425   7.334 -0.2741  0.6088 -2.2700
  164SAPE   C3918494   5.285   6.562   7.387 -0.3909 -0.0530  0.3450
  164SAPE   H9X18495   5.207   6.492   7.350  1.3119 -2.3592  0.9087
  164SAPE   H9Y18496   5.252   6.664   7.359 -0.1657  0.2457  1.1358
  164SAPE  C31018497   5.290   6.570   7.539  0.0665  0.4082  0.3000
  164SAPE  H10X18498   5.333   6.667   7.572 -1.5658  1.9002 -1.7214
  164SAPE  H10Y18499   5.360   6.491   7.575  1.1032  1.6874  1.2004
  164SAPE  C31118500   5.148   6.552   7.597 -0.8209  0.0603 -0.6893
  164SAPE  H11X18501   5.156   6.556   7.708  1.8184 -0.2378 -0.8231
  164SAPE  H11Y18502   5.096   6.458   7.569  1.3818 -1.2993 -0.4373
  164SAPE  C31218503   5.062   6.667   7.560 -0.0652  0.3431 -0.0560
  164SAPE  H12X18504   4.970   6.654   7.622 -0.9601  1.0773 -1.2083
  164SAPE  H12Y18505   5.029   6.679   7.455 -0.0318 -1.1782 -0.2710
  164SAPE  C31318506   5.109   6.807   7.612  0.1678 -0.0766  0.8573
  164SAPE  H13X18507   5.035   6.888   7.599  0.9305  0.5245  0.1430
  164SAPE  H13Y18508   5.194   6.841   7.549  0.0426  1.3199  1.4083
  164SAPE  C31418509   5.151   6.813   7.757  0.0806  0.1087 -0.0526
  164SAPE  H14X18510   5.202   6.910   7.774  1.3585 -0.4897 -0.3911
  164SAPE  H14Y18511   5.220   6.727   7.764  0.7642  0.6775  0.2938
  164SAPE  C31518512   5.032   6.797   7.863 -0.3747  0.1743 -0.0955
  164SAPE  H15X18513   4.983   6.697   7.855  1.8706 -1.0459  0.4760
  164SAPE  H15Y18514   4.961   6.878   7.839 -0.4384 -0.2053 -1.2629
  164SAPE  C31618515   5.073   6.813   8.007 -0.0217 -0.1223 -0.4799
  164SAPE  H16X18516   5.124   6.911   8.019 -2.2287  1.2515 -1.7473
  164SAPE  H16Y18517   5.157   6.740   8.011 -1.5001 -1.9392 -1.1195
  164SAPE  C31718518   4.970   6.799   8.117 -0.3179 -0.3506 -0.6043
  164SAPE  H17X18519   4.929   6.697   8.097  0.1388 -1.0844  1.8486
  164SAPE  H17Y18520   4.880   6.864   8.112 -0.5979 -0.7859 -1.6037
  164SAPE  C31818521   5.033   6.797   8.257 -0.4676 -1.0969 -0.2325
  164SAPE  H18X18522   5.086   6.893   8.275 -2.6061  0.3224 -1.0162
  164SAPE  H18Y18523   5.088   6.705   8.286 -0.9770 -1.1711  0.5223
  164SAPE  H18Z18524   4.952   6.804   8.333  1.6100  0.7602  1.9669
  165SAPE     N18525   5.301   2.143   6.167 -0.2351 -1.4521 -0.1326
  165SAPE   HN118526   5.207   2.101   6.176 -1.2304  0.6458 -0.2850
  165SAPE   HN218527   5.296   2.223   6.233 -0.0677 -2.7253  1.5049
  165SAPE   HN318528   5.323   2.166   6.068 -1.2238  0.2239  0.0062
  165SAPE   C1218529   5.405   2.046   6.218 -1.0703 -0.1630  0.0165
  165SAPE  H12A18530   5.497   2.108   6.221 -1.7908  0.9373 -0.0324
  165SAPE  H12B18531   5.423   1.972   6.138 -0.8670 -0.8693  0.6998
  165SAPE   C1118532   5.369   1.973   6.348 -0.0482 -0.5780 -0.4360
  165SAPE  H11A18533   5.332   2.052   6.417 -1.4592  0.2756 -2.1020
  165SAPE  H11B18534   5.462   1.921   6.379  1.0948  0.3474 -2.1474
  165SAPE     P18535   5.265   1.736   6.365  0.0377 -0.1159  0.3577
  165SAPE   O1318536   5.171   1.659   6.274  0.5046  0.0296 -0.2620
  165SAPE   O1418537   5.407   1.692   6.362 -0.2391 -0.0203  0.2021
  165SAPE   O1218538   5.257   1.885   6.332 -0.2475 -1.2494  0.3888
  165SAPE   O1118539   5.232   1.726   6.513  0.2489  0.3073 -0.3034
  165SAPE    C118540   5.127   1.818   6.565  0.0278  0.5792  0.0863
  165SAPE    HA18541   5.084   1.891   6.493  1.6731 -0.9612 -2.6539
  165SAPE    HB18542   5.042   1.752   6.593 -0.1176 -0.8886 -3.3603
  165SAPE    C218543   5.182   1.900   6.686 -0.7807  0.5062 -0.7050
  165SAPE    HS18544   5.289   1.922   6.663 -0.8046  0.3579 -0.9576
  165SAPE   O2118545   5.181   1.822   6.810  0.1160 -0.3995  0.0727
  165SAPE   C2118546   5.267   1.852   6.908  0.3651 -0.7364  0.3383
  165SAPE   O2218547   5.368   1.915   6.898 -0.1127  0.6429  0.4265
  165SAPE   C2218548   5.232   1.776   7.038 -0.2903  0.2480 -0.0224
  165SAPE   H2R18549   5.154   1.702   7.011 -0.6867 -0.8043  3.5732
  165SAPE   H2S18550   5.329   1.737   7.076  0.8692  2.0516 -0.9609
  165SAPE    C318551   5.100   2.027   6.698 -0.3399  0.2979 -0.4224
  165SAPE    HX18552   4.998   1.991   6.724  0.8285 -2.2508  0.9237
  165SAPE    HY18553   5.089   2.076   6.598 -0.5086 -0.9992 -1.0554
  165SAPE   O3118554   5.151   2.121   6.795  0.3398  0.4961  0.2404
  165SAPE   C3118555   5.270   2.178   6.755 -0.0165 -0.6207 -0.2702
  165SAPE   O3218556   5.310   2.179   6.640  0.1287 -0.3059 -0.6221
  165SAPE   C3218557   5.337   2.249   6.873  0.0548 -0.6299  0.9916
  165SAPE   H2X18558   5.276   2.233   6.964 -1.8233 -1.8398 -0.3931
  165SAPE   H2Y18559   5.324   2.359   6.861  0.4111 -0.2759  3.3524
  165SAPE   C2318560   5.155   1.873   7.134  0.0007  0.3698  0.0174
  165SAPE   H3R18561   5.088   1.819   7.204  0.2169 -0.1762 -0.1886
  165SAPE   H3S18562   5.082   1.933   7.076  2.2773  3.3497 -0.0343
  165SAPE   C2418563   5.257   1.950   7.212  0.4422  0.3112  0.5847
  165SAPE   H4R18564   5.315   2.002   7.132 -0.2636 -2.6342 -2.0339
  165SAPE   H4S18565   5.342   1.892   7.252  0.5950 -1.0162 -1.5183
  165SAPE   C2518566   5.195   2.056   7.302  0.2027 -0.3832  0.0891
  165SAPE   H5R18567   5.136   2.133   7.251 -0.7571  0.1428  1.9031
  165SAPE   C2618568   5.217   2.080   7.434 -0.3907  0.4620 -0.2443
  165SAPE   H6R18569   5.168   2.166   7.482  0.0667  0.2202  0.6765
  165SAPE   C2718570   5.308   1.992   7.520  0.9594  0.1043  0.1855
  165SAPE   H7R18571   5.366   1.917   7.462 -1.0367 -1.0128 -0.4478
  165SAPE   H7S18572   5.241   1.920   7.572  1.3822 -0.8132 -0.5006
  165SAPE   C2818573   5.403   2.071   7.608  0.1077  0.9872  0.5900
  165SAPE   H8R18574   5.497   2.082   7.553 -0.0068 -2.4228 -0.5566
  165SAPE   C2918575   5.395   2.097   7.743 -0.1786  0.2072 -0.0749
  165SAPE   H9R18576   5.469   2.158   7.797 -0.2572  1.9275 -1.8024
  165SAPE  C21018577   5.277   2.068   7.831 -0.0830  0.2514 -0.5463
  165SAPE  H10R18578   5.179   2.052   7.781 -1.2158 -1.9248  2.1302
  165SAPE  H10S18579   5.254   2.158   7.892  0.8084 -0.8878  1.5894
  165SAPE  C21118580   5.291   1.946   7.921  0.5948  1.1278 -0.1930
  165SAPE  H11R18581   5.302   1.852   7.866 -0.8238 -0.2216  1.7018
  165SAPE  C21218582   5.270   1.928   8.051  0.2422  0.3988  0.3854
  165SAPE  H12R18583   5.276   1.828   8.096 -0.3085 -0.0801 -0.5586
  165SAPE  C21318584   5.232   2.032   8.153  0.6469  0.1179 -0.8480
  165SAPE  H13R18585   5.132   2.066   8.118 -0.5451 -0.6097  1.5939
  165SAPE  H13S18586   5.294   2.124   8.152  1.1839 -0.2077  0.3606
  165SAPE  C21418587   5.217   1.978   8.295  0.4932 -0.2821  0.0755
  165SAPE  H14R18588   5.113   1.942   8.299  0.5777 -0.9738 -2.3490
  165SAPE  C21518589   5.294   1.972   8.403  0.4170 -0.4482 -0.1022
  165SAPE  H15R18590   5.253   1.941   8.500  0.6176  1.3315  0.5876
  165SAPE  C21618591   5.441   2.007   8.410  1.0365 -0.4189 -0.1466
  165SAPE  H16R18592   5.464   2.049   8.510 -0.0383 -0.9556  0.3414
  165SAPE  H16S18593   5.460   2.092   8.341 -3.0029  0.9085  0.1668
  165SAPE  C21718594   5.540   1.894   8.370 -0.1179 -0.9541  0.2462
  165SAPE  H17R18595   5.641   1.940   8.362 -1.4419  1.8276 -3.4920
  165SAPE  H17S18596   5.523   1.865   8.264 -0.0334 -0.3794  0.0701
  165SAPE  C21818597   5.540   1.767   8.446 -0.0850  0.4137  0.0273
  165SAPE  H18R18598   5.601   1.696   8.387  1.3939  1.0289  0.7647
  165SAPE  H18S18599   5.440   1.724   8.467 -0.1141  0.6854  0.4631
  165SAPE  C21918600   5.590   1.777   8.592  0.4299 -0.2233 -0.2902
  165SAPE  H19R18601   5.678   1.842   8.609  0.4568 -0.0862 -0.9259
  165SAPE  H19S18602   5.619   1.673   8.619 -0.2157  0.2008  2.2181
  165SAPE  C22018603   5.487   1.824   8.702 -0.2162 -0.4438  0.6075
  165SAPE  H20R18604   5.484   1.934   8.717  0.9501 -0.1513 -1.0294
  165SAPE  H20S18605   5.520   1.782   8.800  0.9545  1.2801  1.0015
  165SAPE  H20T18606   5.388   1.784   8.674 -0.7367  0.8782  0.4794
  165SAPE   C3318607   5.488   2.226   6.878  0.4447 -0.9020  0.0696
  165SAPE   H3X18608   5.531   2.279   6.790  1.0062 -0.4745  0.5929
  165SAPE   H3Y18609   5.509   2.119   6.861 -0.1742 -0.9103 -0.7089
  165SAPE   C3418610   5.568   2.274   7.000  0.8636 -0.1509 -0.2455
  165SAPE   H4X18611   5.503   2.263   7.089 -2.8178  0.6144 -2.6006
  165SAPE   H4Y18612   5.603   2.377   6.976 -1.4139  0.6708 -0.3058
  165SAPE   C3518613   5.698   2.187   7.016  0.2949 -0.2281  0.3848
  165SAPE   H5X18614   5.752   2.172   6.920  0.2768 -3.4799  0.7732
  165SAPE   H5Y18615   5.676   2.085   7.054  1.4423  0.1338  2.1023
  165SAPE   C3618616   5.789   2.237   7.132  0.9391  0.0247  0.2313
  165SAPE   H6X18617   5.823   2.343   7.126 -1.2919  0.9298  2.1052
  165SAPE   H6Y18618   5.883   2.177   7.128  1.5379  0.9471  0.0339
  165SAPE   C3718619   5.722   2.222   7.269 -0.1244 -0.2141 -0.2773
  165SAPE   H7X18620   5.668   2.125   7.279 -1.1184  0.4146  0.7398
  165SAPE   H7Y18621   5.631   2.286   7.274 -0.1264 -0.2711  0.5900
  165SAPE   C3818622   5.811   2.249   7.391 -0.2779 -0.4529  0.4781
  165SAPE   H8X18623   5.871   2.342   7.375 -1.1982 -0.0943 -1.0516
  165SAPE   H8Y18624   5.865   2.158   7.423  0.6332 -0.0635  0.0749
  165SAPE   C3918625   5.722   2.292   7.515 -0.2145 -0.5592 -0.0289
  165SAPE   H9X18626   5.647   2.218   7.550  0.6410 -0.2903  2.5508
  165SAPE   H9Y18627   5.672   2.390   7.498  1.1407  0.9529  3.7603
  165SAPE  C31018628   5.813   2.305   7.638 -0.6791 -0.2428 -0.2450
  165SAPE  H10X18629   5.888   2.385   7.620 -0.2614 -0.6195 -0.2015
  165SAPE  H10Y18630   5.871   2.211   7.651 -1.0899 -0.3051  1.3057
  165SAPE  C31118631   5.736   2.337   7.764  0.2833  0.4447 -0.6327
  165SAPE  H11X18632   5.678   2.244   7.785 -0.9164  0.6095 -2.8597
  165SAPE  H11Y18633   5.678   2.431   7.751 -0.5819  0.2976  1.7138
  165SAPE  C31218634   5.812   2.388   7.895  0.0636 -0.1143  0.4526
  165SAPE  H12X18635   5.863   2.482   7.864  0.5694  0.0991  1.8817
  165SAPE  H12Y18636   5.886   2.310   7.921 -0.2287  0.1573  2.1867
  165SAPE  C31318637   5.715   2.422   8.004 -0.2736 -0.3737 -0.2513
  165SAPE  H13X18638   5.672   2.327   8.042 -0.5875  0.4114  1.4545
  165SAPE  H13Y18639   5.622   2.474   7.975  0.2540  0.0562 -1.2142
  165SAPE  C31418640   5.789   2.502   8.105 -0.3377 -0.2126  0.4012
  165SAPE  H14X18641   5.798   2.610   8.085  1.2135 -0.5130 -0.6793
  165SAPE  H14Y18642   5.895   2.468   8.115 -1.0835 -2.1854  2.4360
  165SAPE  C31518643   5.751   2.480   8.246  0.0690 -0.3667  0.2732
  165SAPE  H15X18644   5.759   2.370   8.259  0.9518 -0.2686  0.6397
  165SAPE  H15Y18645   5.652   2.517   8.280  0.4007  1.1193 -0.2759
  165SAPE  C31618646   5.856   2.535   8.346 -0.4254 -0.3231  0.4705
  165SAPE  H16X18647   5.955   2.490   8.321 -0.3092 -0.3059  0.8902
  165SAPE  H16Y18648   5.831   2.505   8.450  0.0341 -1.5854  0.2381
  165SAPE  C31718649   5.870   2.690   8.337  0.7590  0.3981  0.0498
  165SAPE  H17X18650   5.885   2.736   8.237  0.0559  1.3769  0.3853
  165SAPE  H17Y18651   5.956   2.712   8.404  0.9742 -2.0270  0.6861
  165SAPE  C31818652   5.743   2.758   8.390  0.0593  0.3020  0.4342
  165SAPE  H18X18653   5.655   2.716   8.336 -0.5091 -1.1555  2.3603
  165SAPE  H18Y18654   5.765   2.866   8.376  1.0809  0.0663  0.0968
  165SAPE  H18Z18655   5.730   2.744   8.500  1.6809  1.3643  0.8000
  166SAPE     N18656   6.310   5.707   6.127  0.6264  0.0906  0.7139
  166SAPE   HN118657   6.229   5.709   6.193 -1.0792  0.7975 -1.2958
  166SAPE   HN218658   6.345   5.611   6.113  0.4091  0.1988 -0.7162
  166SAPE   HN318659   6.383   5.774   6.158  0.5400  0.7999 -0.5344
  166SAPE   C1218660   6.265   5.743   5.982  0.3752 -0.4045  0.1900
  166SAPE  H12A18661   6.227   5.651   5.933  0.8054 -0.5981  0.2147
  166SAPE  H12B18662   6.357   5.777   5.930 -0.8948  0.9478 -1.2601
  166SAPE   C1118663   6.175   5.867   5.982 -0.5008 -0.2087 -0.2279
  166SAPE  H11A18664   6.154   5.897   5.877 -1.8724 -2.1841 -0.5788
  166SAPE  H11B18665   6.241   5.942   6.031  0.8220 -1.6362  0.2486
  166SAPE     P18666   5.926   5.808   5.996 -0.4807  0.1601  0.3747
  166SAPE   O1318667   5.846   5.931   5.967  0.5004  0.1374  0.0284
  166SAPE   O1418668   5.953   5.718   5.877 -0.3567 -0.4629 -0.1459
  166SAPE   O1218669   6.060   5.855   6.061  0.3411  0.1241 -0.3621
  166SAPE   O1118670   5.850   5.713   6.103 -0.6054  0.3572 -0.2082
  166SAPE    C118671   5.902   5.674   6.227  0.4513  0.1200  0.0248
  166SAPE    HA18672   5.818   5.607   6.258 -0.1898  0.2139 -1.4279
  166SAPE    HB18673   5.991   5.609   6.218 -1.2679 -2.4889  0.6364
  166SAPE    C218674   5.914   5.792   6.327 -0.3411  0.2528 -0.1498
  166SAPE    HS18675   5.979   5.873   6.288  0.2708 -0.1043  0.1129
  166SAPE   O2118676   5.960   5.739   6.453 -0.1851  0.1237  0.4105
  166SAPE   C2118677   6.092   5.702   6.452 -0.1945 -0.2806 -0.7005
  166SAPE   O2218678   6.169   5.725   6.366  0.7109 -0.2607  0.1016
  166SAPE   C2218679   6.113   5.627   6.586  0.4053 -0.5189 -0.1510
  166SAPE   H2R18680   6.025   5.619   6.653 -1.4405  3.9536 -1.6565
  166SAPE   H2S18681   6.136   5.522   6.555  1.5933 -0.2409 -0.2826
  166SAPE    C318682   5.781   5.874   6.342 -0.9367 -0.5860  0.2151
  166SAPE    HX18683   5.695   5.805   6.332 -2.3506  1.1086  0.4127
  166SAPE    HY18684   5.782   5.944   6.255 -0.3220  0.9439  1.4075
  166SAPE   O3118685   5.776   5.951   6.465  0.1375 -0.2525 -0.1556
  166SAPE   C3118686   5.855   6.063   6.477 -0.1838  0.3773  0.0696
  166SAPE   O3218687   5.907   6.118   6.382  0.4986 -0.4843  0.7283
  166SAPE   C3218688   5.827   6.126   6.613 -0.1102 -0.4678 -0.5889
  166SAPE   H2X18689   5.717   6.119   6.627 -0.3390 -1.2899 -2.4278
  166SAPE   H2Y18690   5.846   6.235   6.602 -1.5311 -0.2314 -0.8497
  166SAPE   C2318691   6.232   5.693   6.662 -0.0360 -0.5475 -0.3908
  166SAPE   H3R18692   6.312   5.714   6.589 -1.3683  0.9632 -1.4876
  166SAPE   H3S18693   6.257   5.608   6.729 -0.0782 -1.2006 -1.1915
  166SAPE   C2418694   6.196   5.830   6.739 -0.0373 -0.3630 -0.0041
  166SAPE   H4R18695   6.099   5.816   6.790  0.7505 -3.9385  0.8105
  166SAPE   H4S18696   6.166   5.892   6.652 -0.2728  1.9071  1.6153
  166SAPE   C2518697   6.302   5.901   6.820  0.1857 -0.6155  0.0292
  166SAPE   H5R18698   6.353   5.984   6.769  1.7057 -1.6483 -0.2012
  166SAPE   C2618699   6.326   5.876   6.944 -0.3344 -0.2712  0.0637
  166SAPE   H6R18700   6.405   5.942   6.984 -0.6623 -0.0770  0.3953
  166SAPE   C2718701   6.261   5.771   7.037  0.4113  0.0869 -0.3748
  166SAPE   H7R18702   6.338   5.693   7.054  1.7594  1.6760  1.2020
  166SAPE   H7S18703   6.173   5.729   6.983  0.3984 -1.4728  0.7914
  166SAPE   C2818704   6.213   5.829   7.167 -0.5610  0.4290  0.6485
  166SAPE   H8R18705   6.149   5.918   7.156 -0.2403  0.4269 -1.8582
  166SAPE   C2918706   6.242   5.790   7.292 -0.0623  0.2455 -0.2752
  166SAPE   H9R18707   6.193   5.832   7.381  0.9540 -2.0017  1.4329
  166SAPE  C21018708   6.345   5.686   7.326 -0.3704 -0.4647 -0.1010
  166SAPE  H10R18709   6.397   5.711   7.421  0.4371 -2.1288 -0.0575
  166SAPE  H10S18710   6.424   5.692   7.248 -1.4525  2.6850 -1.1038
  166SAPE  C21118711   6.302   5.544   7.340  0.5200  0.6138  0.2832
  166SAPE  H11R18712   6.255   5.516   7.244  0.9613 -0.0265  0.2538
  166SAPE  C21218713   6.311   5.453   7.440 -0.3814  0.6547 -0.3008
  166SAPE  H12R18714   6.275   5.351   7.422 -0.5537  0.8841 -1.3151
  166SAPE  C21318715   6.370   5.487   7.577  0.4623 -0.7353  0.8188
  166SAPE  H13R18716   6.351   5.586   7.622  2.5842  0.0049  0.2134
  166SAPE  H13S18717   6.480   5.483   7.560  0.4026  0.5252 -0.0008
  166SAPE  C21418718   6.321   5.380   7.675  0.2620  0.2566 -0.5872
  166SAPE  H14R18719   6.212   5.374   7.681  0.2185  0.9752 -0.5420
  166SAPE  C21518720   6.390   5.327   7.778 -0.7525  0.1612  0.5026
  166SAPE  H15R18721   6.346   5.244   7.835  0.0367 -1.4335 -1.1193
  166SAPE  C21618722   6.538   5.353   7.817  0.7444 -0.3850  0.0126
  166SAPE  H16R18723   6.587   5.434   7.758  0.2323  0.7593  1.0914
  166SAPE  H16S18724   6.593   5.257   7.810  0.6166 -0.4049 -0.8598
  166SAPE  C21718725   6.547   5.406   7.965  0.0429 -0.0774  0.3141
  166SAPE  H17R18726   6.496   5.504   7.976  1.0205  0.7488 -1.8492
  166SAPE  H17S18727   6.657   5.421   7.970  0.2216  0.1533 -2.5238
  166SAPE  C21818728   6.498   5.307   8.072  0.1556  0.1772 -0.5433
  166SAPE  H18R18729   6.529   5.204   8.042 -2.2359 -1.9129  3.3653
  166SAPE  H18S18730   6.388   5.318   8.061 -0.0301 -0.3363  0.6964
  166SAPE  C21918731   6.550   5.349   8.209 -0.2960  0.1978 -0.2311
  166SAPE  H19R18732   6.655   5.385   8.216 -0.6920  1.4098 -0.3901
  166SAPE  H19S18733   6.532   5.263   8.278  0.4007  1.4783  1.6122
  166SAPE  C22018734   6.462   5.458   8.269  0.2250 -0.5974  0.5678
  166SAPE  H20R18735   6.454   5.541   8.196 -1.3579 -1.3220 -0.1254
  166SAPE  H20S18736   6.514   5.500   8.358  3.0379  0.6422 -1.5171
  166SAPE  H20T18737   6.360   5.418   8.289 -0.7113  1.5250  0.2283
  166SAPE   C3318738   5.907   6.064   6.731 -0.2889 -0.2109  1.2510
  166SAPE   H3X18739   6.015   6.071   6.705 -0.9695  1.4853 -1.5014
  166SAPE   H3Y18740   5.889   5.955   6.734  0.1023 -0.2613  2.6095
  166SAPE   C3418741   5.894   6.127   6.868  0.1140  0.4830 -0.3682
  166SAPE   H4X18742   5.794   6.174   6.872 -0.6741 -0.9223 -2.1608
  166SAPE   H4Y18743   5.965   6.211   6.878  0.5625 -0.1451  3.3676
  166SAPE   C3518744   5.905   6.030   6.991  0.2892 -0.1510  0.5660
  166SAPE   H5X18745   6.014   6.012   6.986  0.4908  1.0965  0.0895
  166SAPE   H5Y18746   5.830   5.948   6.984 -1.3108  1.1929  1.1261
  166SAPE   C3618747   5.876   6.111   7.119  0.4213 -0.1455  0.1528
  166SAPE   H6X18748   5.944   6.198   7.132 -1.6194  1.3545  1.3693
  166SAPE   H6Y18749   5.896   6.040   7.202 -2.7809  0.4915  1.6146
  166SAPE   C3718750   5.722   6.136   7.128 -0.4214  0.5407 -0.0580
  166SAPE   H7X18751   5.670   6.039   7.145  0.7161  0.2409  2.2295
  166SAPE   H7Y18752   5.696   6.185   7.033  2.9322  2.5061 -0.1463
  166SAPE   C3818753   5.684   6.230   7.241 -0.0641  0.2812  0.7117
  166SAPE   H8X18754   5.582   6.263   7.214 -1.2622 -1.7285  2.4395
  166SAPE   H8Y18755   5.758   6.313   7.242  0.0731  0.3701 -2.8555
  166SAPE   C3918756   5.683   6.155   7.375 -0.4765 -0.2175 -0.3741
  166SAPE   H9X18757   5.790   6.132   7.395 -0.3181 -0.0095 -0.9516
  166SAPE   H9Y18758   5.647   6.050   7.366 -1.3615  0.1007 -0.6381
  166SAPE  C31018759   5.617   6.227   7.493 -0.2203  0.3175 -0.2522
  166SAPE  H10X18760   5.507   6.220   7.480 -0.4266 -0.7946  1.7874
  166SAPE  H10Y18761   5.650   6.333   7.500 -0.6865  0.4691 -0.2722
  166SAPE  C31118762   5.635   6.155   7.632  0.1697  0.2538  0.6687
  166SAPE  H11X18763   5.738   6.114   7.626  0.4716  1.1686 -4.0352
  166SAPE  H11Y18764   5.569   6.067   7.646  1.6552 -1.0223 -0.1421
  166SAPE  C31218765   5.632   6.248   7.761  0.8788  0.4996 -0.2864
  166SAPE  H12X18766   5.679   6.348   7.748  2.5274 -0.3466 -1.1507
  166SAPE  H12Y18767   5.709   6.204   7.828  1.9115  1.4513 -0.8013
  166SAPE  C31318768   5.496   6.262   7.825 -0.0803 -0.4696 -0.0253
  166SAPE  H13X18769   5.462   6.162   7.858 -0.2080  0.5933  3.4007
  166SAPE  H13Y18770   5.416   6.280   7.749  0.1351 -2.2364 -0.7059
  166SAPE  C31418771   5.476   6.364   7.941  0.4994 -0.3120 -0.0798
  166SAPE  H14X18772   5.551   6.444   7.922 -0.9397  0.7069 -1.7697
  166SAPE  H14Y18773   5.493   6.311   8.037  1.4452  1.0559  0.5496
  166SAPE  C31518774   5.339   6.433   7.937 -0.4238  0.3032  0.4385
  166SAPE  H15X18775   5.322   6.483   7.839 -3.0017 -1.7555 -0.2952
  166SAPE  H15Y18776   5.324   6.509   8.017 -0.7950  0.5743  0.1209
  166SAPE  C31618777   5.214   6.339   7.931  0.2297  0.0632 -0.2419
  166SAPE  H16X18778   5.243   6.247   7.986  0.2974  0.7046  0.8193
  166SAPE  H16Y18779   5.188   6.307   7.828 -0.3693  0.1821 -0.1324
  166SAPE  C31718780   5.081   6.396   7.994 -0.0323  0.0986  0.3197
  166SAPE  H17X18781   5.045   6.486   7.939 -2.1483 -1.4402 -0.9454
  166SAPE  H17Y18782   5.115   6.412   8.098 -0.9083 -0.8421  0.7603
  166SAPE  C31818783   4.970   6.288   7.998  0.1326  0.1340  0.3102
  166SAPE  H18X18784   5.013   6.191   8.029  0.0416 -0.9776 -2.7396
  166SAPE  H18Y18785   4.913   6.259   7.907 -0.1298  0.9354  0.2025
  166SAPE  H18Z18786   4.890   6.325   8.066  0.2800  2.8003 -0.8155
  167SAPE     N18787   0.141   6.158   6.039 -0.1284 -0.1142 -0.3311
  167SAPE   HN118788   0.051   6.168   5.989 -0.5195  0.9973  0.5604
  167SAPE   HN218789   0.197   6.234   5.997 -2.9964  2.2622 -0.1333
  167SAPE   HN318790   0.189   6.072   6.006  0.5987  1.0430 -2.4468
  167SAPE   C1218791   0.123   6.161   6.196  0.3250 -0.0673  0.4078
  167SAPE  H12A18792   0.078   6.257   6.229  1.1895  0.0254  1.3686
  167SAPE  H12B18793   0.225   6.172   6.241 -1.0140  1.4976  3.3533
  167SAPE   C1118794   0.056   6.028   6.245  0.1650 -0.1416 -0.2789
  167SAPE  H11A18795   0.053   6.024   6.356 -1.1567 -1.0560 -0.3243
  167SAPE  H11B18796   0.125   5.953   6.201  0.3533 -0.3792  0.4162
  167SAPE     P18797  -0.137   5.893   6.123 -0.0091 -0.3102 -0.2496
  167SAPE   O1318798  -0.269   5.877   6.183 -0.3924 -0.4231  0.6591
  167SAPE   O1418799  -0.133   5.918   5.976 -0.3055 -0.2307  0.4455
  167SAPE   O1218800  -0.079   6.019   6.199  0.0464  0.2350 -0.9526
  167SAPE   O1118801  -0.045   5.776   6.163 -0.5937  0.2468 -0.3316
  167SAPE    C118802  -0.040   5.719   6.298 -0.6104  0.5687  0.4482
  167SAPE    HA18803   0.063   5.680   6.312  0.5113  1.6840 -3.3722
  167SAPE    HB18804  -0.050   5.794   6.379 -0.8230  0.3317  0.6446
  167SAPE    C218805  -0.130   5.602   6.297 -0.4426  0.4216  0.7731
  167SAPE    HS18806  -0.233   5.643   6.304  0.3596  2.8868 -0.5262
  167SAPE   O2118807  -0.100   5.522   6.414  0.0060 -0.7009 -0.2330
  167SAPE   C2118808  -0.127   5.589   6.526 -0.0546  0.3445 -0.2125
  167SAPE   O2218809  -0.193   5.696   6.537  0.1080  0.4310 -1.0044
  167SAPE   C2218810  -0.064   5.517   6.648 -0.8687 -0.2360  0.4722
  167SAPE   H2R18811   0.020   5.454   6.613  1.8583  2.5580  1.5270
  167SAPE   H2S18812  -0.005   5.593   6.704  0.8641 -1.8557  0.9333
  167SAPE    C318813  -0.119   5.511   6.173 -0.5125  0.8185 -0.2026
  167SAPE    HX18814  -0.009   5.502   6.156 -0.7276 -2.8911 -0.6180
  167SAPE    HY18815  -0.159   5.563   6.084 -0.3935  1.7868  0.3030
  167SAPE   O3118816  -0.178   5.383   6.194  0.4265  0.3851  0.3014
  167SAPE   C3118817  -0.301   5.379   6.156  0.1067  0.0826 -0.1354
  167SAPE   O3218818  -0.376   5.466   6.120 -0.0253 -0.0382 -0.7552
  167SAPE   C3218819  -0.330   5.229   6.170 -0.1315 -0.0463  0.2818
  167SAPE   H2X18820  -0.245   5.182   6.116 -0.5856 -4.0869  2.7165
  167SAPE   H2Y18821  -0.428   5.205   6.125 -0.9192 -0.0393  1.9125
  167SAPE   C2318822  -0.156   5.442   6.744  0.2043 -0.2742  0.2567
  167SAPE   H3R18823  -0.101   5.373   6.812 -0.0935 -1.0565 -0.2864
  167SAPE   H3S18824  -0.220   5.368   6.692  1.5351 -2.4705  1.5875
  167SAPE   C2418825  -0.234   5.525   6.847  0.0238  0.2226  0.4811
  167SAPE   H4R18826  -0.300   5.599   6.797 -1.2522 -0.2878  1.3408
  167SAPE   H4S18827  -0.154   5.576   6.904  0.6969 -0.3910  0.1035
  167SAPE   C2518828  -0.323   5.440   6.931 -0.7134 -0.3821 -0.2760
  167SAPE   H5R18829  -0.426   5.470   6.904  0.6295  1.9024 -3.5028
  167SAPE   C2618830  -0.299   5.350   7.025  0.7238 -0.2035 -0.3074
  167SAPE   H6R18831  -0.383   5.299   7.075 -0.8295  1.5719 -0.9580
  167SAPE   C2718832  -0.169   5.298   7.070 -0.8665 -0.2150  0.0159
  167SAPE   H7R18833  -0.161   5.327   7.177 -1.1045  1.2624 -0.3489
  167SAPE   H7S18834  -0.085   5.341   7.012 -0.6743  1.2629  1.3310
  167SAPE   C2818835  -0.167   5.147   7.054 -0.0560 -0.6296 -0.5308
  167SAPE   H8R18836  -0.181   5.115   6.950 -0.9736 -0.1262 -0.5747
  167SAPE   C2918837  -0.143   5.051   7.141 -0.0109  0.2342 -0.2671
  167SAPE   H9R18838  -0.164   4.947   7.113 -0.8229  0.3682 -0.1771
  167SAPE  C21018839  -0.128   5.075   7.290 -0.2160 -0.1652 -0.2865
  167SAPE  H10R18840  -0.219   5.051   7.350  0.1578  1.9964  1.2569
  167SAPE  H10S18841  -0.112   5.182   7.315 -1.0774  0.2608 -1.4844
  167SAPE  C21118842  -0.007   5.009   7.355 -0.0963  0.1028  0.3415
  167SAPE  H11R18843   0.063   4.954   7.291  1.3852 -0.5577  2.4437
  167SAPE  C21218844   0.011   4.997   7.489 -0.1895 -0.5582 -0.4784
  167SAPE  H12R18845   0.103   4.947   7.523 -0.4324 -0.1650  0.8088
  167SAPE  C21318846  -0.068   5.041   7.608  0.8944  0.4403 -0.4962
  167SAPE  H13R18847  -0.072   4.964   7.689 -0.3595 -1.2756 -2.0895
  167SAPE  H13S18848  -0.173   5.055   7.574  0.7958 -0.4124 -0.5897
  167SAPE  C21418849  -0.005   5.176   7.640  0.1555  0.2271 -1.3717
  167SAPE  H14R18850  -0.036   5.253   7.567 -0.6560  0.3961 -0.8685
  167SAPE  C21518851   0.075   5.199   7.746  0.4885  0.5204 -0.8448
  167SAPE  H15R18852   0.109   5.303   7.760 -0.2150  0.6567 -0.1016
  167SAPE  C21618853   0.131   5.102   7.849 -0.0173  0.3888  0.1882
  167SAPE  H16R18854   0.242   5.100   7.844  0.1532 -1.5843  2.4765
  167SAPE  H16S18855   0.108   4.998   7.817  1.6640 -0.5856  1.9226
  167SAPE  C21718856   0.088   5.114   7.997  0.4734 -0.9886  0.9852
  167SAPE  H17R18857   0.113   5.018   8.047  2.2416 -0.6987  0.7085
  167SAPE  H17S18858  -0.020   5.136   8.012  0.2339 -1.3162 -0.2035
  167SAPE  C21818859   0.176   5.231   8.062 -0.3237  0.2609 -0.0144
  167SAPE  H18R18860   0.123   5.326   8.037  0.3402  0.8236  0.6669
  167SAPE  H18S18861   0.277   5.227   8.017 -1.0119  0.8042 -1.6650
  167SAPE  C21918862   0.166   5.217   8.216 -0.8498 -0.0870  0.9168
  167SAPE  H19R18863   0.191   5.114   8.250 -1.4558 -0.7619 -0.6045
  167SAPE  H19S18864   0.061   5.216   8.251 -0.8446 -1.9574  0.9729
  167SAPE  C22018865   0.239   5.324   8.298  0.8449 -0.0022 -0.2213
  167SAPE  H20R18866   0.349   5.316   8.284  0.6357 -1.4339 -1.2117
  167SAPE  H20S18867   0.220   5.312   8.407 -1.6967  1.0216 -0.4905
  167SAPE  H20T18868   0.200   5.421   8.261  0.0943 -0.6733 -1.2449
  167SAPE   C3318869  -0.332   5.180   6.318 -0.0878  0.2726  0.5554
  167SAPE   H3X18870  -0.265   5.238   6.385 -0.2762 -0.0958  1.0654
  167SAPE   H3Y18871  -0.293   5.076   6.312 -1.2351 -0.1606  0.3719
  167SAPE   C3418872  -0.478   5.158   6.369 -0.4257  0.1686 -0.0769
  167SAPE   H4X18873  -0.528   5.108   6.284  1.0890  1.1740 -1.6319
  167SAPE   H4Y18874  -0.528   5.256   6.382  0.9684  0.8454  0.3587
  167SAPE   C3518875  -0.507   5.073   6.498 -0.2794  0.7941  0.5619
  167SAPE   H5X18876  -0.452   4.977   6.491 -1.4315  0.1913 -0.8084
  167SAPE   H5Y18877  -0.613   5.041   6.507 -0.3201  0.4551 -0.9614
  167SAPE   C3618878  -0.480   5.151   6.626  0.3352 -0.8439 -0.1226
  167SAPE   H6X18879  -0.519   5.255   6.623 -3.1178 -1.8943  2.1103
  167SAPE   H6Y18880  -0.371   5.152   6.646  0.4030 -0.6281 -0.5032
  167SAPE   C3718881  -0.542   5.094   6.752 -0.5168  0.0332  0.6627
  167SAPE   H7X18882  -0.486   5.144   6.834 -0.1319 -0.5259  0.7489
  167SAPE   H7Y18883  -0.537   4.983   6.759 -0.9396  0.1022  3.4543
  167SAPE   C3818884  -0.690   5.136   6.766  0.0482 -0.3106  0.5059
  167SAPE   H8X18885  -0.747   5.081   6.688 -0.0127 -0.0264  0.3456
  167SAPE   H8Y18886  -0.688   5.247   6.758 -0.8945 -0.0492  2.9983
  167SAPE   C3918887  -0.771   5.104   6.896  0.2682  0.3064 -0.4492
  167SAPE   H9X18888  -0.741   5.004   6.933 -0.4068 -0.3320 -1.5525
  167SAPE   H9Y18889  -0.879   5.109   6.869 -0.1720  0.6440  1.2605
  167SAPE  C31018890  -0.736   5.197   7.015 -0.0621 -0.3710  0.5881
  167SAPE  H10X18891  -0.749   5.301   6.976 -0.0166 -0.4203  0.4393
  167SAPE  H10Y18892  -0.631   5.179   7.046 -0.5916 -0.7823  2.2242
  167SAPE  C31118893  -0.824   5.180   7.135 -0.1745 -0.0066 -1.1437
  167SAPE  H11X18894  -0.804   5.078   7.174 -0.1232 -0.3507 -2.0626
  167SAPE  H11Y18895  -0.934   5.186   7.119 -0.2181  1.5379 -0.4252
  167SAPE  C31218896  -0.790   5.276   7.251  0.1421  0.4814 -0.4931
  167SAPE  H12X18897  -0.835   5.376   7.235  0.2760  0.5764 -0.2750
  167SAPE  H12Y18898  -0.683   5.286   7.280  0.3179  0.9565 -1.2735
  167SAPE  C31318899  -0.867   5.227   7.372  0.4532  0.0121  0.3076
  167SAPE  H13X18900  -0.841   5.122   7.395  0.5718  0.3085  1.5634
  167SAPE  H13Y18901  -0.976   5.221   7.351  0.1870 -0.2407  1.6791
  167SAPE  C31418902  -0.849   5.306   7.507  0.0759  0.3852 -0.1704
  167SAPE  H14X18903  -0.861   5.415   7.494  2.3497  0.5176 -1.8750
  167SAPE  H14Y18904  -0.744   5.289   7.541 -0.0110  0.0175 -0.0791
  167SAPE  C31518905  -0.946   5.265   7.617  0.4506 -0.9302  0.4441
  167SAPE  H15X18906  -0.952   5.155   7.610  2.2764 -0.9501 -3.7638
  167SAPE  H15Y18907  -1.047   5.309   7.601 -0.0204 -1.9743  0.4958
  167SAPE  C31618908  -0.894   5.310   7.753 -0.3228 -0.0290 -0.6494
  167SAPE  H16X18909  -0.895   5.421   7.757  0.4875 -0.0449  0.5257
  167SAPE  H16Y18910  -0.783   5.300   7.758 -0.2785  0.7879  0.1900
  167SAPE  C31718911  -0.956   5.245   7.880 -1.0181 -0.6928 -0.2986
  167SAPE  H17X18912  -0.944   5.134   7.880  1.1993 -0.5116  1.3290
  167SAPE  H17Y18913  -1.066   5.263   7.878 -0.9689  0.0624  1.5338
  167SAPE  C31818914  -0.901   5.301   8.016  0.1062  0.0595  0.6352
  167SAPE  H18X18915  -0.814   5.235   8.034 -0.0209 -0.0390  0.8989
  167SAPE  H18Y18916  -0.982   5.287   8.091 -2.6798  0.5549 -2.0555
  167SAPE  H18Z18917  -0.877   5.410   8.014 -2.4113  0.6806  0.6092
  168SAPE     N18918   0.262   6.575   6.368  0.1229  0.0270  0.1675
  168SAPE   HN118919   0.297   6.491   6.319  1.6428 -0.6327  2.2274
  168SAPE   HN218920   0.158   6.574   6.366 -0.0061 -0.5303  2.9555
  168SAPE   HN318921   0.304   6.668   6.348  2.0371 -0.3753  1.8870
  168SAPE   C1218922   0.324   6.552   6.503 -0.3709 -0.0454  0.1630
  168SAPE  H12A18923   0.287   6.618   6.584 -0.4759  0.8503 -0.5957
  168SAPE  H12B18924   0.433   6.556   6.482 -0.6411 -0.1301 -1.4560
  168SAPE   C1118925   0.280   6.418   6.548  0.7447  0.2869  1.1711
  168SAPE  H11A18926   0.170   6.428   6.558  0.0588 -1.0873 -2.9602
  168SAPE  H11B18927   0.315   6.393   6.650  0.1929  1.3582  1.6448
  168SAPE     P18928   0.430   6.229   6.456  0.4326  0.3047 -0.1764
  168SAPE   O1318929   0.392   6.095   6.403 -0.3263  0.6581  0.5572
  168SAPE   O1418930   0.538   6.295   6.383 -0.4553  0.0919  0.4193
  168SAPE   O1218931   0.304   6.319   6.447 -0.0032  0.5451  0.3688
  168SAPE   O1118932   0.469   6.214   6.605 -0.0448  0.1763 -0.4257
  168SAPE    C118933   0.493   6.082   6.657 -0.1348 -0.9122 -0.0473
  168SAPE    HA18934   0.399   6.028   6.682 -0.4422 -0.0063  0.8278
  168SAPE    HB18935   0.562   6.019   6.597  0.6616 -1.8675  1.7806
  168SAPE    C218936   0.571   6.094   6.792 -0.1820 -0.2751  0.3457
  168SAPE    HS18937   0.590   5.995   6.839 -0.7382 -0.2098  0.7156
  168SAPE   O2118938   0.502   6.172   6.893  0.1430 -0.1732 -0.0074
  168SAPE   C2118939   0.391   6.118   6.937  0.8929 -0.1420  0.0968
  168SAPE   O2218940   0.363   5.998   6.928  0.2502 -0.3793 -0.1107
  168SAPE   C2218941   0.320   6.215   7.032  0.1299 -0.2667  0.1474
  168SAPE   H2R18942   0.301   6.311   6.979  1.3603 -0.9151 -1.5825
  168SAPE   H2S18943   0.222   6.173   7.062  0.5659 -1.2233  0.2764
  168SAPE    C318944   0.711   6.161   6.773 -0.7208 -0.2446 -0.2256
  168SAPE    HX18945   0.688   6.264   6.740  0.2539 -0.0845 -0.4460
  168SAPE    HY18946   0.766   6.124   6.684 -0.4613 -1.3029  0.3537
  168SAPE   O3118947   0.792   6.167   6.890  0.3612  0.3573  0.1425
  168SAPE   C3118948   0.854   6.049   6.902 -0.2295  0.2877 -0.0583
  168SAPE   O3218949   0.865   5.969   6.815 -0.3556  0.2324 -0.6422
  168SAPE   C3218950   0.924   6.048   7.035  0.1251 -0.3569 -0.3726
  168SAPE   H2X18951   0.843   6.057   7.111 -0.5102 -0.4662 -1.0275
  168SAPE   H2Y18952   0.994   6.133   7.044  0.4731 -0.5960 -0.8020
  168SAPE   C2318953   0.405   6.256   7.158  0.7786 -0.4320  0.4651
  168SAPE   H3R18954   0.475   6.335   7.124 -0.2712  0.0681 -0.6189
  168SAPE   H3S18955   0.456   6.167   7.200  0.2513 -1.1094 -0.3055
  168SAPE   C2418956   0.300   6.326   7.248 -0.4496  1.1484  0.3855
  168SAPE   H4R18957   0.223   6.248   7.267  1.4843 -1.3046 -1.2299
  168SAPE   H4S18958   0.246   6.402   7.187  1.6205  1.4115 -1.2494
  168SAPE   C2518959   0.366   6.387   7.371 -0.2655  0.6314  0.1815
  168SAPE   H5R18960   0.406   6.306   7.433  0.0644 -0.9946 -2.0268
  168SAPE   C2618961   0.370   6.518   7.404 -0.7209 -0.4741  0.1389
  168SAPE   H6R18962   0.415   6.556   7.497  1.0529 -1.9899 -0.0242
  168SAPE   C2718963   0.328   6.635   7.319 -0.6379 -0.0737  0.5971
  168SAPE   H7R18964   0.314   6.727   7.380  0.7899  0.8487 -0.3865
  168SAPE   H7S18965   0.227   6.614   7.277 -0.5153 -0.8631  0.6946
  168SAPE   C2818966   0.417   6.691   7.205  0.2427  0.3640  0.2861
  168SAPE   H8R18967   0.385   6.657   7.106 -0.0074 -1.9982  1.1122
  168SAPE   C2918968   0.511   6.785   7.220 -0.2030 -0.0966  0.1433
  168SAPE   H9R18969   0.571   6.820   7.135 -0.1035  0.3755  0.4044
  168SAPE  C21018970   0.560   6.849   7.345 -0.0663 -0.1686 -0.1317
  168SAPE  H10R18971   0.522   6.802   7.439 -2.3741  1.1173 -0.3507
  168SAPE  H10S18972   0.536   6.958   7.343  0.8959  0.0858  0.9576
  168SAPE  C21118973   0.711   6.830   7.356  0.4348  0.3464  0.5213
  168SAPE  H11R18974   0.729   6.768   7.445  0.7127 -1.1942 -0.5708
  168SAPE  C21218975   0.812   6.883   7.287  1.0722 -0.3492 -0.0077
  168SAPE  H12R18976   0.912   6.854   7.322  0.6448 -2.4435 -0.3842
  168SAPE  C21318977   0.794   6.986   7.180 -0.6497  0.4310  0.5268
  168SAPE  H13R18978   0.699   6.979   7.123  0.2270  1.0909 -1.0826
  168SAPE  H13S18979   0.854   6.951   7.093 -4.7541 -1.6925 -1.7578
  168SAPE  C21418980   0.821   7.124   7.230 -0.0666 -0.0290  0.1014
  168SAPE  H14R18981   0.737   7.176   7.280  0.5491  1.5551 -0.4615
  168SAPE  C21518982   0.940   7.187   7.243 -0.9502  0.3102  0.9970
  168SAPE  H15R18983   0.951   7.291   7.279 -0.6633 -0.3742  3.0123
  168SAPE  C21618984   1.065   7.110   7.196 -0.2739  0.0710  0.0606
  168SAPE  H16R18985   1.084   7.115   7.087 -3.0753 -2.4996 -0.6627
  168SAPE  H16S18986   1.043   7.001   7.199  1.0114 -0.2120 -0.1370
  168SAPE  C21718987   1.185   7.140   7.286 -0.6437 -0.1146  0.0354
  168SAPE  H17R18988   1.221   7.245   7.281  2.1167 -0.9889 -0.3109
  168SAPE  H17S18989   1.267   7.079   7.243 -1.7558 -0.1366 -2.2130
  168SAPE  C21818990   1.178   7.106   7.433  0.2709  0.2580  0.4147
  168SAPE  H18R18991   1.130   7.006   7.434  2.2293 -0.9588 -3.7177
  168SAPE  H18S18992   1.112   7.177   7.487  1.7455  1.2019  1.0547
  168SAPE  C21918993   1.321   7.096   7.496 -0.8102  0.3334 -0.1706
  168SAPE  H19R18994   1.342   7.205   7.500  1.2293 -0.0403  2.4227
  168SAPE  H19S18995   1.399   7.042   7.438 -0.8257 -1.3809  1.3040
  168SAPE  C22018996   1.312   7.033   7.634  0.1570 -0.5378  0.7503
  168SAPE  H20R18997   1.229   7.082   7.691  0.3557  1.2009 -0.3924
  168SAPE  H20S18998   1.404   7.051   7.694  0.8498  0.8913 -0.6712
  168SAPE  H20T18999   1.307   6.922   7.636 -0.6911 -0.5014  1.2904
  168SAPE   C3319000   0.989   5.906   7.066  0.5956  0.2508 -0.1648
  168SAPE   H3X19001   1.087   5.896   7.015  0.8692 -4.4922  0.8916
  168SAPE   H3Y19002   0.922   5.827   7.028 -2.7456  2.6895  0.1841
  168SAPE   C3419003   1.019   5.890   7.216 -0.0699 -0.5862 -0.2438
  168SAPE   H4X19004   0.930   5.907   7.279 -0.2148 -0.4760 -0.4770
  168SAPE   H4Y19005   1.107   5.955   7.232  1.0412 -1.7376 -1.3548
  168SAPE   C3519006   1.077   5.748   7.261  0.5839 -0.2053  0.3289
  168SAPE   H5X19007   1.163   5.721   7.196  0.0957 -0.0854 -0.3854
  168SAPE   H5Y19008   0.990   5.679   7.250 -1.0871  1.7231  0.7270
  168SAPE   C3619009   1.120   5.735   7.403  0.1282  0.5049 -0.2846
  168SAPE   H6X19010   1.220   5.781   7.418  0.4055  0.3205 -1.4672
  168SAPE   H6Y19011   1.157   5.630   7.414 -1.6687 -0.1018  0.3513
  168SAPE   C3719012   1.024   5.800   7.506  0.0648 -0.5920 -0.1669
  168SAPE   H7X19013   0.925   5.751   7.494  0.2418 -0.7343 -1.1186
  168SAPE   H7Y19014   1.008   5.909   7.493  0.3795 -0.8027 -2.6480
  168SAPE   C3819015   1.082   5.795   7.642 -0.4097  0.2661 -0.7975
  168SAPE   H8X19016   1.174   5.855   7.653 -0.0585 -0.5885  1.5744
  168SAPE   H8Y19017   1.125   5.695   7.662  0.9187  1.1234  0.8501
  168SAPE   C3919018   0.974   5.837   7.748 -0.2961  0.3263  0.7499
  168SAPE   H9X19019   0.947   5.940   7.713  3.5434  0.7508 -1.5913
  168SAPE   H9Y19020   1.020   5.850   7.849  1.3263  1.0936 -0.0347
  168SAPE  C31019021   0.848   5.751   7.756 -0.5676  0.2143 -0.0411
  168SAPE  H10X19022   0.885   5.648   7.778 -1.0926  0.1166  0.4160
  168SAPE  H10Y19023   0.790   5.752   7.661  0.2018 -0.2258 -0.5301
  168SAPE  C31119024   0.752   5.781   7.874 -0.0710 -0.1235  0.3492
  168SAPE  H11X19025   0.786   5.735   7.969  0.7780 -0.8774 -0.3125
  168SAPE  H11Y19026   0.658   5.729   7.846  1.0744 -0.1404 -4.2307
  168SAPE  C31219027   0.728   5.937   7.888 -0.0662  0.9135 -0.0399
  168SAPE  H12X19028   0.672   5.954   7.794 -0.4900 -2.7240 -0.6089
  168SAPE  H12Y19029   0.828   5.985   7.899  1.0636 -1.7619  2.6608
  168SAPE  C31319030   0.653   5.960   8.016 -0.2956 -0.5505 -0.1583
  168SAPE  H13X19031   0.701   5.924   8.109  3.1782 -1.7019 -2.2141
  168SAPE  H13Y19032   0.555   5.907   8.017 -0.2931 -0.5475  0.1983
  168SAPE  C31419033   0.636   6.110   8.040  0.3610  0.5072  0.3861
  168SAPE  H14X19034   0.526   6.129   8.035 -0.0318 -1.6784 -0.5920
  168SAPE  H14Y19035   0.685   6.169   7.960  2.2256  1.2709  2.0100
  168SAPE  C31519036   0.683   6.150   8.176 -0.2268 -0.5985  0.1873
  168SAPE  H15X19037   0.780   6.098   8.192 -0.8009 -1.1805  2.0275
  168SAPE  H15Y19038   0.615   6.109   8.254 -1.3055  1.2141  0.2738
  168SAPE  C31619039   0.707   6.301   8.196 -0.1032  0.4922 -0.1100
  168SAPE  H16X19040   0.613   6.359   8.190  0.1398  0.8982 -0.0363
  168SAPE  H16Y19041   0.774   6.338   8.115  1.1127 -1.5751 -0.1345
  168SAPE  C31719042   0.780   6.333   8.336  0.4958  0.2980  0.1421
  168SAPE  H17X19043   0.866   6.263   8.340 -0.2364 -0.6172  0.0697
  168SAPE  H17Y19044   0.717   6.308   8.424 -0.6319 -0.5940 -0.8810
  168SAPE  C31819045   0.814   6.485   8.337  0.1328 -0.4956 -0.5516
  168SAPE  H18X19046   0.849   6.524   8.239 -0.2036 -0.3424 -0.6113
  168SAPE  H18Y19047   0.881   6.510   8.421  0.2633 -0.8555 -0.5452
  168SAPE  H18Z19048   0.723   6.545   8.361  0.3994  0.7299 -2.4001
  169SAPE     N19049   5.763   2.901   6.297 -0.9338  0.1811  0.1159
  169SAPE   HN119050   5.759   3.001   6.269 -0.3043 -0.3784 -2.2137
  169SAPE   HN219051   5.823   2.837   6.242  0.1551  1.6238 -0.4266
  169SAPE   HN319052   5.669   2.861   6.320 -0.8405  0.7924  1.7284
  169SAPE   C1219053   5.840   2.888   6.431  0.2783  0.1000 -0.1766
  169SAPE  H12A19054   5.818   2.975   6.498  0.9227 -0.8475  1.3087
  169SAPE  H12B19055   5.949   2.881   6.412  0.0894 -0.5486 -1.1029
  169SAPE   C1119056   5.818   2.743   6.476  0.4491  0.6727  0.1611
  169SAPE  H11A19057   5.717   2.748   6.522  1.1196  2.2790  1.5429
  169SAPE  H11B19058   5.889   2.713   6.555  2.5295  2.0640 -1.0683
  169SAPE     P19059   5.931   2.551   6.345  0.0719 -0.4000 -0.0364
  169SAPE   O1319060   5.883   2.438   6.263  0.1033  0.4392  0.0859
  169SAPE   O1419061   6.046   2.636   6.307 -0.5310 -0.4583  0.0774
  169SAPE   O1219062   5.812   2.649   6.373 -0.3685 -0.1718 -0.2026
  169SAPE   O1119063   5.968   2.486   6.487  0.1342 -0.7868  0.0236
  169SAPE    C119064   5.892   2.385   6.546  0.3906  0.4627 -0.2091
  169SAPE    HA19065   5.787   2.398   6.512  0.2922  0.3191  0.0358
  169SAPE    HB19066   5.917   2.284   6.506  0.0928 -0.1146  1.0089
  169SAPE    C219067   5.903   2.375   6.702 -0.1786 -0.3098 -0.3022
  169SAPE    HS19068   5.831   2.299   6.739  0.3501 -0.5138  0.3221
  169SAPE   O2119069   5.865   2.500   6.759 -0.2256  0.1851 -0.9055
  169SAPE   C2119070   5.729   2.527   6.747 -0.4808  0.2890 -0.0961
  169SAPE   O2219071   5.657   2.464   6.679  0.6054  0.4339 -0.6129
  169SAPE   C2219072   5.698   2.665   6.807 -0.6427  0.3926 -0.4339
  169SAPE   H2R19073   5.751   2.662   6.904  1.0720  0.0890 -1.3428
  169SAPE   H2S19074   5.752   2.740   6.745 -0.5377 -0.4768 -1.4158
  169SAPE    C319075   6.045   2.316   6.746 -1.0787  0.1195  0.8215
  169SAPE    HX19076   6.114   2.402   6.732  0.4581 -1.2305 -0.3182
  169SAPE    HY19077   6.076   2.232   6.681  0.1953  1.2089 -0.0218
  169SAPE   O3119078   6.048   2.275   6.884 -0.0673 -0.8251 -1.0244
  169SAPE   C3119079   6.176   2.264   6.925  0.2401  0.1964  0.3607
  169SAPE   O3219080   6.271   2.284   6.853 -0.3917 -0.1361 -0.0911
  169SAPE   C3219081   6.185   2.213   7.064 -0.3480 -0.1129 -0.6373
  169SAPE   H2X19082   6.294   2.194   7.074 -0.6280 -1.5274 -0.1242
  169SAPE   H2Y19083   6.122   2.126   7.090  1.3124 -1.0506  0.4620
  169SAPE   C2319084   5.550   2.687   6.824 -0.5969 -0.1696  0.6603
  169SAPE   H3R19085   5.502   2.593   6.859  0.2079 -0.7336  0.2824
  169SAPE   H3S19086   5.509   2.688   6.721  0.8236  1.4211  0.0635
  169SAPE   C2419087   5.501   2.812   6.897 -0.4497 -0.6642  0.5837
  169SAPE   H4R19088   5.390   2.819   6.888 -0.4982 -3.0789 -2.5371
  169SAPE   H4S19089   5.520   2.902   6.835 -0.6378 -1.1387 -0.1828
  169SAPE   C2519090   5.557   2.817   7.033  0.4503  0.2966 -0.6539
  169SAPE   H5R19091   5.667   2.828   7.034  0.3874  1.4856 -2.3637
  169SAPE   C2619092   5.492   2.790   7.147 -0.7028 -0.6215  0.0709
  169SAPE   H6R19093   5.548   2.791   7.242 -1.9669 -2.5041  0.8893
  169SAPE   C2719094   5.345   2.761   7.169  0.0761  0.5943  0.5810
  169SAPE   H7R19095   5.275   2.805   7.095  1.3430 -1.2725 -1.8478
  169SAPE   H7S19096   5.320   2.813   7.264 -1.3450  0.0936  0.5009
  169SAPE   C2819097   5.314   2.613   7.173  0.1794 -0.0519 -0.7593
  169SAPE   H8R19098   5.304   2.554   7.081  1.8282 -0.5927 -0.6130
  169SAPE   C2919099   5.285   2.541   7.289 -0.2269  0.2018  0.1030
  169SAPE   H9R19100   5.249   2.440   7.266  0.0924 -0.0486  0.6968
  169SAPE  C21019101   5.287   2.587   7.433 -0.4236  0.4184  0.5759
  169SAPE  H10R19102   5.185   2.586   7.478 -0.0208  2.1788  1.6029
  169SAPE  H10S19103   5.340   2.683   7.450 -1.7570  0.6857  4.1291
  169SAPE  C21119104   5.351   2.491   7.536  0.5318  0.3634  0.1224
  169SAPE  H11R19105   5.382   2.394   7.495 -0.4664  0.4957 -1.0409
  169SAPE  C21219106   5.368   2.526   7.661 -0.0870 -0.6101 -0.1092
  169SAPE  H12R19107   5.412   2.452   7.730  0.3754 -1.6158 -1.4549
  169SAPE  C21319108   5.329   2.664   7.723  0.3162  0.6567  0.3729
  169SAPE  H13R19109   5.221   2.664   7.747  0.5295 -1.3114  1.5135
  169SAPE  H13S19110   5.347   2.750   7.655  1.7810  0.9871  1.1189
  169SAPE  C21419111   5.418   2.701   7.842 -0.4328  0.0282  0.7036
  169SAPE  H14R19112   5.503   2.766   7.819 -1.3302  0.9866 -0.0309
  169SAPE  C21519113   5.384   2.656   7.965 -0.6858 -0.1230  0.7679
  169SAPE  H15R19114   5.442   2.710   8.041  0.6092 -0.4372  0.0492
  169SAPE  C21619115   5.283   2.561   8.008 -0.0599  0.5111 -0.3628
  169SAPE  H16R19116   5.238   2.501   7.926  0.5765  0.2458 -0.5256
  169SAPE  H16S19117   5.194   2.610   8.054 -0.6441 -0.7823 -0.0522
  169SAPE  C21719118   5.329   2.447   8.103 -0.5474 -0.1047 -0.4060
  169SAPE  H17R19119   5.427   2.408   8.069  0.4333  1.9286 -0.1111
  169SAPE  H17S19120   5.260   2.360   8.099  1.6581 -1.9224 -0.6479
  169SAPE  C21819121   5.332   2.489   8.253  0.2450 -0.2753 -0.7241
  169SAPE  H18R19122   5.344   2.599   8.252 -0.2777 -0.1796  0.6378
  169SAPE  H18S19123   5.414   2.454   8.320 -1.2845  0.5575  1.7230
  169SAPE  C21919124   5.201   2.457   8.325 -0.0653  0.6387  0.0763
  169SAPE  H19R19125   5.177   2.351   8.302 -0.8043  0.1539  2.6576
  169SAPE  H19S19126   5.115   2.512   8.281  0.2542 -0.2989 -1.8317
  169SAPE  C22019127   5.206   2.483   8.476 -0.0276 -0.4008 -0.2908
  169SAPE  H20R19128   5.108   2.471   8.526  1.1191  0.9630  2.5877
  169SAPE  H20S19129   5.242   2.583   8.509  2.1000 -1.0735 -0.3990
  169SAPE  H20T19130   5.267   2.400   8.518  0.6440 -0.6476 -1.6913
  169SAPE   C3319131   6.157   2.321   7.178 -0.4816  0.5187 -0.1904
  169SAPE   H3X19132   6.049   2.339   7.194 -0.6013 -0.7708  0.6766
  169SAPE   H3Y19133   6.219   2.412   7.168 -0.0464  0.1849 -0.5959
  169SAPE   C3419134   6.189   2.262   7.321  0.1055 -0.7735  0.2821
  169SAPE   H4X19135   6.295   2.230   7.326  0.3159  0.0164  1.2427
  169SAPE   H4Y19136   6.125   2.173   7.338 -1.4471  0.1532 -0.5118
  169SAPE   C3519137   6.168   2.373   7.434  0.3653  0.2578  0.5350
  169SAPE   H5X19138   6.064   2.407   7.416 -0.0634 -1.9063 -1.6581
  169SAPE   H5Y19139   6.225   2.465   7.410 -1.4101  0.7778 -2.0268
  169SAPE   C3619140   6.210   2.329   7.572 -0.0927  0.0306  0.4725
  169SAPE   H6X19141   6.309   2.278   7.569  1.6112  3.0715 -2.2264
  169SAPE   H6Y19142   6.131   2.260   7.609 -2.1075  2.2323  0.4742
  169SAPE   C3719143   6.202   2.452   7.669  0.4275 -0.1025 -0.8560
  169SAPE   H7X19144   6.114   2.518   7.652  0.7454  0.9506  1.1873
  169SAPE   H7Y19145   6.296   2.508   7.650  1.0372 -0.5454  0.7163
  169SAPE   C3819146   6.189   2.413   7.815 -0.4375 -0.5729  0.2163
  169SAPE   H8X19147   6.096   2.353   7.815 -0.8642  0.0729 -0.0159
  169SAPE   H8Y19148   6.184   2.501   7.884  1.8409  0.0361 -0.2981
  169SAPE   C3919149   6.301   2.317   7.864  0.1845  0.0414  0.0898
  169SAPE   H9X19150   6.394   2.378   7.868  0.1723  0.0765 -0.1551
  169SAPE   H9Y19151   6.317   2.226   7.802 -0.3019  1.9570 -3.0679
  169SAPE  C31019152   6.258   2.256   8.000  0.2305  0.1522 -0.5789
  169SAPE  H10X19153   6.346   2.190   8.018  0.1908  0.4370  0.7749
  169SAPE  H10Y19154   6.166   2.194   7.991  1.3305 -1.3257 -2.3381
  169SAPE  C31119155   6.245   2.352   8.115 -0.2615  0.6736  0.4170
  169SAPE  H11X19156   6.158   2.422   8.112 -1.4002 -0.7242 -1.1843
  169SAPE  H11Y19157   6.328   2.425   8.102  1.0312 -0.5903  1.3404
  169SAPE  C31219158   6.270   2.287   8.250 -0.3438 -0.0097 -0.5802
  169SAPE  H12X19159   6.360   2.223   8.252  0.6874  1.3624  1.5801
  169SAPE  H12Y19160   6.180   2.230   8.281 -0.5671  0.5820 -0.1043
  169SAPE  C31319161   6.288   2.379   8.372  0.2471  0.3080  0.0267
  169SAPE  H13X19162   6.323   2.316   8.457 -1.5924 -1.7301 -0.6420
  169SAPE  H13Y19163   6.190   2.426   8.394 -0.7624 -1.6303 -0.1478
  169SAPE  C31419164   6.396   2.484   8.348  0.3668  0.3014  0.1029
  169SAPE  H14X19165   6.357   2.571   8.291 -0.5232  1.1177  1.8671
  169SAPE  H14Y19166   6.476   2.436   8.288  0.1566  0.0664  0.0059
  169SAPE  C31519167   6.445   2.534   8.479 -0.1528 -0.5123  0.2591
  169SAPE  H15X19168   6.463   2.451   8.550 -0.9204 -0.5933  0.3674
  169SAPE  H15Y19169   6.374   2.600   8.533  1.4808  0.6709  1.0249
  169SAPE  C31619170   6.576   2.610   8.464 -0.1319  0.6529 -0.6201
  169SAPE  H16X19171   6.557   2.697   8.398  1.2476  1.1076 -0.4671
  169SAPE  H16Y19172   6.644   2.539   8.412  0.5992  0.2681  0.7957
  169SAPE  C31719173   6.626   2.648   8.605 -0.1531  0.3670 -0.4786
  169SAPE  H17X19174   6.644   2.558   8.668 -1.0721 -1.0241 -2.0997
  169SAPE  H17Y19175   6.555   2.716   8.658  1.3357 -0.1387  2.4026
  169SAPE  C31819176   6.763   2.720   8.587  0.0627 -0.3555 -0.4422
  169SAPE  H18X19177   6.797   2.756   8.687 -2.2766 -2.4253  1.2655
  169SAPE  H18Y19178   6.744   2.807   8.520  0.7459  0.2003  0.0703
  169SAPE  H18Z19179   6.830   2.652   8.532  0.7043 -0.2345  0.1790
  170SAPE     N19180   1.724   0.103   5.981  0.4615 -0.2660  0.5070
  170SAPE   HN119181   1.647   0.133   5.917  1.0457 -2.1656 -1.2070
  170SAPE   HN219182   1.801   0.077   5.916  0.1736 -0.0117  0.0618
  170SAPE   HN319183   1.694   0.010   6.018  1.7469 -0.3187  1.4663
  170SAPE   C1219184   1.747   0.207   6.084 -0.4975  0.1721  0.8314
  170SAPE  H12A19185   1.779   0.303   6.036  0.0764  0.6752  2.1818
  170SAPE  H12B19186   1.827   0.171   6.151 -0.0116  0.5399  0.4609
  170SAPE   C1119187   1.620   0.231   6.166  0.5585 -0.7462 -0.5067
  170SAPE  H11A19188   1.640   0.299   6.251 -0.8213 -2.5688  1.4008
  170SAPE  H11B19189   1.600   0.133   6.216 -1.6168 -0.8661 -1.4920
  170SAPE     P19190   1.444   0.420   6.090  0.2744 -0.1965 -0.0714
  170SAPE   O1319191   1.542   0.527   6.078 -0.1649 -0.4138 -0.0479
  170SAPE   O1419192   1.328   0.425   6.001 -0.5212  0.8426 -0.6377
  170SAPE   O1219193   1.510   0.277   6.090 -0.0628 -0.1312  0.5837
  170SAPE   O1119194   1.392   0.443   6.239  1.0831  0.1139 -0.1024
  170SAPE    C119195   1.260   0.398   6.278  0.5608  0.0012  0.0770
  170SAPE    HA19196   1.189   0.476   6.243  2.1741  0.9291 -1.2952
  170SAPE    HB19197   1.227   0.306   6.225 -0.4543 -0.7355  1.9166
  170SAPE    C219198   1.251   0.380   6.427 -0.0240  0.2245 -0.7334
  170SAPE    HS19199   1.150   0.338   6.440  0.3249 -0.3717  0.1338
  170SAPE   O2119200   1.276   0.513   6.486  0.2634 -0.8142 -0.1106
  170SAPE   C2119201   1.148   0.566   6.519  0.2642 -0.2824 -0.2254
  170SAPE   O2219202   1.041   0.518   6.479  0.4082 -0.0294 -0.0311
  170SAPE   C2219203   1.162   0.692   6.598 -0.1498  0.5829 -0.0155
  170SAPE   H2R19204   1.210   0.771   6.536 -2.6900  1.6888 -0.6762
  170SAPE   H2S19205   1.061   0.720   6.634  0.7076  0.4057  2.8514
  170SAPE    C319206   1.354   0.280   6.483  0.5253  0.1121  0.3241
  170SAPE    HX19207   1.454   0.327   6.480  1.5429 -1.9125  0.8456
  170SAPE    HY19208   1.355   0.189   6.420 -0.0506 -1.6173  2.6445
  170SAPE   O3119209   1.336   0.252   6.624 -0.8727 -0.0990  1.0687
  170SAPE   C3119210   1.303   0.130   6.658  0.1242 -0.6856 -0.2725
  170SAPE   O3219211   1.282   0.035   6.582 -0.0356 -0.5983  0.0919
  170SAPE   C3219212   1.294   0.134   6.811 -0.2102  0.3565  0.1200
  170SAPE   H2X19213   1.224   0.218   6.826 -0.9679 -0.4764  1.4774
  170SAPE   H2Y19214   1.397   0.150   6.849 -0.8471 -0.7480  2.4939
  170SAPE   C2319215   1.249   0.680   6.722  0.6784  0.4819 -0.2415
  170SAPE   H3R19216   1.230   0.771   6.782 -3.1091  0.2378 -0.7833
  170SAPE   H3S19217   1.356   0.662   6.701  0.6664 -0.5549  0.4654
  170SAPE   C2419218   1.199   0.559   6.804 -0.8213  0.1004 -0.7279
  170SAPE   H4R19219   1.213   0.464   6.748  0.3342  0.5872 -1.2791
  170SAPE   H4S19220   1.091   0.579   6.821 -0.8588 -0.2297 -0.5569
  170SAPE   C2519221   1.271   0.553   6.940  0.2006  0.2124 -0.8445
  170SAPE   H5R19222   1.341   0.469   6.951 -0.3639 -0.1628 -0.0083
  170SAPE   C2619223   1.249   0.632   7.052 -0.1147  0.5862 -0.5190
  170SAPE   H6R19224   1.313   0.627   7.142 -0.0970 -0.3885 -0.5766
  170SAPE   C2719225   1.137   0.722   7.069 -0.2710  0.5645 -0.0443
  170SAPE   H7R19226   1.050   0.672   7.117 -0.7207 -0.8051 -2.1677
  170SAPE   H7S19227   1.090   0.755   6.974 -2.2567 -0.7625  0.4227
  170SAPE   C2819228   1.170   0.852   7.128  0.0061  0.0764 -0.6929
  170SAPE   H8R19229   1.198   0.929   7.054 -0.3216 -0.9548 -1.9357
  170SAPE   C2919230   1.177   0.878   7.259  0.4769 -1.0095  0.0218
  170SAPE   H9R19231   1.182   0.983   7.291 -1.3018 -0.7874 -0.3495
  170SAPE  C21019232   1.146   0.779   7.371 -0.7675 -0.2238  0.3223
  170SAPE  H10R19233   1.142   0.674   7.336 -0.0400  0.3556 -1.6256
  170SAPE  H10S19234   1.041   0.796   7.402 -0.4923 -0.2732  1.3191
  170SAPE  C21119235   1.253   0.786   7.478  0.2027  0.4807 -0.3537
  170SAPE  H11R19236   1.348   0.836   7.452  0.9767  0.6840  2.4535
  170SAPE  C21219237   1.247   0.731   7.605  0.0207 -0.0350  0.4612
  170SAPE  H12R19238   1.341   0.719   7.660  1.1219 -1.1426 -1.5576
  170SAPE  C21319239   1.123   0.653   7.646  0.1984  0.0408 -0.1233
  170SAPE  H13R19240   1.075   0.590   7.568  1.5792  0.6851 -1.5514
  170SAPE  H13S19241   1.056   0.737   7.671  0.8789  0.6846 -0.4216
  170SAPE  C21419242   1.142   0.566   7.770  1.0960  0.6956 -0.3160
  170SAPE  H14R19243   1.244   0.547   7.809  1.8855  1.4856 -1.8945
  170SAPE  C21519244   1.041   0.500   7.829 -1.0687  0.5329  0.1171
  170SAPE  H15R19245   1.058   0.439   7.918 -2.6306  0.1155  0.1549
  170SAPE  C21619246   0.894   0.495   7.798  0.5731 -0.5068  0.7258
  170SAPE  H16R19247   0.867   0.588   7.743  2.5730  0.3624  1.1234
  170SAPE  H16S19248   0.850   0.515   7.898 -2.5480 -1.2394 -0.3709
  170SAPE  C21719249   0.852   0.372   7.713  0.0805  0.2864  0.1741
  170SAPE  H17R19250   0.893   0.278   7.755  1.3534 -0.4466 -2.5064
  170SAPE  H17S19251   0.893   0.381   7.610  0.3993  2.1582  0.4248
  170SAPE  C21819252   0.696   0.363   7.713 -0.3109  0.5252  0.4064
  170SAPE  H18R19253   0.673   0.289   7.633 -0.7516 -0.7921  1.7182
  170SAPE  H18S19254   0.654   0.460   7.681  1.1696  1.1222  0.1728
  170SAPE  C21919255   0.640   0.321   7.845 -0.1069  0.1588 -0.2934
  170SAPE  H19R19256   0.677   0.396   7.917  0.4390 -0.2809 -0.1077
  170SAPE  H19S19257   0.677   0.222   7.878  1.1008  1.3576  2.1549
  170SAPE  C22019258   0.488   0.310   7.859 -0.3385 -0.0481  0.1459
  170SAPE  H20R19259   0.445   0.261   7.770 -0.2435 -0.9435  0.5864
  170SAPE  H20S19260   0.451   0.410   7.892  2.4402  0.7083  1.3543
  170SAPE  H20T19261   0.471   0.243   7.946  0.6747  1.1403  1.3025
  170SAPE   C3319262   1.237   0.003   6.880  0.1329  0.3962  0.2481
  170SAPE   H3X19263   1.274  -0.087   6.826  1.9088  1.0914  0.2410
  170SAPE   H3Y19264   1.126   0.009   6.875 -0.1072 -0.2217  2.9220
  170SAPE   C3419265   1.293  -0.002   7.026 -0.5680 -0.1733 -0.5458
  170SAPE   H4X19266   1.296   0.104   7.061 -0.3068 -0.3267 -0.0974
  170SAPE   H4Y19267   1.395  -0.045   7.028 -1.4033 -2.6762  4.2327
  170SAPE   C3519268   1.201  -0.083   7.122 -0.1320 -0.4090  0.2137
  170SAPE   H5X19269   1.201  -0.192   7.096 -0.6848 -0.5254  0.6895
  170SAPE   H5Y19270   1.095  -0.052   7.113 -0.3337 -1.3447 -1.1270
  170SAPE   C3619271   1.268  -0.095   7.263  0.1241 -0.1490  0.4487
  170SAPE   H6X19272   1.321   0.002   7.273  1.6535 -0.4363 -3.0387
  170SAPE   H6Y19273   1.350  -0.170   7.262  3.3183  2.9192 -3.2019
  170SAPE   C3719274   1.173  -0.139   7.377 -0.3254  0.2394 -0.0849
  170SAPE   H7X19275   1.188  -0.249   7.386 -2.3420 -0.0593  0.2204
  170SAPE   H7Y19276   1.066  -0.120   7.353  0.2949  2.1161 -1.5611
  170SAPE   C3819277   1.196  -0.066   7.518  0.0130 -0.6164  0.0870
  170SAPE   H8X19278   1.155   0.036   7.503 -0.8596 -1.1161 -1.0824
  170SAPE   H8Y19279   1.305  -0.060   7.537 -0.0853 -1.0280  0.8331
  170SAPE   C3919280   1.133  -0.131   7.649 -0.0583  0.3178  0.3965
  170SAPE   H9X19281   1.218  -0.174   7.706  0.8646  1.3900 -0.1409
  170SAPE   H9Y19282   1.051  -0.202   7.625 -0.9790  1.9326 -1.5244
  170SAPE  C31019283   1.062  -0.020   7.728  0.1357  0.2064 -0.4775
  170SAPE  H10X19284   0.988   0.035   7.666 -0.7098  0.9391  1.1204
  170SAPE  H10Y19285   1.143   0.051   7.755 -0.8113  0.4537  1.9657
  170SAPE  C31119286   0.991  -0.086   7.855  0.5341 -0.0809  0.2780
  170SAPE  H11X19287   1.057  -0.155   7.911  0.2478  1.5199  2.7373
  170SAPE  H11Y19288   0.913  -0.154   7.813  3.1086 -2.2917 -1.2881
  170SAPE  C31219289   0.925   0.010   7.952  0.3788 -0.3039  0.7127
  170SAPE  H12X19290   0.891  -0.038   8.047 -0.8051  0.2630  0.5919
  170SAPE  H12Y19291   0.833   0.046   7.902  0.6222 -2.1346 -1.1696
  170SAPE  C31319292   1.008   0.124   8.000 -0.4408  0.0591 -0.9199
  170SAPE  H13X19293   1.037   0.182   7.910  1.8460 -0.1394 -0.3720
  170SAPE  H13Y19294   1.095   0.077   8.050 -0.7648  0.1292 -0.2686
  170SAPE  C31419295   0.927   0.228   8.092 -0.0996 -0.6576  0.3841
  170SAPE  H14X19296   0.860   0.282   8.021  1.4102 -0.6379 -1.0809
  170SAPE  H14Y19297   0.989   0.308   8.136 -2.0694  1.4038 -0.3893
  170SAPE  C31519298   0.840   0.169   8.200 -0.3323  0.1982 -0.0575
  170SAPE  H15X19299   0.776   0.082   8.175  1.6149 -1.2505 -0.2571
  170SAPE  H15Y19300   0.769   0.250   8.229 -0.4747  0.3948 -0.9243
  170SAPE  C31619301   0.917   0.144   8.333 -0.0459 -0.6173  0.1098
  170SAPE  H16X19302   0.975   0.228   8.376 -1.1482 -0.6657  1.7787
  170SAPE  H16Y19303   0.987   0.061   8.312 -1.0346 -0.6739 -3.7994
  170SAPE  C31719304   0.817   0.092   8.439  0.3110  0.2994  0.1585
  170SAPE  H17X19305   0.767  -0.001   8.405  0.3730  0.6898 -1.0557
  170SAPE  H17Y19306   0.732   0.162   8.451  1.1872  2.0692 -2.8862
  170SAPE  C31819307   0.870   0.065   8.575  0.2479 -0.7026 -0.3662
  170SAPE  H18X19308   0.795   0.012   8.638  0.1118 -0.5969 -0.4382
  170SAPE  H18Y19309   0.884   0.163   8.626 -0.7046 -0.4772 -0.5195
  170SAPE  H18Z19310   0.971   0.018   8.575  0.9261  0.7037 -0.2656
  171SAPE     N19311   2.647   6.187   6.473  0.8203  0.4188 -0.9073
  171SAPE   HN119312   2.738   6.172   6.520  1.1009 -1.2776 -1.9093
  171SAPE   HN219313   2.656   6.204   6.370 -1.3772 -0.4500 -1.2823
  171SAPE   HN319314   2.615   6.274   6.521  1.0204 -0.9923  1.9558
  171SAPE   C1219315   2.550   6.069   6.481 -0.2759 -1.1500 -0.0897
  171SAPE  H12A19316   2.456   6.110   6.438  1.0763  2.9904  0.4358
  171SAPE  H12B19317   2.531   6.050   6.589 -0.6025 -1.7142 -0.2423
  171SAPE   C1119318   2.611   5.952   6.401 -0.4203  0.0161  0.7054
  171SAPE  H11A19319   2.604   5.990   6.297 -2.4252 -1.5582  0.1962
  171SAPE  H11B19320   2.545   5.862   6.406 -0.9682  0.3539 -0.3350
  171SAPE     P19321   2.852   5.881   6.327  0.2864 -0.1202 -0.1694
  171SAPE   O1319322   2.788   5.805   6.215 -0.5955  0.0564 -0.3350
  171SAPE   O1419323   2.940   5.996   6.304 -0.1457  0.1904  0.2848
  171SAPE   O1219324   2.744   5.926   6.437  0.0964  0.2390  0.3475
  171SAPE   O1119325   2.935   5.791   6.412 -0.0516  0.1116  0.5461
  171SAPE    C119326   2.883   5.689   6.499  0.0627 -0.1328 -0.0382
  171SAPE    HA19327   2.794   5.640   6.453  0.6351 -0.9176 -0.3257
  171SAPE    HB19328   2.957   5.606   6.500 -2.1140 -2.2009 -0.6783
  171SAPE    C219329   2.842   5.731   6.644  0.5955  0.1496 -0.3310
  171SAPE    HS19330   2.744   5.783   6.649  0.8668  0.5752  0.8270
  171SAPE   O2119331   2.944   5.817   6.699  0.1224  0.0200 -0.0078
  171SAPE   C2119332   2.911   5.951   6.723  0.0351  0.0389  0.8486
  171SAPE   O2219333   2.798   5.987   6.699  0.0182  0.2264  0.1905
  171SAPE   C2219334   3.029   6.027   6.776 -0.1278 -0.4590  0.2132
  171SAPE   H2R19335   3.119   6.015   6.711 -1.7252  0.2968 -2.2915
  171SAPE   H2S19336   2.990   6.131   6.776  0.1679 -0.3183 -1.3269
  171SAPE    C319337   2.832   5.606   6.739 -0.6415  0.4416  0.0285
  171SAPE    HX19338   2.930   5.557   6.722  0.1330  1.8091  0.4032
  171SAPE    HY19339   2.751   5.533   6.716 -0.4621  0.4130 -0.5304
  171SAPE   O3119340   2.821   5.648   6.879 -0.0833  0.0723  0.0540
  171SAPE   C3119341   2.702   5.662   6.930 -0.0778  0.3743 -0.2985
  171SAPE   O3219342   2.596   5.643   6.867 -0.1976  0.2277 -0.5915
  171SAPE   C3219343   2.715   5.729   7.070 -0.1141  0.7363 -0.3110
  171SAPE   H2X19344   2.739   5.835   7.047  0.1066 -0.0507 -4.6512
  171SAPE   H2Y19345   2.788   5.684   7.141  0.8635  2.1784 -0.3492
  171SAPE   C2319346   3.054   5.991   6.922 -0.4244 -0.6063  0.3554
  171SAPE   H3R19347   3.148   6.044   6.951  0.1259 -1.4080  0.0817
  171SAPE   H3S19348   3.058   5.881   6.934 -0.4268 -0.7976 -1.1104
  171SAPE   C2419349   2.933   6.027   7.010  0.0243 -0.3819  0.0266
  171SAPE   H4R19350   2.940   5.968   7.103  4.1127 -0.6413 -0.2957
  171SAPE   H4S19351   2.843   5.992   6.955  0.0755 -2.1616  1.0340
  171SAPE   C2519352   2.942   6.178   7.040 -0.5100 -0.5695 -0.4164
  171SAPE   H5R19353   2.905   6.250   6.965  1.8307  0.1210 -0.9837
  171SAPE   C2619354   3.005   6.231   7.148  0.0122 -0.5518 -0.3585
  171SAPE   H6R19355   3.005   6.340   7.163  1.7833 -0.2312 -2.2653
  171SAPE   C2719356   3.078   6.141   7.245  0.6264  0.3738 -0.4267
  171SAPE   H7R19357   3.170   6.098   7.201  0.8988  0.6851 -0.1606
  171SAPE   H7S19358   3.012   6.056   7.277  0.4231  1.1747  1.4298
  171SAPE   C2819359   3.125   6.220   7.375  0.2089  0.2474  0.2939
  171SAPE   H8R19360   3.232   6.243   7.381  0.4304  0.1164 -2.1687
  171SAPE   C2919361   3.032   6.269   7.459 -0.5583  0.2941 -0.3166
  171SAPE   H9R19362   3.070   6.323   7.548  0.3918 -2.3462  0.9838
  171SAPE  C21019363   2.887   6.243   7.440  0.5780  0.5240 -0.8665
  171SAPE  H10R19364   2.863   6.135   7.431 -0.0186  0.5440  0.2519
  171SAPE  H10S19365   2.852   6.284   7.343 -1.8704  1.6925  0.4036
  171SAPE  C21119366   2.801   6.294   7.559  0.2290  0.6953 -0.7958
  171SAPE  H11R19367   2.734   6.376   7.527 -1.0154 -0.4295 -1.1722
  171SAPE  C21219368   2.812   6.260   7.687  0.0657  0.1040 -0.3536
  171SAPE  H12R19369   2.747   6.306   7.763 -0.0729  1.3038 -1.1683
  171SAPE  C21319370   2.905   6.164   7.753  0.4085  0.6736  0.4312
  171SAPE  H13R19371   2.968   6.110   7.679  0.2196 -2.5404  2.4175
  171SAPE  H13S19372   2.848   6.074   7.787 -1.6407  1.2043 -1.3230
  171SAPE  C21419373   3.000   6.230   7.859 -0.4570 -0.2516 -0.3587
  171SAPE  H14R19374   3.100   6.261   7.828  0.9848  0.5309  4.3185
  171SAPE  C21519375   2.974   6.258   7.987  0.6579 -0.0425  0.3649
  171SAPE  H15R19376   3.040   6.320   8.050 -1.1336  0.4673  1.8392
  171SAPE  C21619377   2.843   6.224   8.058  0.3844  0.4285  1.1472
  171SAPE  H16R19378   2.812   6.122   8.027 -0.7467  1.5750 -1.8936
  171SAPE  H16S19379   2.762   6.290   8.020  0.0471 -0.0481  1.0373
  171SAPE  C21719380   2.852   6.222   8.209 -0.8866  0.3383 -0.2026
  171SAPE  H17R19381   2.886   6.323   8.239  0.1121  0.0384 -0.3124
  171SAPE  H17S19382   2.921   6.139   8.233  2.0903  1.8853 -2.8214
  171SAPE  C21819383   2.721   6.194   8.285 -0.5033 -0.4030 -0.8366
  171SAPE  H18R19384   2.687   6.088   8.277 -0.2318 -0.3878 -2.5371
  171SAPE  H18S19385   2.653   6.255   8.222  0.4765 -1.1022 -2.6456
  171SAPE  C21919386   2.711   6.233   8.434 -0.3433  0.0485 -0.1512
  171SAPE  H19R19387   2.775   6.322   8.451 -1.1200  0.2980  1.7574
  171SAPE  H19S19388   2.748   6.151   8.499 -0.5876  0.9649  1.1858
  171SAPE  C22019389   2.570   6.250   8.474 -0.1304  0.7870 -0.1544
  171SAPE  H20R19390   2.509   6.163   8.440  1.6139 -0.4910 -0.1582
  171SAPE  H20S19391   2.528   6.343   8.430 -0.8723  1.6629  2.2526
  171SAPE  H20T19392   2.565   6.267   8.584 -1.3251  1.6144 -0.3171
  171SAPE   C3319393   2.575   5.714   7.141 -0.3058 -0.1106 -0.2089
  171SAPE   H3X19394   2.544   5.607   7.135 -3.8348  0.8535 -3.7157
  171SAPE   H3Y19395   2.496   5.767   7.083  0.5255 -0.2415 -1.4749
  171SAPE   C3419396   2.574   5.752   7.286  0.0857 -0.5050  0.3025
  171SAPE   H4X19397   2.656   5.707   7.347  0.5369 -1.7722 -1.1820
  171SAPE   H4Y19398   2.481   5.723   7.338 -0.1176  2.6566  1.9607
  171SAPE   C3519399   2.577   5.910   7.299 -0.1864  1.0929  0.1524
  171SAPE   H5X19400   2.471   5.943   7.288 -0.2111  0.5081 -1.8308
  171SAPE   H5Y19401   2.642   5.941   7.215  1.3260 -1.4886  0.2511
  171SAPE   C3619402   2.631   5.959   7.431 -0.0600  0.4569 -0.4449
  171SAPE   H6X19403   2.635   6.070   7.429  1.6980  0.5209  2.2264
  171SAPE   H6Y19404   2.735   5.920   7.437 -0.3991 -0.5642 -1.0025
  171SAPE   C3719405   2.545   5.900   7.545  0.6209 -0.4035 -0.9951
  171SAPE   H7X19406   2.500   5.802   7.520 -0.3277 -0.3086  0.2313
  171SAPE   H7Y19407   2.463   5.972   7.566  1.1735 -0.1905  0.5482
  171SAPE   C3819408   2.619   5.899   7.678 -0.2909 -0.4246  0.1835
  171SAPE   H8X19409   2.655   6.001   7.700  0.0284 -0.9057  2.1759
  171SAPE   H8Y19410   2.700   5.822   7.679  1.0124  0.8463 -1.9995
  171SAPE   C3919411   2.532   5.865   7.795  0.0856  0.1079  0.1123
  171SAPE   H9X19412   2.488   5.763   7.787 -1.2187  0.7166 -0.7360
  171SAPE   H9Y19413   2.438   5.921   7.780 -0.9221 -1.9590 -1.9958
  171SAPE  C31019414   2.607   5.879   7.925 -0.1619 -0.5371  0.0703
  171SAPE  H10X19415   2.679   5.963   7.924  1.1016 -1.4980  2.2068
  171SAPE  H10Y19416   2.660   5.784   7.946  3.0428  1.2664  0.8323
  171SAPE  C31119417   2.510   5.886   8.047  0.7795  0.7856 -0.2986
  171SAPE  H11X19418   2.562   5.864   8.143 -0.0855 -1.0351 -0.2005
  171SAPE  H11Y19419   2.437   5.802   8.048  1.5801  0.0291 -1.7951
  171SAPE  C31219420   2.435   6.018   8.064  0.2001 -0.3073 -0.1908
  171SAPE  H12X19421   2.351   6.034   7.994 -1.6252 -1.3516  1.6500
  171SAPE  H12Y19422   2.510   6.097   8.042 -0.4561  0.6114  0.7822
  171SAPE  C31319423   2.360   6.031   8.196 -0.2720  0.0045  0.3975
  171SAPE  H13X19424   2.427   6.010   8.283 -0.5763 -2.3766  0.1271
  171SAPE  H13Y19425   2.293   5.943   8.191 -0.4870  0.1214  1.0542
  171SAPE  C31419426   2.276   6.159   8.218 -0.1326  0.6131  0.0315
  171SAPE  H14X19427   2.215   6.174   8.127  2.2545  1.5405 -1.5157
  171SAPE  H14Y19428   2.334   6.250   8.243  0.1459  0.0422  1.5998
  171SAPE  C31519429   2.182   6.134   8.337 -0.2286 -0.0708 -0.4239
  171SAPE  H15X19430   2.245   6.122   8.428 -0.4673 -1.0956 -0.3874
  171SAPE  H15Y19431   2.140   6.032   8.325  1.4057 -1.0787  1.7240
  171SAPE  C31619432   2.066   6.238   8.361 -0.6113 -0.1285  0.4204
  171SAPE  H16X19433   1.988   6.228   8.283  0.7183 -0.8750 -0.8629
  171SAPE  H16Y19434   2.110   6.340   8.357  0.2078 -0.4797  0.4077
  171SAPE  C31719435   2.008   6.225   8.504  0.2171  0.8192  0.0324
  171SAPE  H17X19436   2.099   6.214   8.567 -1.0693  2.1136  2.2237
  171SAPE  H17Y19437   1.954   6.129   8.510  0.9469  0.4330  0.6105
  171SAPE  C31819438   1.913   6.339   8.550  0.6969  0.0222  0.6464
  171SAPE  H18X19439   1.909   6.348   8.660  0.6733  2.7164  0.4815
  171SAPE  H18Y19440   1.812   6.329   8.504  0.5056  0.5898  0.9356
  171SAPE  H18Z19441   1.956   6.429   8.501 -1.2019  1.8456  2.1406
  172SAPE     N19442   1.884   4.705   5.782 -0.9947  0.0612 -0.5977
  172SAPE   HN119443   1.801   4.736   5.835 -0.2807  0.3815  0.3385
  172SAPE   HN219444   1.888   4.753   5.690  0.1445 -0.0199 -0.6108
  172SAPE   HN319445   1.876   4.601   5.774  0.2730 -0.1664  0.6414
  172SAPE   C1219446   2.013   4.727   5.861  0.6091 -0.5649 -0.4548
  172SAPE  H12A19447   2.045   4.833   5.850  2.2563 -0.4911  3.3021
  172SAPE  H12B19448   2.091   4.658   5.823  0.7583 -0.5313 -0.2088
  172SAPE   C1119449   1.998   4.680   6.005 -0.0542 -0.1582  0.1170
  172SAPE  H11A19450   2.092   4.691   6.064  0.4468 -1.2205 -0.4462
  172SAPE  H11B19451   1.994   4.569   6.014  1.8652 -0.1466  2.0116
  172SAPE     P19452   1.859   4.877   6.124  0.0786  0.3601 -0.3019
  172SAPE   O1319453   1.930   4.979   6.047  0.2004  0.1067  0.3615
  172SAPE   O1419454   1.719   4.900   6.155 -0.4263 -0.4066  0.0168
  172SAPE   O1219455   1.873   4.734   6.062  0.5200 -0.3050 -0.8321
  172SAPE   O1119456   1.936   4.874   6.260  0.0565 -0.2321  0.1577
  172SAPE    C119457   1.920   4.769   6.350 -0.0714 -0.3513 -0.0470
  172SAPE    HA19458   1.905   4.664   6.317  2.0255 -0.9476  0.7703
  172SAPE    HB19459   2.008   4.762   6.416  1.1368 -3.7600 -1.8104
  172SAPE    C219460   1.799   4.799   6.454 -0.6349 -0.2496  0.4732
  172SAPE    HS19461   1.720   4.845   6.391 -0.2721 -0.7314 -0.3499
  172SAPE   O2119462   1.845   4.898   6.550  0.1516  0.3327 -0.6035
  172SAPE   C2119463   1.748   4.971   6.613 -0.7706  0.7344 -0.2530
  172SAPE   O2219464   1.631   4.959   6.590 -0.3923  0.1684 -0.1066
  172SAPE   C2219465   1.810   5.059   6.725 -0.2851 -0.2460 -0.3446
  172SAPE   H2R19466   1.874   4.990   6.783  1.0543  1.8523  0.8046
  172SAPE   H2S19467   1.884   5.122   6.672 -0.3622 -0.0844 -0.2598
  172SAPE    C319468   1.740   4.680   6.527  0.2759 -0.0037  0.1161
  172SAPE    HX19469   1.674   4.635   6.449 -1.6434  0.4659  1.3812
  172SAPE    HY19470   1.674   4.721   6.606 -0.1073 -0.4136  0.0151
  172SAPE   O3119471   1.832   4.594   6.589 -0.2607  0.0069 -0.2423
  172SAPE   C3119472   1.868   4.611   6.716  0.4888  0.3975 -0.3434
  172SAPE   O3219473   1.848   4.712   6.780  0.4573  0.3212  0.1254
  172SAPE   C3219474   1.946   4.488   6.766 -1.0091  0.0318  0.2959
  172SAPE   H2X19475   2.056   4.505   6.764 -0.9118 -0.4540  1.1268
  172SAPE   H2Y19476   1.932   4.406   6.693 -0.2718 -0.4618  0.7015
  172SAPE   C2319477   1.710   5.142   6.803 -0.0524  0.5031  0.2265
  172SAPE   H3R19478   1.678   5.073   6.884  0.7354  2.0686  1.9224
  172SAPE   H3S19479   1.628   5.180   6.738  0.0125  0.1286 -0.0762
  172SAPE   C2419480   1.789   5.257   6.859 -0.1840  0.1955 -0.2965
  172SAPE   H4R19481   1.830   5.314   6.773  1.6424 -1.6666 -0.7201
  172SAPE   H4S19482   1.876   5.220   6.916  1.3865  1.9806 -1.4044
  172SAPE   C2519483   1.701   5.333   6.949 -0.6762  0.0858  0.3569
  172SAPE   H5R19484   1.612   5.368   6.895  0.5843  0.0433 -1.9034
  172SAPE   C2619485   1.712   5.362   7.076  0.0813 -0.4632  0.0063
  172SAPE   H6R19486   1.624   5.410   7.120 -0.5408 -2.3193  0.8785
  172SAPE   C2719487   1.814   5.320   7.174 -0.5380 -0.7148 -0.4242
  172SAPE   H7R19488   1.912   5.331   7.124 -0.5948  1.7360 -0.1074
  172SAPE   H7S19489   1.805   5.211   7.191  1.5821 -1.3055 -2.5538
  172SAPE   C2819490   1.825   5.398   7.303  0.2179  0.8919 -0.0948
  172SAPE   H8R19491   1.882   5.492   7.305 -2.3331  2.5497  1.2369
  172SAPE   C2919492   1.763   5.354   7.417 -0.2566 -0.3607 -0.2940
  172SAPE   H9R19493   1.781   5.409   7.510 -0.3645  0.8678 -0.9733
  172SAPE  C21019494   1.680   5.221   7.430 -0.2524  0.5798  0.0290
  172SAPE  H10R19495   1.749   5.142   7.465 -1.3029 -0.5555 -0.3991
  172SAPE  H10S19496   1.637   5.183   7.335 -0.9152 -0.1025  0.5896
  172SAPE  C21119497   1.575   5.244   7.532 -0.1630  1.0330 -0.7638
  172SAPE  H11R19498   1.529   5.344   7.529 -0.3733  1.0200  0.9635
  172SAPE  C21219499   1.538   5.162   7.634 -1.2009  0.1015 -0.2980
  172SAPE  H12R19500   1.467   5.210   7.702 -1.4670 -0.6911  0.0022
  172SAPE  C21319501   1.588   5.026   7.679 -0.5465 -0.2793  0.2516
  172SAPE  H13R19502   1.681   5.037   7.738  0.3738 -0.1248 -1.1769
  172SAPE  H13S19503   1.631   4.975   7.590  0.9577  2.8070 -0.9344
  172SAPE  C21419504   1.480   4.938   7.734  0.1429  0.0258 -1.4818
  172SAPE  H14R19505   1.387   4.934   7.674 -0.7653  1.3047 -0.2086
  172SAPE  C21519506   1.485   4.871   7.850  0.2425  0.1656  0.5674
  172SAPE  H15R19507   1.393   4.823   7.886  0.2977 -1.1997 -0.9667
  172SAPE  C21619508   1.601   4.883   7.949 -0.1180  0.3850 -0.0654
  172SAPE  H16R19509   1.696   4.912   7.901  2.2068 -1.8913  2.7500
  172SAPE  H16S19510   1.604   4.789   8.008 -1.7388  0.9498  1.0066
  172SAPE  C21719511   1.589   4.995   8.062  0.0821  0.4770  0.4240
  172SAPE  H17R19512   1.557   5.090   8.015 -1.6469 -1.3332 -2.3742
  172SAPE  H17S19513   1.690   5.008   8.105 -0.0171 -0.9365  1.1149
  172SAPE  C21819514   1.485   4.942   8.159 -0.4445  0.1109  0.5517
  172SAPE  H18R19515   1.504   4.837   8.191 -1.2906  0.0952  1.0396
  172SAPE  H18S19516   1.386   4.920   8.113 -0.5567  2.7253 -0.6091
  172SAPE  C21919517   1.484   5.026   8.290  0.0897 -0.3071 -0.7728
  172SAPE  H19R19518   1.453   5.132   8.276  3.5309  0.9019 -0.1640
  172SAPE  H19S19519   1.585   5.028   8.336 -0.3198 -1.9710  0.2845
  172SAPE  C22019520   1.388   4.970   8.395 -0.8458  0.1904 -0.2798
  172SAPE  H20R19521   1.413   4.863   8.416 -1.4117 -0.1384 -1.2574
  172SAPE  H20S19522   1.288   4.960   8.349 -0.6489 -0.9117 -0.4964
  172SAPE  H20T19523   1.378   5.028   8.490 -2.7200  0.3626 -0.5528
  172SAPE   C3319524   1.916   4.459   6.911  0.3461 -0.8084  0.6795
  172SAPE   H3X19525   1.921   4.556   6.966 -1.8719  0.5110 -1.2660
  172SAPE   H3Y19526   2.003   4.399   6.946 -0.1692 -0.6283  2.3870
  172SAPE   C3419527   1.793   4.373   6.928 -0.3709 -0.5444 -0.1570
  172SAPE   H4X19528   1.774   4.283   6.866 -1.8183  0.1086 -0.7192
  172SAPE   H4Y19529   1.711   4.434   6.885  0.5105  0.3056 -0.6674
  172SAPE   C3519530   1.764   4.346   7.067  0.0750  0.0837 -0.3445
  172SAPE   H5X19531   1.763   4.444   7.121 -0.3735 -0.3035  0.3749
  172SAPE   H5Y19532   1.850   4.286   7.105  0.7584  0.2963 -1.5089
  172SAPE   C3619533   1.620   4.294   7.088  0.2265  0.3051 -0.4666
  172SAPE   H6X19534   1.585   4.224   7.010 -0.8067 -0.0589  0.2978
  172SAPE   H6Y19535   1.549   4.380   7.082 -1.8132 -1.1390  1.4016
  172SAPE   C3719536   1.605   4.210   7.215 -0.5818 -0.2808  0.3687
  172SAPE   H7X19537   1.673   4.122   7.222 -0.3695 -0.2809 -1.2398
  172SAPE   H7Y19538   1.500   4.173   7.218 -0.4455 -0.7875 -0.4964
  172SAPE   C3819539   1.618   4.296   7.341 -0.2642  0.1296 -0.2964
  172SAPE   H8X19540   1.524   4.351   7.362 -0.3356 -0.0156 -0.2306
  172SAPE   H8Y19541   1.713   4.352   7.350 -0.7242  1.4967 -3.0226
  172SAPE   C3919542   1.629   4.202   7.465  0.7952  0.3223  0.1753
  172SAPE   H9X19543   1.693   4.115   7.439  1.0682  0.7307 -0.5575
  172SAPE   H9Y19544   1.526   4.161   7.477  0.6317  0.6845  0.0345
  172SAPE  C31019545   1.664   4.283   7.591  0.1015 -0.9244  0.0738
  172SAPE  H10X19546   1.586   4.363   7.596  1.3257  0.3919 -1.0724
  172SAPE  H10Y19547   1.763   4.330   7.576 -0.3720 -0.4892 -2.0369
  172SAPE  C31119548   1.653   4.190   7.723  0.0951 -0.0340 -0.0265
  172SAPE  H11X19549   1.721   4.102   7.717  0.0508 -0.0598 -0.1440
  172SAPE  H11Y19550   1.552   4.145   7.715  0.5696 -0.9933 -0.6998
  172SAPE  C31219551   1.677   4.267   7.858  0.0536  0.4597 -0.4955
  172SAPE  H12X19552   1.783   4.299   7.864 -0.4739  2.0895  2.5457
  172SAPE  H12Y19553   1.667   4.183   7.930  1.5760  1.2965  0.7671
  172SAPE  C31319554   1.575   4.370   7.893 -0.0706  0.5040  0.1233
  172SAPE  H13X19555   1.474   4.333   7.865 -0.2636  1.5075 -0.5250
  172SAPE  H13Y19556   1.612   4.452   7.828 -1.8780  0.8484 -0.5162
  172SAPE  C31419557   1.577   4.407   8.040 -0.6216 -0.1420 -0.1374
  172SAPE  H14X19558   1.542   4.314   8.091 -2.3174 -0.2562 -1.4167
  172SAPE  H14Y19559   1.506   4.488   8.070 -0.1615  0.0296  0.5169
  172SAPE  C31519560   1.708   4.456   8.101 -0.4021  0.5642 -0.4872
  172SAPE  H15X19561   1.740   4.550   8.051 -1.5437  0.6153 -1.1737
  172SAPE  H15Y19562   1.789   4.383   8.080  0.7923  0.9157  2.4333
  172SAPE  C31619563   1.706   4.479   8.255  1.2462 -0.1237 -0.1897
  172SAPE  H16X19564   1.804   4.516   8.294  1.1517  1.7518 -1.5617
  172SAPE  H16Y19565   1.681   4.386   8.310 -1.4912  1.6492  1.8222
  172SAPE  C31719566   1.605   4.585   8.314  0.1649  0.0530 -0.7477
  172SAPE  H17X19567   1.499   4.562   8.291 -0.4470  1.4419  0.5026
  172SAPE  H17Y19568   1.641   4.686   8.283  1.9733 -0.2373  0.2693
  172SAPE  C31819569   1.610   4.583   8.468 -0.5788 -0.6660 -0.0816
  172SAPE  H18X19570   1.550   4.663   8.517  2.5414  2.5048 -1.0495
  172SAPE  H18Y19571   1.713   4.604   8.502 -0.5218 -0.4888 -0.3622
  172SAPE  H18Z19572   1.571   4.483   8.497  0.5751 -0.3341  3.0360
  173SOPE     N19573   2.539   2.609  10.934 -0.2670  0.0946  0.6629
  173SOPE   HN119574   2.642   2.605  10.926 -0.0158  1.8613  2.3798
  173SOPE   HN219575   2.513   2.688  10.872  1.3659 -0.7452 -1.1831
  173SOPE   HN319576   2.513   2.628  11.033  0.0809  0.7140  0.6328
  173SOPE   C1219577   2.491   2.477  10.896 -1.0404 -0.4886  0.0864
  173SOPE  H12A19578   2.520   2.467  10.789 -3.1562  2.0889 -0.8311
  173SOPE  H12B19579   2.380   2.480  10.885 -0.8092  1.2209 -3.0118
  173SOPE   C1119580   2.546   2.377  10.998 -0.1729 -0.5506 -0.2724
  173SOPE  H11A19581   2.506   2.275  10.978  0.3073 -0.5556 -1.3158
  173SOPE  H11B19582   2.509   2.406  11.098  0.8848  2.2879 -0.6131
  173SOPE     P19583   2.793   2.273  10.976  0.0351 -0.2893 -0.6093
  173SOPE   O1319584   2.755   2.152  11.047  0.1258  0.1024 -0.4489
  173SOPE   O1419585   2.931   2.319  11.011 -0.6119 -0.5767  0.2745
  173SOPE   O1219586   2.692   2.386  11.005 -0.1092 -0.4339  0.2709
  173SOPE   O1119587   2.770   2.258  10.825 -0.4766  0.5590  0.5604
  173SOPE    C119588   2.814   2.347  10.724  0.1488  0.4814 -0.1881
  173SOPE    HA19589   2.771   2.447  10.744  1.1516  0.3774  3.1373
  173SOPE    HB19590   2.763   2.300  10.637 -0.2866 -1.1744  0.9119
  173SOPE    C219591   2.972   2.341  10.699 -0.6253 -0.7930 -0.2908
  173SOPE    HS19592   3.019   2.388  10.787 -0.3409 -0.7610 -0.4600
  173SOPE   O2119593   3.014   2.400  10.577  0.2259 -0.5845  0.1506
  173SOPE   C2119594   2.992   2.528  10.570 -0.4321  0.4518  0.6109
  173SOPE   O2219595   2.970   2.607  10.660 -0.0275 -0.1859 -0.5896
  173SOPE   C2219596   2.989   2.576  10.423  0.7635  0.3067  0.3822
  173SOPE   H2R19597   2.973   2.686  10.422  1.7538  0.4531  0.6518
  173SOPE   H2S19598   2.908   2.510  10.384  2.2183 -1.2894 -0.0497
  173SOPE    C319599   3.014   2.188  10.702  0.0336  0.2212 -0.3314
  173SOPE    HX19600   2.989   2.159  10.807  0.0512 -0.8436 -0.6053
  173SOPE    HY19601   3.124   2.172  10.696  0.0347  0.7441 -1.9565
  173SOPE   O3119602   2.940   2.109  10.599 -0.8418 -0.2552 -0.8353
  173SOPE   C3119603   2.938   1.979  10.637  0.9825  0.2722  0.1782
  173SOPE   O3219604   3.004   1.936  10.728  0.2784 -0.2989 -0.2679
  173SOPE   C3219605   2.837   1.903  10.541 -0.3811  0.8001  0.4192
  173SOPE   H2X19606   2.764   1.862  10.614 -0.2758 -0.5335 -0.2022
  173SOPE   H2Y19607   2.886   1.817  10.491  1.9791  0.2553  3.3265
  173SOPE   C2319608   3.110   2.535  10.335 -1.0656 -0.9618 -0.2282
  173SOPE   H3R19609   3.142   2.430  10.353  1.6467  0.0351  1.3981
  173SOPE   H3S19610   3.196   2.594  10.373 -2.9499  1.0730  1.0976
  173SOPE   C2419611   3.086   2.568  10.186 -0.1313 -0.0564 -0.0045
  173SOPE   H4R19612   2.999   2.511  10.145  0.1211  0.5220 -1.3980
  173SOPE   H4S19613   3.072   2.675  10.161 -1.0445  0.1914  1.4543
  173SOPE   C2519614   3.201   2.519  10.100  0.4136  0.2135 -0.8246
  173SOPE   H5R19615   3.297   2.567  10.127  0.8498 -0.2467 -1.5137
  173SOPE   H5S19616   3.206   2.409  10.118 -1.8794 -0.2032 -2.3772
  173SOPE   C2619617   3.174   2.551   9.954 -0.8478  0.2660  0.1008
  173SOPE   H6R19618   3.111   2.470   9.913  0.5314 -0.8895  0.1725
  173SOPE   H6S19619   3.117   2.646   9.952  0.7603  1.3481  1.7685
  173SOPE   C2719620   3.295   2.558   9.864 -0.7664  0.2966  0.6037
  173SOPE   H7R19621   3.355   2.646   9.897 -0.1265 -0.5248  1.6776
  173SOPE   H7S19622   3.356   2.468   9.883 -2.4040 -0.9122  0.3428
  173SOPE   C2819623   3.275   2.574   9.717 -0.1774  0.0579  0.9205
  173SOPE   H8R19624   3.375   2.595   9.672 -1.6688  3.7710 -1.1087
  173SOPE   H8S19625   3.236   2.480   9.671 -0.9397  0.8589 -0.1218
  173SOPE   C2919626   3.188   2.700   9.679 -0.3115  0.2096  0.2595
  173SOPE   H9119627   3.181   2.776   9.759 -0.3884 -1.8737  2.3599
  173SOPE  C21019628   3.139   2.726   9.558  0.1012  0.6135  0.3035
  173SOPE  H10119629   3.089   2.822   9.537 -0.7048 -0.2678 -2.1989
  173SOPE  C21119630   3.162   2.637   9.435 -0.7533 -1.2912  0.1182
  173SOPE  H11R19631   3.097   2.673   9.353 -1.6113 -2.1708  0.3858
  173SOPE  H11S19632   3.125   2.538   9.469  0.8252 -1.4560  1.4691
  173SOPE  C21219633   3.304   2.625   9.371  0.0202  0.9094  0.1562
  173SOPE  H12R19634   3.298   2.548   9.291  2.9295  2.0737 -1.3106
  173SOPE  H12S19635   3.369   2.579   9.449 -0.0021  1.2332  0.3663
  173SOPE  C21319636   3.373   2.759   9.330  0.3518  0.3456  0.0503
  173SOPE  H13R19637   3.421   2.803   9.420  1.0026 -1.9635  0.9106
  173SOPE  H13S19638   3.297   2.828   9.287  0.0396  0.4721  0.7904
  173SOPE  C21419639   3.489   2.734   9.233 -0.1583 -0.4624  0.1231
  173SOPE  H14R19640   3.453   2.715   9.130 -0.4617 -1.7072  0.4438
  173SOPE  H14S19641   3.538   2.638   9.261 -1.0753 -1.2133 -0.7592
  173SOPE  C21519642   3.600   2.847   9.234 -0.5883  0.2978 -0.0822
  173SOPE  H15R19643   3.648   2.842   9.335  2.0402  1.6064 -1.1840
  173SOPE  H15S19644   3.560   2.947   9.210  0.8046  0.3390 -2.6062
  173SOPE  C21619645   3.715   2.814   9.139 -0.1818 -0.0230 -0.0554
  173SOPE  H16R19646   3.678   2.765   9.046  0.6700 -2.2638  0.6962
  173SOPE  H16S19647   3.777   2.738   9.192  0.8847  0.1365 -1.0227
  173SOPE  C21719648   3.808   2.921   9.098  0.4211 -0.0356  0.3706
  173SOPE  H17R19649   3.752   2.994   9.036  0.4544 -0.5200 -0.2379
  173SOPE  H17S19650   3.894   2.889   9.036  1.4624  1.9478  0.7035
  173SOPE  C21819651   3.866   2.999   9.219  0.3251  0.0496  0.1476
  173SOPE  H18R19652   3.936   2.933   9.275 -0.8858 -1.2758  0.1807
  173SOPE  H18S19653   3.781   3.014   9.289 -1.2857  0.5814 -1.8225
  173SOPE  H18T19654   3.906   3.100   9.195  0.5292  0.0329  0.4195
  173SOPE   C3319655   2.752   1.984  10.444 -0.2465  0.3492 -0.1755
  173SOPE   H3X19656   2.819   2.012  10.360 -2.0692 -0.5431 -2.0154
  173SOPE   H3Y19657   2.717   2.080  10.488 -0.2896  0.0197  0.5217
  173SOPE   C3419658   2.632   1.906  10.391 -0.5497 -0.3806 -0.0009
  173SOPE   H4X19659   2.559   1.974  10.342  3.5287  3.3299 -1.5261
  173SOPE   H4Y19660   2.571   1.854  10.468 -1.7800  0.2387 -0.5137
  173SOPE   C3519661   2.654   1.814  10.275  0.3842  0.3185 -0.0748
  173SOPE   H5X19662   2.557   1.777  10.233  0.6839 -0.8064  0.1859
  173SOPE   H5Y19663   2.727   1.732  10.287 -0.9307 -0.9788 -0.5426
  173SOPE   C3619664   2.698   1.894  10.150  0.1556 -0.3963 -0.2270
  173SOPE   H6X19665   2.807   1.908  10.170  0.2128 -3.4667  2.5322
  173SOPE   H6Y19666   2.644   1.991  10.144  1.1296  0.0862 -1.8448
  173SOPE   C3719667   2.659   1.820  10.014 -0.0439 -0.2338  0.2191
  173SOPE   H7X19668   2.550   1.800  10.023 -0.3745  1.2234 -0.3979
  173SOPE   H7Y19669   2.710   1.721  10.007  0.4056 -0.1220  1.5555
  173SOPE   C3819670   2.671   1.914   9.890 -0.1673  0.6656  0.6465
  173SOPE   H8X19671   2.778   1.942   9.880 -0.0009  0.3527  1.4835
  173SOPE   H8Y19672   2.614   2.010   9.893  0.5272  1.1823 -1.4289
  173SOPE   C3919673   2.612   1.853   9.755  0.3699 -0.5218  0.4527
  173SOPE   H9X19674   2.511   1.813   9.777 -1.0222  3.2172  1.6733
  173SOPE   H9Y19675   2.665   1.763   9.715  0.1689  0.5896 -2.6415
  173SOPE  C31019676   2.606   1.949   9.637 -0.5815  0.2364 -1.2690
  173SOPE  H10X19677   2.678   2.031   9.657 -0.7140 -0.0702  0.6825
  173SOPE  H10Y19678   2.509   2.002   9.627 -1.7251 -0.9161  2.2952
  173SOPE  C31119679   2.632   1.887   9.500 -0.6953 -0.1338  0.3792
  173SOPE  H11X19680   2.552   1.812   9.480 -2.4329  1.7099  0.0995
  173SOPE  H11Y19681   2.731   1.836   9.497 -0.0422  1.0287  1.1665
  173SOPE  C31219682   2.623   1.976   9.373  0.0918 -0.5886 -0.4404
  173SOPE  H12X19683   2.692   2.061   9.389 -1.6259  1.3919 -2.7170
  173SOPE  H12Y19684   2.523   2.024   9.372  0.1743 -0.4237 -1.0514
  173SOPE  C31319685   2.635   1.890   9.248  0.1069  0.2938  0.0371
  173SOPE  H13X19686   2.533   1.880   9.205  0.6412  1.7937 -1.7132
  173SOPE  H13Y19687   2.677   1.792   9.281 -0.0744 -0.3477 -1.5436
  173SOPE  C31419688   2.734   1.942   9.142 -0.5515 -0.0509 -0.0019
  173SOPE  H14X19689   2.756   1.869   9.062 -1.4012 -0.4083  0.0779
  173SOPE  H14Y19690   2.826   1.953   9.203  0.5752 -1.3432 -1.3968
  173SOPE  C31519691   2.691   2.073   9.070 -0.3015 -0.3120  0.8588
  173SOPE  H15X19692   2.790   2.109   9.033 -0.9750  0.8418  0.1152
  173SOPE  H15Y19693   2.680   2.152   9.148  1.1617  2.2827 -1.3997
  173SOPE  C31619694   2.584   2.062   8.965 -0.2777  0.8633  0.7346
  173SOPE  H16X19695   2.489   2.052   9.021  0.7038 -0.1364  2.2856
  173SOPE  H16Y19696   2.602   1.977   8.896 -0.2707  0.0380  1.7485
  173SOPE  C31719697   2.565   2.184   8.867  0.1568  1.0273 -0.9373
  173SOPE  H17X19698   2.543   2.272   8.932  0.4442  1.6126 -1.6131
  173SOPE  H17Y19699   2.481   2.165   8.797  0.3731  0.4388 -1.0410
  173SOPE  C31819700   2.694   2.221   8.784  0.0236  0.0149 -0.0261
  173SOPE  H18X19701   2.708   2.147   8.702  1.8887  1.1480 -0.7907
  173SOPE  H18Y19702   2.784   2.228   8.849 -0.7102 -1.0881  1.1497
  173SOPE  H18Z19703   2.682   2.320   8.736  2.0596  0.5985  0.5542
  174SOPE     N19704   1.810   2.464  10.663 -0.5455  0.1421  0.1821
  174SOPE   HN119705   1.824   2.443  10.562 -2.6880 -0.4871 -0.0413
  174SOPE   HN219706   1.783   2.563  10.678  1.1224  0.5797  0.4885
  174SOPE   HN319707   1.903   2.439  10.703  0.5035  0.4051 -1.9490
  174SOPE   C1219708   1.690   2.395  10.724 -0.5311 -0.6180 -0.1457
  174SOPE  H12A19709   1.594   2.447  10.704 -0.4088 -0.4496 -0.2866
  174SOPE  H12B19710   1.686   2.405  10.835 -0.6530 -0.5117 -0.1591
  174SOPE   C1119711   1.693   2.252  10.673  0.0054 -0.1802 -0.0897
  174SOPE  H11A19712   1.667   2.244  10.565 -2.2906 -0.3920  0.4270
  174SOPE  H11B19713   1.608   2.219  10.736 -0.0098  3.1673  1.9272
  174SOPE     P19714   1.842   2.092  10.817 -0.1233 -0.1820  0.5780
  174SOPE   O1319715   1.804   2.149  10.947  0.0240  0.0310  0.6629
  174SOPE   O1419716   1.969   2.024  10.802  0.5666 -0.7971  0.6689
  174SOPE   O1219717   1.821   2.200  10.702 -0.1574  0.1542 -1.3789
  174SOPE   O1119718   1.730   1.995  10.767 -0.9651 -0.9543 -0.1398
  174SOPE    C119719   1.766   1.871  10.700 -0.0008 -0.6893  0.1655
  174SOPE    HA19720   1.677   1.805  10.686  0.0297 -0.2981 -2.4090
  174SOPE    HB19721   1.847   1.816  10.753 -0.8166 -2.2921 -0.1853
  174SOPE    C219722   1.793   1.897  10.543 -0.0219 -0.2758 -0.2723
  174SOPE    HS19723   1.870   1.976  10.552  0.8297 -0.9920 -1.0833
  174SOPE   O2119724   1.677   1.949  10.477 -0.3390  0.0181  0.2641
  174SOPE   C2119725   1.698   2.033  10.378  0.3034  0.2772 -0.2304
  174SOPE   O2219726   1.808   2.076  10.340  0.0013 -0.2044 -0.3655
  174SOPE   C2219727   1.556   2.080  10.339 -0.0040  0.3270  0.3794
  174SOPE   H2R19728   1.501   2.094  10.435 -1.1565 -1.6608  0.0562
  174SOPE   H2S19729   1.513   1.995  10.282  1.4205  0.6756 -1.2942
  174SOPE    C319730   1.858   1.768  10.483 -0.0100 -0.1186  0.1220
  174SOPE    HX19731   1.773   1.697  10.469  0.9516 -1.4904  1.0453
  174SOPE    HY19732   1.928   1.715  10.550 -0.6887 -0.3176  0.6935
  174SOPE   O3119733   1.918   1.790  10.352 -0.3636  0.0804  0.1015
  174SOPE   C3119734   2.026   1.859  10.363 -0.6799 -0.3019 -0.0207
  174SOPE   O3219735   2.084   1.883  10.466  0.0016 -0.5794 -0.3884
  174SOPE   C3219736   2.081   1.906  10.223 -0.6504  0.0588 -0.0640
  174SOPE   H2X19737   2.013   1.968  10.161  0.0236 -0.9181 -1.8568
  174SOPE   H2Y19738   2.092   1.808  10.172  1.0971  0.4945 -0.5749
  174SOPE   C2319739   1.558   2.199  10.257 -0.0304 -0.5613 -0.0329
  174SOPE   H3R19740   1.620   2.283  10.293 -0.8909  2.1344 -4.1084
  174SOPE   H3S19741   1.456   2.242  10.255  0.1867  0.0618  1.3817
  174SOPE   C2419742   1.580   2.167  10.111 -0.2378 -0.3498 -0.2827
  174SOPE   H4R19743   1.679   2.118  10.102  0.3518  0.8513 -0.4270
  174SOPE   H4S19744   1.498   2.098  10.081 -0.3532 -1.1324  1.6567
  174SOPE   C2519745   1.574   2.305  10.029  0.2938  0.3746  0.1108
  174SOPE   H5R19746   1.478   2.359  10.047 -0.7303 -2.0102  2.5458
  174SOPE   H5S19747   1.644   2.370  10.086  0.0793  1.0944 -0.4403
  174SOPE   C2619748   1.608   2.289   9.883  0.3898  0.0589 -0.0756
  174SOPE   H6R19749   1.520   2.253   9.825  0.6085  0.4849 -0.6883
  174SOPE   H6S19750   1.631   2.391   9.844  0.3600 -0.6677 -2.0958
  174SOPE   C2719751   1.727   2.203   9.846 -0.5168  0.5351 -0.6325
  174SOPE   H7R19752   1.804   2.231   9.921 -0.9494 -0.0402  0.0488
  174SOPE   H7S19753   1.700   2.095   9.857 -2.4774  0.8566 -1.8370
  174SOPE   C2819754   1.777   2.230   9.704 -0.6046  0.1484  0.4768
  174SOPE   H8R19755   1.798   2.338   9.688 -0.6045  0.4027  2.0695
  174SOPE   H8S19756   1.879   2.187   9.698 -1.4662 -2.0080  0.3349
  174SOPE   C2919757   1.696   2.172   9.592  0.1810  0.2452 -0.2316
  174SOPE   H9119758   1.626   2.097   9.632 -0.2102  0.1990 -0.9912
  174SOPE  C21019759   1.713   2.172   9.454  1.1186  0.5864 -0.9928
  174SOPE  H10119760   1.639   2.114   9.396 -0.4866 -0.1018  1.5910
  174SOPE  C21119761   1.814   2.248   9.374 -0.4456 -0.2859 -0.4327
  174SOPE  H11R19762   1.853   2.183   9.293  0.2744 -0.6867  0.2207
  174SOPE  H11S19763   1.897   2.277   9.443 -1.1874 -1.5193  1.0411
  174SOPE  C21219764   1.765   2.374   9.297 -0.4401  0.6681  0.3327
  174SOPE  H12R19765   1.728   2.464   9.351 -4.5726  0.7202 -2.1709
  174SOPE  H12S19766   1.675   2.337   9.245 -0.3906 -1.0795  1.3896
  174SOPE  C21319767   1.867   2.417   9.189 -0.1413  0.2969 -0.6895
  174SOPE  H13R19768   1.909   2.325   9.143  0.3654  1.4353 -2.5836
  174SOPE  H13S19769   1.954   2.467   9.238 -0.0144  0.2208 -0.8364
  174SOPE  C21419770   1.823   2.504   9.075 -0.1361  0.1497 -0.1410
  174SOPE  H14R19771   1.788   2.600   9.119  1.7699  0.7886  0.0700
  174SOPE  H14S19772   1.743   2.465   9.008 -0.7125 -0.4059  0.8344
  174SOPE  C21519773   1.927   2.538   8.971  0.6473 -0.6864 -0.2882
  174SOPE  H15R19774   1.979   2.447   8.935  1.4001 -0.8729  1.2193
  174SOPE  H15S19775   2.005   2.597   9.024  0.7263  0.8490 -2.0037
  174SOPE  C21619776   1.871   2.632   8.863 -0.5918 -0.7142  0.3316
  174SOPE  H16R19777   1.795   2.583   8.799 -0.2872 -1.1166  0.2737
  174SOPE  H16S19778   1.955   2.666   8.799  1.3141 -0.5666  2.7489
  174SOPE  C21719779   1.807   2.765   8.913 -0.1229  0.0108  0.3725
  174SOPE  H17R19780   1.866   2.820   8.989 -0.4267  1.2024 -0.2133
  174SOPE  H17S19781   1.717   2.735   8.971  1.1308 -0.9978  1.8561
  174SOPE  C21819782   1.769   2.872   8.806  0.3765  0.6000 -1.0911
  174SOPE  H18R19783   1.859   2.933   8.779  1.3334 -0.1069  0.3526
  174SOPE  H18S19784   1.697   2.947   8.844  0.0641  0.2027 -0.9005
  174SOPE  H18T19785   1.726   2.828   8.714 -0.0112  0.0359 -0.6436
  174SOPE   C3319786   2.216   1.967  10.218  0.6045 -0.2353 -0.3719
  174SOPE   H3X19787   2.282   1.920  10.294  0.4433 -0.0858 -0.1375
  174SOPE   H3Y19788   2.207   2.075  10.243 -0.9224 -0.7236  1.4281
  174SOPE   C3419789   2.278   1.976  10.078 -0.0015  1.3298 -0.0382
  174SOPE   H4X19790   2.278   1.871  10.041  0.1991  1.6762 -1.0557
  174SOPE   H4Y19791   2.382   2.016  10.079  0.5501 -0.0420  1.2293
  174SOPE   C3519792   2.180   2.043   9.971 -0.5522  0.1257 -0.9674
  174SOPE   H5X19793   2.161   2.149   9.999  0.3658  0.6306 -2.1598
  174SOPE   H5Y19794   2.085   1.986   9.976  0.5263 -1.5958  1.1328
  174SOPE   C3619795   2.245   2.022   9.840 -0.1270  0.7186  0.8465
  174SOPE   H6X19796   2.268   1.915   9.818  0.4708  0.9577  0.2962
  174SOPE   H6Y19797   2.342   2.075   9.840  0.4637 -0.3017 -0.3349
  174SOPE   C3719798   2.162   2.076   9.716 -0.8400  0.6326  0.5025
  174SOPE   H7X19799   2.163   2.187   9.722  1.7392  0.6065  4.0260
  174SOPE   H7Y19800   2.058   2.038   9.719 -0.3365 -1.4989 -3.0318
  174SOPE   C3819801   2.214   2.021   9.585 -0.3240  0.4202 -0.2121
  174SOPE   H8X19802   2.217   1.910   9.590 -1.0126  0.4238  0.4602
  174SOPE   H8Y19803   2.314   2.069   9.578 -1.5285  3.1923  0.1388
  174SOPE   C3919804   2.127   2.080   9.471 -0.2930  0.2423 -0.3497
  174SOPE   H9X19805   2.127   2.189   9.493 -0.4040  0.8553 -3.0248
  174SOPE   H9Y19806   2.022   2.043   9.467 -0.3206  0.4187 -2.8717
  174SOPE  C31019807   2.198   2.054   9.329  0.3264 -0.1542 -0.4613
  174SOPE  H10X19808   2.198   1.943   9.318 -0.5669 -0.2655  0.4677
  174SOPE  H10Y19809   2.303   2.091   9.325 -0.0220  1.0355  0.6951
  174SOPE  C31119810   2.115   2.116   9.211  0.2146  0.2715 -0.6045
  174SOPE  H11X19811   2.095   2.221   9.239 -1.7373 -0.3542  0.5535
  174SOPE  H11Y19812   2.019   2.061   9.223 -1.0677  2.2542 -1.2917
  174SOPE  C31219813   2.169   2.090   9.071  0.7128  0.6081 -0.4278
  174SOPE  H12X19814   2.160   1.981   9.052 -1.5704  0.3958  1.4646
  174SOPE  H12Y19815   2.278   2.110   9.080  0.8820 -0.2048 -0.5521
  174SOPE  C31319816   2.098   2.180   8.967  0.9802  0.6771 -0.0355
  174SOPE  H13X19817   2.106   2.283   9.007 -0.8665  0.2078  1.6393
  174SOPE  H13Y19818   1.991   2.153   8.959  0.6521  1.4207  1.5270
  174SOPE  C31419819   2.160   2.179   8.822  0.5975 -0.5378  0.2441
  174SOPE  H14X19820   2.198   2.076   8.803  2.8667  0.6619 -2.5149
  174SOPE  H14Y19821   2.247   2.247   8.811 -0.6560  1.0405 -0.1252
  174SOPE  C31519822   2.053   2.215   8.719 -0.3703  0.4499 -0.1010
  174SOPE  H15X19823   2.038   2.325   8.718  1.9493  0.8001 -0.7021
  174SOPE  H15Y19824   1.953   2.174   8.745 -0.4339  1.0308  0.6070
  174SOPE  C31619825   2.093   2.171   8.579 -0.8279  0.0387 -0.1096
  174SOPE  H16X19826   2.162   2.084   8.577 -0.9633 -0.0633 -2.0202
  174SOPE  H16Y19827   2.164   2.247   8.541 -2.4454  1.8036  0.2520
  174SOPE  C31719828   1.984   2.134   8.475  0.2890 -0.4988 -0.2119
  174SOPE  H17X19829   1.896   2.091   8.528 -1.5944  2.4932 -0.7363
  174SOPE  H17Y19830   2.020   2.056   8.404  0.5015  0.2292 -0.9085
  174SOPE  C31819831   1.926   2.241   8.378 -0.1705  0.1205 -0.0292
  174SOPE  H18X19832   1.895   2.329   8.440 -0.2629 -0.5522  0.9023
  174SOPE  H18Y19833   1.845   2.210   8.309  0.2335 -0.7088 -0.1430
  174SOPE  H18Z19834   2.008   2.289   8.320 -1.1932  1.6898 -0.2314
  175SOPE     N19835   4.088   5.130  10.671  0.2179 -0.5598  0.1370
  175SOPE   HN119836   4.168   5.146  10.607  1.9377 -3.6602  1.3075
  175SOPE   HN219837   4.004   5.182  10.637 -0.3769 -0.6964  1.3380
  175SOPE   HN319838   4.122   5.180  10.756  0.8465  0.4701 -0.6909
  175SOPE   C1219839   4.054   4.983  10.700 -1.1199  0.3488  0.6178
  175SOPE  H12A19840   3.966   4.982  10.767 -2.3682  0.6126 -0.9529
  175SOPE  H12B19841   4.129   4.935  10.766 -0.7133  0.5735  0.3332
  175SOPE   C1119842   4.017   4.905  10.572  0.2678 -0.6764  0.3557
  175SOPE  H11A19843   4.099   4.910  10.497  1.1525  1.8703  1.3822
  175SOPE  H11B19844   3.936   4.955  10.516  2.0569  1.8523 -0.1194
  175SOPE     P19845   4.068   4.646  10.599 -0.3427 -0.0613 -0.1301
  175SOPE   O1319846   4.015   4.551  10.696  0.0089  0.1829  0.3716
  175SOPE   O1419847   4.205   4.695  10.626 -0.4004  0.1346  0.3329
  175SOPE   O1219848   3.983   4.771  10.608 -0.4451 -0.3835 -0.1516
  175SOPE   O1119849   4.055   4.615  10.442  0.5962 -0.5548 -0.1151
  175SOPE    C119850   3.940   4.648  10.364 -0.0299  0.1280  0.2167
  175SOPE    HA19851   3.968   4.619  10.260  2.7962 -0.4867  1.0805
  175SOPE    HB19852   3.941   4.759  10.361  0.4499  0.1380  0.7378
  175SOPE    C219853   3.799   4.588  10.402  0.2899  0.0189 -0.4065
  175SOPE    HS19854   3.783   4.622  10.506  2.5313 -1.3098  0.4434
  175SOPE   O2119855   3.819   4.447  10.396  0.1103  0.7709  0.5697
  175SOPE   C2119856   3.721   4.373  10.450  0.3967  0.6517  0.6966
  175SOPE   O2219857   3.617   4.420  10.495  0.1035  1.1004  0.0406
  175SOPE   C2219858   3.769   4.219  10.446 -0.1867  0.4194  0.3040
  175SOPE   H2R19859   3.855   4.207  10.514 -0.2550 -0.4094  0.2550
  175SOPE   H2S19860   3.806   4.224  10.341  2.1798  0.6961  1.0890
  175SOPE    C319861   3.682   4.641  10.304  0.3949 -0.8884  0.4779
  175SOPE    HX19862   3.675   4.750  10.325  1.1516 -0.4384 -1.3865
  175SOPE    HY19863   3.580   4.607  10.334  0.5688 -1.9894 -0.1242
  175SOPE   O3119864   3.714   4.617  10.167 -0.1677  0.2718 -0.0230
  175SOPE   C3119865   3.639   4.523  10.109  0.1670 -0.2875 -0.0255
  175SOPE   O3219866   3.553   4.450  10.160  0.0624  0.1311  0.0069
  175SOPE   C3219867   3.689   4.491   9.967  0.3138  0.0906 -0.5209
  175SOPE   H2X19868   3.793   4.522   9.989 -0.3351  0.9711  1.6367
  175SOPE   H2Y19869   3.634   4.563   9.903  0.6574  0.7523 -0.0830
  175SOPE   C2319870   3.659   4.118  10.461 -0.1846  0.1091 -0.1999
  175SOPE   H3R19871   3.565   4.157  10.417  0.3559  1.2440 -0.3800
  175SOPE   H3S19872   3.651   4.085  10.567  2.5565 -1.4509 -0.3858
  175SOPE   C2419873   3.692   3.976  10.392  0.4478  0.3669  0.0140
  175SOPE   H4R19874   3.705   3.989  10.283  2.2102 -1.7451 -0.0833
  175SOPE   H4S19875   3.791   3.939  10.426  0.6822 -0.4277 -1.4746
  175SOPE   C2519876   3.577   3.875  10.426 -0.0947 -0.2295  0.6774
  175SOPE   H5R19877   3.575   3.852  10.535 -1.5935  1.5563  1.0974
  175SOPE   H5S19878   3.491   3.942  10.406  0.8865  0.7482 -0.4295
  175SOPE   C2619879   3.571   3.750  10.334 -0.1201 -0.6818 -0.0847
  175SOPE   H6R19880   3.561   3.783  10.228  1.0227 -0.1095 -0.0332
  175SOPE   H6S19881   3.669   3.698  10.333  1.8033  2.5754  0.8764
  175SOPE   C2719882   3.460   3.657  10.373 -0.2029 -0.0133  0.4187
  175SOPE   H7R19883   3.473   3.629  10.480 -0.6730 -1.9282  0.0147
  175SOPE   H7S19884   3.365   3.712  10.358  0.6499  1.7227  1.0558
  175SOPE   C2819885   3.448   3.537  10.276  0.6262 -0.4284  0.7731
  175SOPE   H8R19886   3.345   3.500  10.296 -1.2191  2.8364 -1.8235
  175SOPE   H8S19887   3.445   3.581  10.174  3.3342  1.9901  1.5963
  175SOPE   C2919888   3.558   3.435  10.285 -0.4493 -0.0854 -0.1908
  175SOPE   H9119889   3.613   3.425  10.380  3.0829  0.7576 -2.0129
  175SOPE  C21019890   3.597   3.358  10.181  0.4679 -0.0491 -0.1956
  175SOPE  H10119891   3.663   3.271  10.197 -0.3885 -0.6499  0.2122
  175SOPE  C21119892   3.542   3.369  10.041  0.2145 -0.2519 -0.3669
  175SOPE  H11R19893   3.461   3.444  10.029  0.9454  0.9989  1.8543
  175SOPE  H11S19894   3.511   3.271  10.000 -0.5098 -0.2586  0.1711
  175SOPE  C21219895   3.651   3.412   9.946 -0.1536  0.1566  0.2928
  175SOPE  H12R19896   3.720   3.326   9.926  1.8757  1.6227  0.6481
  175SOPE  H12S19897   3.725   3.482   9.990  0.4496  1.2679 -2.2942
  175SOPE  C21319898   3.596   3.470   9.811 -0.3239 -0.0993  0.4001
  175SOPE  H13R19899   3.532   3.555   9.841  0.6165  0.9164 -0.3580
  175SOPE  H13S19900   3.541   3.388   9.760  0.8799 -0.8291  0.2338
  175SOPE  C21419901   3.708   3.521   9.723 -0.1695  0.3035 -0.2270
  175SOPE  H14R19902   3.793   3.451   9.709 -0.0746  0.3934 -0.1077
  175SOPE  H14S19903   3.737   3.620   9.764  0.7110  0.4416 -1.1483
  175SOPE  C21519904   3.663   3.540   9.577 -1.0024 -0.4000 -0.6758
  175SOPE  H15R19905   3.730   3.617   9.533  0.2080 -1.9061 -1.5892
  175SOPE  H15S19906   3.568   3.591   9.552 -1.3528 -0.9554 -0.4841
  175SOPE  C21619907   3.691   3.421   9.491 -0.2640  0.4688  0.0835
  175SOPE  H16R19908   3.638   3.329   9.525 -0.8947 -0.8219 -3.8157
  175SOPE  H16S19909   3.800   3.402   9.498 -0.2006 -0.1429 -1.9273
  175SOPE  C21719910   3.660   3.439   9.341 -0.4649 -0.4434  0.6868
  175SOPE  H17R19911   3.696   3.536   9.302  0.1597 -0.8686  0.1990
  175SOPE  H17S19912   3.551   3.443   9.318 -0.2431  1.5162 -0.1685
  175SOPE  C21819913   3.721   3.323   9.262 -0.5381  0.3821 -0.0181
  175SOPE  H18R19914   3.706   3.347   9.154  0.6164 -0.2160 -0.3230
  175SOPE  H18S19915   3.664   3.232   9.289 -2.7593  1.0918 -1.9484
  175SOPE  H18T19916   3.827   3.308   9.292 -1.1770 -1.5522  1.4706
  175SOPE   C3319917   3.677   4.349   9.919 -0.7375  0.3512 -0.3807
  175SOPE   H3X19918   3.575   4.317   9.889 -0.3808 -0.6171 -0.5904
  175SOPE   H3Y19919   3.711   4.278   9.996 -1.0988  0.2836 -0.2818
  175SOPE   C3419920   3.769   4.316   9.802  0.0622  0.1529 -0.4814
  175SOPE   H4X19921   3.875   4.326   9.831  0.2100 -1.1984 -0.4893
  175SOPE   H4Y19922   3.743   4.387   9.721  1.3342  0.4220 -0.6751
  175SOPE   C3519923   3.745   4.170   9.749 -0.0015 -0.4372 -0.0217
  175SOPE   H5X19924   3.644   4.170   9.704 -0.3273 -0.9115  0.6919
  175SOPE   H5Y19925   3.742   4.108   9.841 -1.3767 -1.0533 -0.4608
  175SOPE   C3619926   3.847   4.125   9.659 -0.2554  0.4418  1.0900
  175SOPE   H6X19927   3.848   4.014   9.653 -0.9539  0.4680  0.3581
  175SOPE   H6Y19928   3.948   4.163   9.682  0.0541 -0.9002  2.0854
  175SOPE   C3719929   3.832   4.174   9.519 -0.3720 -0.6278  0.1182
  175SOPE   H7X19930   3.819   4.284   9.521 -0.8897 -0.6080 -2.1728
  175SOPE   H7Y19931   3.738   4.136   9.475  0.1641  0.3504 -1.9988
  175SOPE   C3819932   3.960   4.136   9.446 -0.1090  0.7273  0.6292
  175SOPE   H8X19933   3.963   4.025   9.440  0.8558  0.7915 -0.4444
  175SOPE   H8Y19934   4.049   4.163   9.508  0.3980  0.7821 -0.1159
  175SOPE   C3919935   3.979   4.189   9.306 -0.0854  0.2862  0.6704
  175SOPE   H9X19936   3.995   4.297   9.325 -1.1867  0.2805  1.7044
  175SOPE   H9Y19937   3.897   4.186   9.232  2.4858 -0.5242 -2.3922
  175SOPE  C31019938   4.106   4.124   9.233  0.8784  0.1419  0.3582
  175SOPE  H10X19939   4.098   4.015   9.216  1.3283  0.0783  0.5663
  175SOPE  H10Y19940   4.189   4.148   9.302  0.1542  1.3374  0.8561
  175SOPE  C31119941   4.130   4.197   9.097  0.2350 -0.0185 -0.4075
  175SOPE  H11X19942   4.127   4.307   9.112  2.8011  0.0474  0.0496
  175SOPE  H11Y19943   4.044   4.170   9.032 -0.6722 -0.8245  1.0706
  175SOPE  C31219944   4.268   4.179   9.034 -0.8985 -0.6088  0.1774
  175SOPE  H12X19945   4.288   4.077   8.994  2.2399 -0.5047  1.2630
  175SOPE  H12Y19946   4.353   4.202   9.101  0.9071  2.5953 -2.8837
  175SOPE  C31319947   4.289   4.270   8.913 -0.3116 -0.0211  0.4712
  175SOPE  H13X19948   4.397   4.290   8.894 -0.2650  0.7268  1.4416
  175SOPE  H13Y19949   4.233   4.361   8.941  1.8293  1.4353  0.2902
  175SOPE  C31419950   4.213   4.225   8.791  0.1022  0.3053  0.2201
  175SOPE  H14X19951   4.103   4.241   8.800  0.0550  0.2190 -0.1791
  175SOPE  H14Y19952   4.238   4.118   8.772  1.5244  0.7025 -0.2790
  175SOPE  C31519953   4.259   4.295   8.660  0.5102  0.4506  0.5261
  175SOPE  H15X19954   4.205   4.232   8.587 -0.0112 -0.8576  1.9761
  175SOPE  H15Y19955   4.367   4.280   8.637  0.0782 -2.6721  0.2354
  175SOPE  C31619956   4.225   4.444   8.646 -0.7171  0.2530  0.0262
  175SOPE  H16X19957   4.282   4.505   8.719 -0.6941  2.0825 -1.4718
  175SOPE  H16Y19958   4.121   4.468   8.676 -1.4710 -0.3441 -1.9712
  175SOPE  C31719959   4.246   4.486   8.501  0.5632 -0.1780  0.6365
  175SOPE  H17X19960   4.216   4.417   8.419  1.7757  0.7865 -0.6640
  175SOPE  H17Y19961   4.355   4.492   8.481 -0.0547  1.9991 -2.7193
  175SOPE  C31819962   4.193   4.627   8.475 -0.3216 -0.8724 -0.0869
  175SOPE  H18X19963   4.218   4.685   8.567 -0.2077  0.6848 -1.0799
  175SOPE  H18Y19964   4.084   4.619   8.459 -0.3608  1.3343 -1.3024
  175SOPE  H18Z19965   4.248   4.660   8.384  0.3026 -0.0880  0.5573
  176SOPE     N19966   3.216   3.322  11.090 -0.1928 -0.2536  0.7473
  176SOPE   HN119967   3.139   3.285  11.030 -1.5715  3.1755  0.1920
  176SOPE   HN219968   3.285   3.246  11.109 -0.0220 -0.4342 -0.5274
  176SOPE   HN319969   3.192   3.380  11.173  1.1004  1.4635 -0.0135
  176SOPE   C1219970   3.272   3.418  10.989 -0.2487 -1.0718 -0.0099
  176SOPE  H12A19971   3.263   3.381  10.885 -2.2811 -0.5380 -0.0739
  176SOPE  H12B19972   3.380   3.430  11.011 -0.1671 -0.5421 -0.6557
  176SOPE   C1119973   3.201   3.553  11.015 -1.0771 -0.1286  0.6777
  176SOPE  H11A19974   3.259   3.621  10.950 -0.0435 -1.7933 -0.2183
  176SOPE  H11B19975   3.212   3.574  11.123 -0.5405  2.5676  0.1546
  176SOPE     P19976   2.967   3.664  11.002 -0.1837  0.2294 -0.3325
  176SOPE   O1319977   3.043   3.778  11.056 -0.6579  0.8580  0.3654
  176SOPE   O1419978   2.848   3.627  11.072 -0.2866 -0.0372 -0.0245
  176SOPE   O1219979   3.065   3.539  10.990 -0.0735  0.1407  0.3336
  176SOPE   O1119980   2.930   3.688  10.850  0.3589 -0.0356  0.1836
  176SOPE    C119981   2.865   3.591  10.769  0.7376 -0.0810 -0.3694
  176SOPE    HA19982   2.771   3.624  10.720  0.9797  0.5388 -0.4171
  176SOPE    HB19983   2.834   3.504  10.831 -0.6981  0.3924 -0.3824
  176SOPE    C219984   2.954   3.531  10.660  0.0344 -0.4562 -0.3372
  176SOPE    HS19985   3.057   3.543  10.700 -0.4757 -0.3116  0.9837
  176SOPE   O2119986   2.942   3.615  10.545 -0.1724 -0.0211 -0.2922
  176SOPE   C2119987   3.038   3.606  10.454  0.7964  0.3225  0.4615
  176SOPE   O2219988   3.140   3.539  10.459 -0.0233 -0.0772  0.2074
  176SOPE   C2219989   2.993   3.671  10.329  0.2065  0.6460  0.2144
  176SOPE   H2R19990   2.983   3.779  10.354  0.8033  1.3521 -2.2882
  176SOPE   H2S19991   2.893   3.628  10.305  0.4637  0.4414 -0.5276
  176SOPE    C319992   2.926   3.387  10.636  0.3748  0.2150 -0.7355
  176SOPE    HX19993   2.939   3.336  10.733  1.1621 -2.0439 -1.9465
  176SOPE    HY19994   3.005   3.345  10.569  2.4148 -0.1926  1.7599
  176SOPE   O3119995   2.797   3.378  10.577  0.1871 -0.3836 -0.2247
  176SOPE   C3119996   2.748   3.252  10.568 -0.3662 -0.0049 -0.8383
  176SOPE   O3219997   2.818   3.155  10.601  0.6322  0.4196  0.3416
  176SOPE   C3219998   2.614   3.239  10.500 -0.0786  0.2603  0.3700
  176SOPE   H2X19999   2.624   3.293  10.403  2.3818  2.0056  1.4869
  176SOPE   H2Y20000   2.539   3.296  10.557 -0.3355  0.8792 -0.5621
  176SOPE   C2320001   3.086   3.660  10.202 -0.5196 -0.9126 -0.0601
  176SOPE   H3R20002   3.099   3.555  10.167  2.2216 -0.4847 -0.5179
  176SOPE   H3S20003   3.188   3.691  10.231 -0.4541  0.0316 -1.2216
  176SOPE   C2420004   3.010   3.748  10.102 -0.5761 -0.2012 -0.5900
  176SOPE   H4R20005   2.910   3.700  10.101 -1.4019  1.4384 -0.0668
  176SOPE   H4S20006   3.004   3.854  10.136  0.4090 -0.1578 -0.5149
  176SOPE   C2520007   3.065   3.743   9.962  0.7988  0.1222  0.2318
  176SOPE   H5R20008   3.176   3.744   9.962  0.8949 -2.4356 -1.1191
  176SOPE   H5S20009   3.034   3.644   9.921 -1.1320  0.7698  0.0027
  176SOPE   C2620010   3.003   3.847   9.871 -0.0055 -0.4294  0.8291
  176SOPE   H6R20011   2.896   3.818   9.864 -0.0741 -0.0956  0.4288
  176SOPE   H6S20012   3.007   3.947   9.919 -0.7369  0.0395 -0.0402
  176SOPE   C2720013   3.064   3.860   9.731  0.3684 -0.0905  0.5562
  176SOPE   H7R20014   3.117   3.957   9.734  0.3541  0.0015 -1.0503
  176SOPE   H7S20015   3.132   3.777   9.700  1.7544  1.1234  0.2331
  176SOPE   C2820016   2.952   3.902   9.630  0.4958  0.1577  0.6337
  176SOPE   H8R20017   2.904   3.983   9.690  1.2556  2.1383 -1.2824
  176SOPE   H8S20018   3.010   3.938   9.543 -0.6184 -0.0590 -0.2133
  176SOPE   C2920019   2.850   3.792   9.593  0.5360 -0.5491 -0.1292
  176SOPE   H9120020   2.814   3.723   9.671 -1.1653 -1.5372 -1.7331
  176SOPE  C21020021   2.797   3.777   9.470  0.0171  0.9418 -0.7029
  176SOPE  H10120022   2.720   3.699   9.462  0.0105  0.7836  0.7396
  176SOPE  C21120023   2.832   3.861   9.352  0.0946 -1.0770 -0.1257
  176SOPE  H11R20024   2.894   3.948   9.382 -0.0221 -0.8575 -0.5155
  176SOPE  H11S20025   2.741   3.900   9.300  0.5802  1.1604  0.6256
  176SOPE  C21220026   2.923   3.778   9.259 -0.5549 -0.1589  0.1898
  176SOPE  H12R20027   3.004   3.744   9.327 -1.4099  1.7007  2.2725
  176SOPE  H12S20028   2.969   3.846   9.184  2.4340  0.3230  2.2623
  176SOPE  C21320029   2.866   3.652   9.188 -0.2164 -0.0734 -0.2554
  176SOPE  H13R20030   2.767   3.687   9.151 -0.5442 -0.3012  0.3801
  176SOPE  H13S20031   2.846   3.570   9.261 -1.4415  2.2421  2.1763
  176SOPE  C21420032   2.961   3.615   9.079  0.5875  0.4678  0.1651
  176SOPE  H14R20033   3.057   3.596   9.131  0.4905 -0.5983 -0.0097
  176SOPE  H14S20034   2.967   3.695   9.002 -1.2679  0.4607 -0.0258
  176SOPE  C21520035   2.908   3.491   9.004  0.1045  0.7369 -0.0275
  176SOPE  H15R20036   2.797   3.493   9.000  0.0870  2.6438  0.4445
  176SOPE  H15S20037   2.934   3.403   9.067  2.1531  1.7020  0.5632
  176SOPE  C21620038   2.964   3.475   8.866 -0.7300 -0.2367 -0.5614
  176SOPE  H16R20039   2.962   3.582   8.836 -2.0752  0.3850  1.5915
  176SOPE  H16S20040   2.897   3.410   8.806  0.4166 -0.3165 -1.8289
  176SOPE  C21720041   3.107   3.420   8.867  0.5729 -0.2058  0.8225
  176SOPE  H17R20042   3.104   3.313   8.897  0.8029  0.3144  2.8701
  176SOPE  H17S20043   3.163   3.481   8.942  0.7398 -0.8626  1.2368
  176SOPE  C21820044   3.180   3.433   8.726  0.7378  0.2657  0.1710
  176SOPE  H18R20045   3.284   3.396   8.735  0.4461 -0.5905  0.1158
  176SOPE  H18S20046   3.167   3.538   8.692  4.5784  0.7219 -0.2486
  176SOPE  H18T20047   3.132   3.358   8.660  0.2558 -0.2086  1.0431
  176SOPE   C3320048   2.565   3.089  10.472  0.0422  0.0712  0.7072
  176SOPE   H3X20049   2.581   3.022  10.560 -1.6248 -3.5847 -1.5236
  176SOPE   H3Y20050   2.637   3.049  10.397 -0.1684 -3.2268  2.0584
  176SOPE   C3420051   2.414   3.073  10.440 -0.6431 -0.2800 -1.2396
  176SOPE   H4X20052   2.362   3.128  10.522  1.1559  0.4689 -0.5580
  176SOPE   H4Y20053   2.391   2.965  10.454  0.4198 -0.5762 -1.6739
  176SOPE   C3520054   2.367   3.103  10.298  0.3654 -0.0493 -0.3642
  176SOPE   H5X20055   2.395   3.209  10.277 -0.4968  1.0209  3.1272
  176SOPE   H5Y20056   2.256   3.093  10.293  0.4516 -1.7899  0.6055
  176SOPE   C3620057   2.418   3.008  10.191 -0.0238  0.7381  0.2640
  176SOPE   H6X20058   2.413   2.903  10.228  0.7708  0.3533 -0.6816
  176SOPE   H6Y20059   2.524   3.039  10.182  0.0225  0.2121 -1.1772
  176SOPE   C3720060   2.338   3.019  10.065  0.5893 -0.2743  0.7296
  176SOPE   H7X20061   2.356   3.121  10.026 -0.9088  0.5981  2.1530
  176SOPE   H7Y20062   2.231   3.017  10.096  0.5938 -0.9169  0.7123
  176SOPE   C3820063   2.370   2.916   9.951  0.2132  0.6938  0.3932
  176SOPE   H8X20064   2.283   2.901   9.883 -0.1425  1.8134  0.5808
  176SOPE   H8Y20065   2.416   2.821   9.985  1.9398  1.0786 -0.7525
  176SOPE   C3920066   2.469   2.979   9.855  0.3177  0.1482  0.6218
  176SOPE   H9X20067   2.546   3.029   9.918  1.6469  0.3429 -1.0698
  176SOPE   H9Y20068   2.415   3.055   9.794 -1.1909 -1.9117 -0.7162
  176SOPE  C31020069   2.545   2.881   9.765  0.6147 -0.2791  0.0645
  176SOPE  H10X20070   2.458   2.833   9.715  1.2285  0.7008 -2.0454
  176SOPE  H10Y20071   2.598   2.808   9.831  0.8180 -0.1007  0.1019
  176SOPE  C31120072   2.640   2.952   9.664  0.3442  0.1652 -0.3110
  176SOPE  H11X20073   2.733   2.990   9.712 -0.3984 -0.3171  1.6373
  176SOPE  H11Y20074   2.583   3.042   9.633 -0.9769 -0.2494  0.8053
  176SOPE  C31220075   2.681   2.869   9.546 -0.2119 -0.0002 -0.7357
  176SOPE  H12X20076   2.590   2.810   9.519 -1.4988  1.2384  0.7603
  176SOPE  H12Y20077   2.763   2.801   9.579  0.0790  0.3373 -0.7575
  176SOPE  C31320078   2.729   2.952   9.435  0.0616 -0.0659  0.1268
  176SOPE  H13X20079   2.814   3.019   9.462  0.7512 -0.4857 -0.9127
  176SOPE  H13Y20080   2.647   3.026   9.424 -0.1437 -0.0662  1.5386
  176SOPE  C31420081   2.759   2.880   9.299 -0.0515 -0.2418  0.4492
  176SOPE  H14X20082   2.660   2.847   9.261 -0.8180 -0.6277  2.6361
  176SOPE  H14Y20083   2.837   2.800   9.301 -0.2733 -0.4551  0.6312
  176SOPE  C31520084   2.826   2.987   9.196  0.8455 -0.4822 -0.6133
  176SOPE  H15X20085   2.932   3.012   9.220  0.3882  0.6503  0.3451
  176SOPE  H15Y20086   2.763   3.078   9.208  0.8676 -0.7763  2.6796
  176SOPE  C31620087   2.810   2.931   9.048 -0.5921 -0.2832  0.3685
  176SOPE  H16X20088   2.861   2.832   9.052 -1.8014 -0.8843  1.3081
  176SOPE  H16Y20089   2.876   2.998   8.989  0.7484  0.4327  2.5288
  176SOPE  C31720090   2.671   2.893   8.995  0.4657 -0.2653 -1.1395
  176SOPE  H17X20091   2.599   2.972   9.024 -0.8612 -0.5509 -3.4403
  176SOPE  H17Y20092   2.641   2.795   9.037 -3.5728  1.6250  0.9905
  176SOPE  C31820093   2.660   2.899   8.839 -0.7425  0.5173 -0.2445
  176SOPE  H18X20094   2.559   2.923   8.800 -1.6071 -0.4896  1.2695
  176SOPE  H18Y20095   2.708   2.804   8.807 -0.5554  0.0300  1.3950
  176SOPE  H18Z20096   2.726   2.978   8.799  0.4084 -0.2723  0.0630
  177SOPE     N20097   2.186   1.514  11.062  0.4530 -0.3127 -0.5732
  177SOPE   HN120098   2.157   1.472  10.972  1.9758 -0.6102 -0.9528
  177SOPE   HN220099   2.111   1.546  11.126  0.5646  0.3799 -0.7711
  177SOPE   HN320100   2.231   1.602  11.028  1.3302  0.3302  1.9968
  177SOPE   C1220101   2.265   1.422  11.137 -0.5776  0.6762 -0.2915
  177SOPE  H12A20102   2.198   1.353  11.193  0.7936  0.2925  0.9271
  177SOPE  H12B20103   2.331   1.477  11.208  1.1370 -2.8669  1.0736
  177SOPE   C1120104   2.355   1.332  11.047 -0.6890 -0.4868  0.3255
  177SOPE  H11A20105   2.296   1.258  10.988  1.1915 -2.9867  1.3986
  177SOPE  H11B20106   2.420   1.271  11.114 -0.8571  0.4240  1.3564
  177SOPE     P20107   2.588   1.438  10.973  0.0446  0.1896 -0.2473
  177SOPE   O1320108   2.666   1.312  10.966 -0.2490 -0.3285  0.2501
  177SOPE   O1420109   2.619   1.518  11.094  0.5802 -0.2054  0.3908
  177SOPE   O1220110   2.436   1.415  10.956  0.4423  0.4855 -0.4843
  177SOPE   O1120111   2.613   1.507  10.830  0.3495 -0.3183 -0.0844
  177SOPE    C120112   2.527   1.617  10.787  0.1885  0.8060 -0.0682
  177SOPE    HA20113   2.585   1.709  10.763  0.9445  0.0093 -1.3992
  177SOPE    HB20114   2.457   1.651  10.867 -1.6295 -1.5806 -0.5126
  177SOPE    C220115   2.461   1.574  10.652 -0.4779  0.3383  0.8062
  177SOPE    HS20116   2.399   1.489  10.687  0.5519 -0.9080 -0.2736
  177SOPE   O2120117   2.567   1.535  10.562  0.5300  0.0265  0.1646
  177SOPE   C2120118   2.577   1.421  10.497  0.7796 -0.3223  0.4329
  177SOPE   O2220119   2.488   1.336  10.502  0.7110 -0.3019 -0.4484
  177SOPE   C2220120   2.711   1.409  10.429 -0.8072  1.2802 -0.5453
  177SOPE   H2R20121   2.781   1.409  10.515 -3.0005 -2.9930  1.5528
  177SOPE   H2S20122   2.729   1.498  10.364  2.1459  1.7227  0.7131
  177SOPE    C320123   2.361   1.681  10.604  0.0466 -0.5265  0.5892
  177SOPE    HX20124   2.409   1.782  10.607 -1.4036  0.3003 -1.6165
  177SOPE    HY20125   2.273   1.694  10.671 -1.4641 -1.6282 -1.0826
  177SOPE   O3120126   2.323   1.652  10.466  0.0676 -0.3186  0.0233
  177SOPE   C3120127   2.231   1.563  10.447  0.1182  0.9217  0.2591
  177SOPE   O3220128   2.162   1.515  10.534  0.4163  0.2337  0.0521
  177SOPE   C3220129   2.216   1.532  10.299  0.0398  0.1347 -0.3723
  177SOPE   H2X20130   2.111   1.561  10.275  0.4452  0.3968 -1.8878
  177SOPE   H2Y20131   2.230   1.422  10.286  0.8900  0.5319 -3.3990
  177SOPE   C2320132   2.710   1.281  10.344  0.4703  1.2328 -0.1322
  177SOPE   H3R20133   2.679   1.187  10.394  0.1114  0.9349 -0.9007
  177SOPE   H3S20134   2.817   1.262  10.320  0.5716 -0.6370  1.5120
  177SOPE   C2420135   2.647   1.291  10.203 -0.5994 -0.2431 -0.3186
  177SOPE   H4R20136   2.630   1.188  10.164 -0.0834 -0.3842 -0.1828
  177SOPE   H4S20137   2.548   1.340  10.195  0.9487  2.9076 -1.8998
  177SOPE   C2520138   2.732   1.368  10.103  0.1890  0.8151  0.0944
  177SOPE   H5R20139   2.728   1.475  10.133  0.0449  0.1611  2.5598
  177SOPE   H5S20140   2.837   1.333  10.113  0.3109  1.5136  1.5157
  177SOPE   C2620141   2.680   1.355   9.951 -0.6388 -0.1011  0.0029
  177SOPE   H6R20142   2.652   1.251   9.922  1.4887 -0.2604 -1.7167
  177SOPE   H6S20143   2.581   1.405   9.954 -0.7148 -0.0090 -2.2765
  177SOPE   C2720144   2.781   1.417   9.853  0.1634 -0.6046  0.0353
  177SOPE   H7R20145   2.851   1.485   9.906  0.4077 -0.7187 -0.1431
  177SOPE   H7S20146   2.859   1.347   9.816  0.4888  0.3274 -1.0884
  177SOPE   C2820147   2.698   1.480   9.740 -0.4794 -0.3539 -0.7770
  177SOPE   H8R20148   2.640   1.560   9.792 -0.9350 -2.3215  1.9824
  177SOPE   H8S20149   2.760   1.546   9.676  0.9425  0.1749  1.0667
  177SOPE   C2920150   2.625   1.389   9.643  0.0339  0.0108  0.4451
  177SOPE   H9120151   2.576   1.303   9.690 -3.2725  2.4500  1.8471
  177SOPE  C21020152   2.636   1.388   9.507  0.1046  0.7692 -0.5930
  177SOPE  H10120153   2.580   1.318   9.442  0.4126  0.3814 -0.4468
  177SOPE  C21120154   2.715   1.480   9.417  0.5885  0.4559 -0.7860
  177SOPE  H11R20155   2.752   1.571   9.469 -2.5616 -0.0556  2.8065
  177SOPE  H11S20156   2.665   1.503   9.320  0.9960 -2.8692 -1.9292
  177SOPE  C21220157   2.847   1.404   9.377  0.5255 -0.8444  0.0718
  177SOPE  H12R20158   2.823   1.308   9.327  1.7841 -1.2194  0.1556
  177SOPE  H12S20159   2.902   1.380   9.471 -1.0711 -1.0356  1.0029
  177SOPE  C21320160   2.941   1.477   9.282 -0.2739 -0.1814 -0.4818
  177SOPE  H13R20161   3.044   1.452   9.315  0.1906  2.8413  0.6844
  177SOPE  H13S20162   2.929   1.586   9.298 -0.2057 -0.4910  2.1545
  177SOPE  C21420163   2.909   1.431   9.140  0.1501  0.0507 -0.2933
  177SOPE  H14R20164   2.804   1.454   9.114 -1.1058 -3.9216  0.5820
  177SOPE  H14S20165   2.929   1.322   9.137  2.5867  0.4225  0.3079
  177SOPE  C21520166   3.012   1.495   9.039 -0.2532  0.2918  0.1231
  177SOPE  H15R20167   2.999   1.605   9.038  1.7335  0.5709  0.4316
  177SOPE  H15S20168   2.994   1.460   8.935  0.0366 -3.0716  1.0728
  177SOPE  C21620169   3.159   1.453   9.076 -0.4338 -0.1233  0.4548
  177SOPE  H16R20170   3.176   1.344   9.090  0.9871  0.2658  1.9246
  177SOPE  H16S20171   3.183   1.505   9.171  0.5083  0.9824 -0.3621
  177SOPE  C21720172   3.254   1.507   8.970 -0.7194 -0.5603 -0.3567
  177SOPE  H17R20173   3.226   1.611   8.943 -0.0017 -0.6287 -1.4466
  177SOPE  H17S20174   3.251   1.448   8.875 -0.4811  0.1226 -0.7929
  177SOPE  C21820175   3.403   1.516   9.022 -0.1500 -0.3496 -0.0893
  177SOPE  H18R20176   3.478   1.538   8.944  0.6208 -0.0922  0.7004
  177SOPE  H18S20177   3.434   1.413   9.053 -3.0494 -1.4336 -0.5177
  177SOPE  H18T20178   3.419   1.590   9.103 -1.0882  0.6685 -0.8196
  177SOPE   C3320179   2.328   1.599  10.214 -0.2223 -0.3785  0.2236
  177SOPE   H3X20180   2.431   1.596  10.258  0.4597 -1.3617 -1.3582
  177SOPE   H3Y20181   2.303   1.705  10.192  0.7199 -0.5530 -1.8904
  177SOPE   C3420182   2.324   1.539  10.067 -0.3337 -0.1552 -0.3353
  177SOPE   H4X20183   2.310   1.429  10.055 -0.0305 -0.1414 -0.8241
  177SOPE   H4Y20184   2.426   1.563  10.031  0.4036  0.3980  1.9209
  177SOPE   C3520185   2.210   1.588   9.980 -0.2122  0.2723 -0.3155
  177SOPE   H5X20186   2.211   1.699   9.982  0.6368  0.2661  1.1776
  177SOPE   H5Y20187   2.119   1.549  10.031 -0.7389 -0.0034 -1.4290
  177SOPE   C3620188   2.211   1.524   9.838  0.2260  0.6568 -0.1639
  177SOPE   H6X20189   2.107   1.529   9.799  1.4574 -0.5805 -4.0198
  177SOPE   H6Y20190   2.232   1.416   9.852  0.5350  0.7330 -0.0450
  177SOPE   C3720191   2.292   1.589   9.729 -0.4670 -0.2116 -0.1294
  177SOPE   H7X20192   2.401   1.601   9.748 -0.6002  1.0611 -0.0800
  177SOPE   H7Y20193   2.256   1.694   9.728  0.4094  0.1133  0.4307
  177SOPE   C3820194   2.278   1.509   9.598 -0.5379 -0.1266  0.6632
  177SOPE   H8X20195   2.179   1.467   9.574  1.3149 -2.9944 -3.0672
  177SOPE   H8Y20196   2.353   1.427   9.608 -0.4299 -0.2380 -0.7679
  177SOPE   C3920197   2.331   1.603   9.483  0.4885 -0.4584  0.0759
  177SOPE   H9X20198   2.432   1.646   9.495 -0.6325  2.5440 -0.3983
  177SOPE   H9Y20199   2.259   1.687   9.490 -0.4873 -1.1123 -1.4486
  177SOPE  C31020200   2.317   1.545   9.340 -0.9162  1.0777 -0.0662
  177SOPE  H10X20201   2.213   1.522   9.310 -1.0138 -0.4007  1.2572
  177SOPE  H10Y20202   2.384   1.456   9.341 -2.2283  0.0530  1.5408
  177SOPE  C31120203   2.369   1.642   9.236 -0.5330 -0.1272  0.5712
  177SOPE  H11X20204   2.474   1.665   9.264 -1.2356  0.2726  3.1713
  177SOPE  H11Y20205   2.302   1.730   9.241 -2.0586 -1.2923  2.4905
  177SOPE  C31220206   2.374   1.584   9.097 -0.0326  0.2333 -0.6945
  177SOPE  H12X20207   2.275   1.542   9.071 -1.2253  2.0657  0.6078
  177SOPE  H12Y20208   2.447   1.500   9.095 -0.6164 -0.3684  1.2527
  177SOPE  C31320209   2.421   1.697   9.006  0.8958  0.1002 -0.1813
  177SOPE  H13X20210   2.526   1.724   9.030  1.0774  0.5579 -1.4281
  177SOPE  H13Y20211   2.354   1.784   9.023 -0.0687 -0.7907  0.7435
  177SOPE  C31420212   2.417   1.658   8.864  0.1371  0.3492 -0.4863
  177SOPE  H14X20213   2.477   1.730   8.805  0.8487  1.2665  1.2573
  177SOPE  H14Y20214   2.313   1.656   8.823  0.6526 -4.3642 -2.2252
  177SOPE  C31520215   2.483   1.525   8.820 -0.3175  0.0209  0.0499
  177SOPE  H15X20216   2.414   1.449   8.864 -0.8657 -0.0913 -0.9748
  177SOPE  H15Y20217   2.584   1.518   8.865  0.4409 -0.7684 -1.6966
  177SOPE  C31620218   2.495   1.524   8.672 -0.4966 -0.6937 -0.0970
  177SOPE  H16X20219   2.578   1.593   8.647 -0.2519 -0.4773  1.2492
  177SOPE  H16Y20220   2.405   1.570   8.626 -0.6412  0.5044  1.3407
  177SOPE  C31720221   2.523   1.390   8.606 -0.7163 -1.0651 -1.2604
  177SOPE  H17X20222   2.447   1.321   8.649  0.0606  0.5800  3.2393
  177SOPE  H17Y20223   2.616   1.348   8.649 -2.1347 -2.9418  0.1573
  177SOPE  C31820224   2.523   1.397   8.456  0.2237  1.0374  0.5375
  177SOPE  H18X20225   2.533   1.296   8.410  1.2884  1.0907  0.6175
  177SOPE  H18Y20226   2.614   1.454   8.428  0.5645  0.7457  1.0329
  177SOPE  H18Z20227   2.431   1.443   8.414  0.7541  1.5586 -0.0731
  178SOPE     N20228   5.936   1.281  10.791 -0.3661  0.2742 -0.9550
  178SOPE   HN120229   5.948   1.372  10.742 -0.2138  0.5738 -0.3596
  178SOPE   HN220230   5.945   1.197  10.729  0.6860  1.1338 -2.0212
  178SOPE   HN320231   5.840   1.292  10.830  0.2744  0.7301  0.5318
  178SOPE   C1220232   6.031   1.261  10.909 -0.0519 -0.0822  0.8496
  178SOPE  H12A20233   6.000   1.173  10.970  0.9995 -0.9346  0.2008
  178SOPE  H12B20234   6.027   1.353  10.971  2.1172  0.5272  0.1831
  178SOPE   C1120235   6.176   1.237  10.867 -0.0334 -0.1693  0.3371
  178SOPE  H11A20236   6.237   1.264  10.955 -0.0342 -1.4858  0.7676
  178SOPE  H11B20237   6.206   1.304  10.783 -0.7588 -1.7763 -1.2948
  178SOPE     P20238   6.280   1.001  10.915  0.0850  0.0883  0.4407
  178SOPE   O1320239   6.180   0.922  10.993  0.3125 -0.0997  0.5323
  178SOPE   O1420240   6.386   1.080  10.982 -0.1751 -0.0497 -0.3541
  178SOPE   O1220241   6.209   1.101  10.821 -0.2733 -0.1402  0.2957
  178SOPE   O1120242   6.351   0.911  10.815  0.3490  0.4564 -0.0586
  178SOPE    C120243   6.455   0.954  10.729 -0.3417  0.3026 -0.6261
  178SOPE    HA20244   6.551   0.974  10.781 -0.2854  0.4941 -0.8023
  178SOPE    HB20245   6.415   1.051  10.692 -3.5439 -0.3645  0.7513
  178SOPE    C220246   6.489   0.850  10.626 -0.5598  0.1267  0.3205
  178SOPE    HS20247   6.555   0.906  10.556 -0.3085 -2.0290 -1.2765
  178SOPE   O2120248   6.373   0.798  10.560  0.6638 -0.1811  0.0556
  178SOPE   C2120249   6.342   0.851  10.445 -0.6475  0.1049  0.3659
  178SOPE   O2220250   6.399   0.939  10.385  0.1669 -0.8694 -0.7741
  178SOPE   C2220251   6.207   0.793  10.402  1.4148  0.5129  0.6947
  178SOPE   H2R20252   6.162   0.842  10.313  0.6408 -0.8889  0.2845
  178SOPE   H2S20253   6.139   0.805  10.490  2.5715  2.0747  1.4286
  178SOPE    C320254   6.564   0.737  10.688 -0.1666 -0.7594  0.6788
  178SOPE    HX20255   6.494   0.670  10.742 -0.6239 -0.1138  0.9079
  178SOPE    HY20256   6.638   0.777  10.761  1.5965 -2.1997 -0.2462
  178SOPE   O3120257   6.642   0.669  10.587  0.0334 -0.1019  0.4853
  178SOPE   C3120258   6.588   0.559  10.529  0.2041  0.0718  0.2674
  178SOPE   O3220259   6.477   0.521  10.547  0.1019 -0.3777 -0.5339
  178SOPE   C3220260   6.689   0.499  10.437  0.7671  0.6411  0.4905
  178SOPE   H2X20261   6.710   0.397  10.476 -1.3387 -0.2247 -0.5260
  178SOPE   H2Y20262   6.789   0.547  10.445  2.1547 -1.7923 -0.7414
  178SOPE   C2320263   6.225   0.645  10.362 -0.3940 -0.1334  0.6553
  178SOPE   H3R20264   6.127   0.597  10.339 -0.3657  0.7514 -1.5201
  178SOPE   H3S20265   6.277   0.591  10.445  0.2503 -2.1714 -0.9918
  178SOPE   C2420266   6.318   0.632  10.237  0.9088 -0.3363 -0.1583
  178SOPE   H4R20267   6.418   0.673  10.263  0.7180 -1.2433  2.3176
  178SOPE   H4S20268   6.331   0.523  10.222 -2.9760 -1.3262  2.2500
  178SOPE   C2520269   6.261   0.697  10.102  0.6364 -0.2724 -0.4767
  178SOPE   H5R20270   6.151   0.702  10.112  0.8159  1.8088  1.1934
  178SOPE   H5S20271   6.295   0.803  10.101 -0.1827  0.1360  3.0320
  178SOPE   C2620272   6.307   0.621   9.977  0.0364  0.3622 -0.1993
  178SOPE   H6R20273   6.417   0.613   9.964  0.0944 -1.5435  1.0530
  178SOPE   H6S20274   6.258   0.523   9.997  0.8896 -0.0616 -0.1525
  178SOPE   C2720275   6.240   0.664   9.841  0.3588  0.2091  1.2713
  178SOPE   H7R20276   6.129   0.660   9.843  0.1135  1.8749 -1.8003
  178SOPE   H7S20277   6.266   0.770   9.821 -1.4404  0.1835 -2.0589
  178SOPE   C2820278   6.285   0.581   9.717  0.2065 -0.7821  0.3266
  178SOPE   H8R20279   6.254   0.638   9.627 -0.8231 -1.2795  0.3471
  178SOPE   H8S20280   6.395   0.589   9.727  0.3722 -0.2322 -1.6708
  178SOPE   C2920281   6.239   0.444   9.712 -0.6333  0.5195  0.1280
  178SOPE   H9120282   6.134   0.429   9.743 -0.6853 -0.6249 -0.5475
  178SOPE  C21020283   6.302   0.340   9.658  0.6303 -0.2704 -0.8004
  178SOPE  H10120284   6.246   0.247   9.641 -0.2607 -0.2210  1.4379
  178SOPE  C21120285   6.440   0.342   9.608  0.4128  0.1091  0.4705
  178SOPE  H11R20286   6.449   0.237   9.571 -1.7461 -0.7644  2.2198
  178SOPE  H11S20287   6.517   0.383   9.677  1.2419 -0.4135 -0.1128
  178SOPE  C21220288   6.456   0.419   9.470  0.0531  0.2704  0.2872
  178SOPE  H12R20289   6.555   0.408   9.420 -0.7183  0.5403 -1.3481
  178SOPE  H12S20290   6.456   0.529   9.489  0.8911  0.4301 -0.5369
  178SOPE  C21320291   6.359   0.389   9.358 -0.0311  0.0498 -0.1736
  178SOPE  H13R20292   6.392   0.460   9.279 -1.7200 -0.2399 -1.1921
  178SOPE  H13S20293   6.252   0.399   9.387 -0.1805 -2.1763  0.2636
  178SOPE  C21420294   6.372   0.248   9.297 -0.1275  0.3242 -0.4288
  178SOPE  H14R20295   6.362   0.179   9.383  1.5952 -0.3182 -0.7064
  178SOPE  H14S20296   6.473   0.235   9.254 -1.1980  2.3628 -4.0309
  178SOPE  C21520297   6.269   0.222   9.182  0.2010 -0.2576 -0.1829
  178SOPE  H15R20298   6.177   0.285   9.187 -0.5032 -1.2148 -0.8225
  178SOPE  H15S20299   6.238   0.116   9.189 -1.4643  0.3020  2.4006
  178SOPE  C21620300   6.328   0.245   9.048  0.0840 -0.1852 -0.0258
  178SOPE  H16R20301   6.421   0.187   9.033 -1.6457 -2.6611 -1.9450
  178SOPE  H16S20302   6.346   0.352   9.024  0.4738  0.1873  1.7297
  178SOPE  C21720303   6.238   0.184   8.948 -0.0028  0.0556  0.3688
  178SOPE  H17R20304   6.139   0.231   8.966  0.1792 -0.1921  2.2559
  178SOPE  H17S20305   6.222   0.075   8.963  3.2046 -1.0186 -2.6235
  178SOPE  C21820306   6.298   0.184   8.807 -0.0220 -0.4759  0.4055
  178SOPE  H18R20307   6.399   0.141   8.820  0.3208 -1.0553 -3.3067
  178SOPE  H18S20308   6.314   0.285   8.762  1.7121 -0.0837  1.8156
  178SOPE  H18T20309   6.243   0.119   8.736  0.4805  1.6014 -2.0368
  178SOPE   C3320310   6.650   0.488  10.290  0.1592  0.2188 -0.5016
  178SOPE   H3X20311   6.617   0.585  10.247  2.6483  0.6531 -1.5822
  178SOPE   H3Y20312   6.572   0.409  10.283  0.5022 -0.4460  2.0524
  178SOPE   C3420313   6.769   0.453  10.196  0.3853  0.2164  0.2713
  178SOPE   H4X20314   6.851   0.527  10.209 -2.7644  4.0936  0.2938
  178SOPE   H4Y20315   6.740   0.463  10.089  1.1084 -0.1953  0.0255
  178SOPE   C3520316   6.824   0.310  10.204 -0.6607 -0.4627  0.0959
  178SOPE   H5X20317   6.843   0.294  10.312 -0.8496  0.2127  0.2352
  178SOPE   H5Y20318   6.926   0.314  10.161 -0.1140 -0.1244  1.4014
  178SOPE   C3620319   6.728   0.198  10.152 -0.0438 -0.0397 -0.4226
  178SOPE   H6X20320   6.719   0.222  10.044  0.3075 -0.6907 -0.6071
  178SOPE   H6Y20321   6.627   0.196  10.198 -0.4052 -1.4008 -1.2121
  178SOPE   C3720322   6.793   0.061  10.166  0.5111  0.2373  0.0661
  178SOPE   H7X20323   6.788   0.033  10.273  0.0463  0.7808  0.1892
  178SOPE   H7Y20324   6.902   0.075  10.150  0.1773  1.0036 -1.8154
  178SOPE   C3820325   6.726  -0.048  10.080 -0.3008  0.5056  0.3103
  178SOPE   H8X20326   6.616  -0.045  10.096 -0.4745  0.0404 -0.7229
  178SOPE   H8Y20327   6.766  -0.150  10.097  0.5490  0.9306  0.9630
  178SOPE   C3920328   6.730  -0.021   9.930 -0.4866 -0.3428 -0.4571
  178SOPE   H9X20329   6.834  -0.000   9.899 -0.2026 -0.9644  0.0536
  178SOPE   H9Y20330   6.674   0.072   9.905 -1.0120 -0.9121 -1.4174
  178SOPE  C31020331   6.688  -0.133   9.838  0.0850 -0.5567 -0.4570
  178SOPE  H10X20332   6.581  -0.153   9.859  0.0991 -0.6054 -0.4297
  178SOPE  H10Y20333   6.748  -0.226   9.853 -0.8841 -0.8409  2.2037
  178SOPE  C31120334   6.691  -0.080   9.681  0.0281  0.2743 -0.0333
  178SOPE  H11X20335   6.788  -0.041   9.643  0.4572  0.6387  1.3953
  178SOPE  H11Y20336   6.624   0.008   9.669  1.2842  1.1269 -1.1543
  178SOPE  C31220337   6.658  -0.196   9.585  0.0330 -0.0209  0.6791
  178SOPE  H12X20338   6.560  -0.239   9.612 -0.6221  0.2803 -1.1044
  178SOPE  H12Y20339   6.742  -0.268   9.583  2.3188  2.4811  0.3636
  178SOPE  C31320340   6.642  -0.164   9.433  0.3437 -0.3988  0.3191
  178SOPE  H13X20341   6.732  -0.111   9.397 -0.3839 -0.7415 -2.1583
  178SOPE  H13Y20342   6.556  -0.094   9.425  0.1603 -0.6938 -0.3264
  178SOPE  C31420343   6.633  -0.291   9.347  0.7219 -0.2157  0.1070
  178SOPE  H14X20344   6.556  -0.363   9.382 -0.0709 -0.9738 -2.9021
  178SOPE  H14Y20345   6.731  -0.344   9.355 -0.7954 -3.2316  0.0659
  178SOPE  C31520346   6.599  -0.250   9.203 -0.1590 -0.6202 -0.0633
  178SOPE  H15X20347   6.628  -0.340   9.144  0.8130 -1.4286  1.5831
  178SOPE  H15Y20348   6.678  -0.177   9.174 -0.7403  1.1711  2.4794
  178SOPE  C31620349   6.460  -0.210   9.160  0.3470  0.4991  0.4061
  178SOPE  H16X20350   6.405  -0.167   9.246  2.5854  0.0756  2.1214
  178SOPE  H16Y20351   6.404  -0.301   9.131 -0.5870  1.2622 -0.2620
  178SOPE  C31720352   6.460  -0.111   9.042 -0.4605  0.9395  0.4424
  178SOPE  H17X20353   6.523  -0.024   9.069  1.6236  0.6197 -2.8824
  178SOPE  H17Y20354   6.355  -0.076   9.034  0.6886  4.3534 -2.1311
  178SOPE  C31820355   6.511  -0.181   8.919  0.3737 -0.0017 -0.0153
  178SOPE  H18X20356   6.506  -0.109   8.834  0.8161 -1.7954 -1.6379
  178SOPE  H18Y20357   6.460  -0.274   8.884  0.7597  0.6593 -2.5707
  178SOPE  H18Z20358   6.618  -0.209   8.935  0.1330 -1.5977 -0.9223
  179SOPE     N20359   6.317   1.601   6.365 -0.8814 -0.2661 -0.4462
  179SOPE   HN120360   6.345   1.558   6.456 -2.1771  3.5718  2.0112
  179SOPE   HN220361   6.405   1.597   6.309  0.5477  1.1543  1.5290
  179SOPE   HN320362   6.310   1.702   6.387 -0.5136 -0.7532  2.2737
  179SOPE   C1220363   6.205   1.553   6.290 -0.5387  0.7239 -0.4220
  179SOPE  H12A20364   6.212   1.597   6.188 -2.7868  2.6749  0.1699
  179SOPE  H12B20365   6.106   1.590   6.325 -1.8756 -2.9452  0.0989
  179SOPE   C1120366   6.205   1.394   6.286  1.0551 -0.0337 -0.6628
  179SOPE  H11A20367   6.299   1.356   6.239  3.0056  2.8570  0.5740
  179SOPE  H11B20368   6.114   1.364   6.230  0.6436  0.2036 -0.1277
  179SOPE     P20369   6.088   1.328   6.513  0.3006  0.0512 -0.0784
  179SOPE   O1320370   5.961   1.280   6.446 -0.8602  0.1639  0.0158
  179SOPE   O1420371   6.077   1.455   6.594  0.2489  0.3296  0.0172
  179SOPE   O1220372   6.209   1.335   6.415  0.2572 -0.0452 -0.2022
  179SOPE   O1120373   6.133   1.230   6.621 -0.8565  0.3735 -0.3260
  179SOPE    C120374   6.169   1.093   6.571 -0.5397 -0.0089  0.0335
  179SOPE    HA20375   6.162   1.079   6.461 -0.9878  0.2638  0.0246
  179SOPE    HB20376   6.099   1.025   6.623 -1.0744 -0.0469 -0.7226
  179SOPE    C220377   6.299   1.050   6.632 -0.6234 -0.1278  0.0961
  179SOPE    HS20378   6.310   0.941   6.613  1.1444 -0.0547  0.5270
  179SOPE   O2120379   6.303   1.074   6.772  0.3965  0.1113  0.0240
  179SOPE   C2120380   6.259   0.972   6.846  0.2200 -0.1820  1.0219
  179SOPE   O2220381   6.235   0.861   6.802 -0.5064 -0.1908  0.1712
  179SOPE   C2220382   6.249   1.024   6.992  0.0889  0.2584  0.7491
  179SOPE   H2R20383   6.159   1.087   7.009  0.1325 -0.0476  2.2787
  179SOPE   H2S20384   6.341   1.081   7.018 -0.1919  0.0707  2.2425
  179SOPE    C320385   6.422   1.128   6.571  0.3495  0.2589  0.1856
  179SOPE    HX20386   6.392   1.232   6.597 -2.0817 -0.7534  1.8110
  179SOPE    HY20387   6.423   1.115   6.461 -3.0215 -0.2414  0.0968
  179SOPE   O3120388   6.554   1.100   6.629  0.0493 -0.1806 -0.0480
  179SOPE   C3120389   6.602   0.981   6.612  0.9644  0.1775  0.5739
  179SOPE   O3220390   6.556   0.896   6.532 -0.3813  0.0726 -0.8574
  179SOPE   C3220391   6.717   0.965   6.716 -0.3701 -0.2958 -0.3355
  179SOPE   H2X20392   6.806   0.987   6.654 -0.6974 -1.5098 -1.2620
  179SOPE   H2Y20393   6.710   0.859   6.748  0.2976  0.0153  0.8991
  179SOPE   C2320394   6.216   0.904   7.085  0.0572 -0.7940 -0.2947
  179SOPE   H3R20395   6.299   0.830   7.083 -0.1201 -1.0027  0.0699
  179SOPE   H3S20396   6.120   0.852   7.064 -1.5306  0.0752  3.8757
  179SOPE   C2420397   6.213   0.946   7.238  0.1482 -0.3091  0.5956
  179SOPE   H4R20398   6.306   1.003   7.261 -1.3873  1.7930  1.8354
  179SOPE   H4S20399   6.129   1.012   7.266  0.3469 -1.0157  3.1203
  179SOPE   C2520400   6.199   0.816   7.324 -0.6813 -1.3978 -0.1876
  179SOPE   H5R20401   6.100   0.770   7.306 -1.7775  0.8868 -0.2437
  179SOPE   H5S20402   6.285   0.746   7.311  0.7985  0.2067  0.5255
  179SOPE   C2620403   6.196   0.855   7.477  0.0639 -0.6872 -0.5241
  179SOPE   H6R20404   6.287   0.917   7.497 -1.1245  0.8990  0.1482
  179SOPE   H6S20405   6.113   0.928   7.476  0.5242 -0.1489 -0.2422
  179SOPE   C2720406   6.168   0.741   7.581  0.5743 -0.0536 -0.2897
  179SOPE   H7R20407   6.061   0.714   7.590  0.6651 -0.9875 -1.5900
  179SOPE   H7S20408   6.224   0.655   7.539  4.1572  2.0054 -0.1540
  179SOPE   C2820409   6.231   0.778   7.719 -0.3948 -0.7746  0.2882
  179SOPE   H8R20410   6.199   0.700   7.792 -0.8646 -0.5635  0.3083
  179SOPE   H8S20411   6.337   0.746   7.702 -1.3075 -3.4603 -0.9571
  179SOPE   C2920412   6.213   0.915   7.777 -0.1062  0.5198 -0.1882
  179SOPE   H9120413   6.212   1.000   7.707  0.7365  1.8912  1.3850
  179SOPE  C21020414   6.193   0.942   7.904  0.2753 -0.1940 -0.2305
  179SOPE  H10120415   6.177   1.044   7.942  1.1395 -1.0474  2.6960
  179SOPE  C21120416   6.188   0.833   8.017 -0.0867 -0.6141 -0.0077
  179SOPE  H11R20417   6.289   0.798   8.047 -0.5712 -3.3043 -1.1435
  179SOPE  H11S20418   6.136   0.744   7.973 -1.4984  0.8360 -1.4295
  179SOPE  C21220419   6.118   0.876   8.142 -0.0283 -0.7281 -0.0611
  179SOPE  H12R20420   6.143   0.976   8.184 -2.0319 -0.3687  0.3591
  179SOPE  H12S20421   6.129   0.793   8.215 -0.5335 -0.0378  0.8314
  179SOPE  C21320422   5.964   0.879   8.125  0.1672 -0.3967  1.1909
  179SOPE  H13R20423   5.931   0.773   8.137 -0.1320 -0.3963  0.4249
  179SOPE  H13S20424   5.936   0.924   8.028 -0.9726 -1.3401  1.0570
  179SOPE  C21420425   5.909   0.970   8.241  0.1781  0.5460 -0.0096
  179SOPE  H14R20426   5.938   1.077   8.227 -0.3608  0.5655 -1.0779
  179SOPE  H14S20427   5.953   0.935   8.336 -0.5801 -1.5689 -0.3937
  179SOPE  C21520428   5.750   0.956   8.251  0.1865  0.1443  0.1768
  179SOPE  H15R20429   5.726   0.849   8.272  0.6243 -0.0733 -0.4025
  179SOPE  H15S20430   5.697   0.979   8.156  1.8009 -2.5242 -1.5106
  179SOPE  C21620431   5.682   1.032   8.363  0.4163 -0.6592 -0.1126
  179SOPE  H16R20432   5.730   1.004   8.459  0.2174 -2.8889 -0.6074
  179SOPE  H16S20433   5.576   0.999   8.363 -0.0732  0.8052 -0.8640
  179SOPE  C21720434   5.692   1.179   8.352 -0.4159 -1.1985 -0.4761
  179SOPE  H17R20435   5.662   1.217   8.252  1.9157  0.6336 -0.5996
  179SOPE  H17S20436   5.801   1.204   8.359 -0.4622 -0.7704 -1.1659
  179SOPE  C21820437   5.617   1.270   8.452 -0.1360 -0.3688 -0.0544
  179SOPE  H18R20438   5.618   1.378   8.426  0.3914 -0.2805  0.3107
  179SOPE  H18S20439   5.646   1.258   8.558  1.3343 -0.7847 -0.4883
  179SOPE  H18T20440   5.514   1.229   8.457 -0.6887  0.9860  0.2389
  179SOPE   C3320441   6.714   1.048   6.847 -0.7844  1.0577 -0.1970
  179SOPE   H3X20442   6.692   1.156   6.837  2.8084  1.8330 -0.9963
  179SOPE   H3Y20443   6.819   1.047   6.882 -0.7754 -2.1876 -0.0067
  179SOPE   C3420444   6.630   0.986   6.958  0.3316 -0.9821  0.3036
  179SOPE   H4X20445   6.620   0.878   6.935  1.6374 -1.1134  0.2795
  179SOPE   H4Y20446   6.530   1.033   6.955  0.9871  0.6612  1.7703
  179SOPE   C3520447   6.704   0.982   7.085 -0.2062 -0.3111 -0.4256
  179SOPE   H5X20448   6.742   1.082   7.114  0.8955 -0.3753 -1.5150
  179SOPE   H5Y20449   6.796   0.921   7.072  0.8513  1.4386 -1.6187
  179SOPE   C3620450   6.613   0.937   7.202 -0.5127 -0.4227 -0.2225
  179SOPE   H6X20451   6.568   0.839   7.177 -2.5228  0.7712 -1.6456
  179SOPE   H6Y20452   6.526   1.006   7.208  0.5688  1.0648 -0.7594
  179SOPE   C3720453   6.674   0.938   7.342 -0.4083 -0.0841 -0.0031
  179SOPE   H7X20454   6.694   1.043   7.370  2.6884 -1.0047  1.6830
  179SOPE   H7Y20455   6.764   0.874   7.332 -0.4378 -0.2258  0.5981
  179SOPE   C3820456   6.596   0.875   7.463  0.3081  0.0983 -0.1411
  179SOPE   H8X20457   6.592   0.765   7.450  1.3782 -0.0538  0.6329
  179SOPE   H8Y20458   6.496   0.921   7.450  0.5768  0.2377 -1.8383
  179SOPE   C3920459   6.660   0.913   7.596 -0.8692  0.4798 -0.1803
  179SOPE   H9X20460   6.664   1.023   7.616 -3.7390  0.9711 -1.7502
  179SOPE   H9Y20461   6.763   0.872   7.601 -0.6645  1.1086  1.0796
  179SOPE  C31020462   6.598   0.847   7.715  0.2345  0.0007 -0.5572
  179SOPE  H10X20463   6.586   0.738   7.695 -0.8139  0.0088 -0.0285
  179SOPE  H10Y20464   6.496   0.891   7.720 -1.0325 -2.7795  0.1398
  179SOPE  C31120465   6.683   0.880   7.836  0.2314 -0.3337 -0.3338
  179SOPE  H11X20466   6.697   0.989   7.852  0.7706 -0.4540  0.0476
  179SOPE  H11Y20467   6.781   0.830   7.823 -1.4701 -3.6046 -1.6167
  179SOPE  C31220468   6.616   0.829   7.973  0.2455 -0.0371  0.5404
  179SOPE  H12X20469   6.619   0.718   7.963  0.4178  0.1466 -2.1130
  179SOPE  H12Y20470   6.509   0.860   7.973  0.0158 -0.6985 -1.1253
  179SOPE  C31320471   6.688   0.863   8.099 -0.7668  0.2004  0.2036
  179SOPE  H13X20472   6.697   0.972   8.118 -0.3548  0.5588 -1.8176
  179SOPE  H13Y20473   6.793   0.826   8.105 -0.3224  1.3661 -0.0166
  179SOPE  C31420474   6.609   0.808   8.212 -1.2613  0.5695  0.4793
  179SOPE  H14X20475   6.617   0.697   8.211 -1.7632  0.5205 -1.0806
  179SOPE  H14Y20476   6.500   0.825   8.202 -1.7817 -1.8128  1.2824
  179SOPE  C31520477   6.648   0.860   8.347 -0.6601 -0.1840 -0.0354
  179SOPE  H15X20478   6.680   0.966   8.350 -1.2116 -0.0104  3.2728
  179SOPE  H15Y20479   6.735   0.803   8.387 -1.4977  0.0304  2.2426
  179SOPE  C31620480   6.541   0.865   8.453 -0.0491  0.0919  0.4227
  179SOPE  H16X20481   6.447   0.917   8.427 -0.7435 -0.8002  1.0920
  179SOPE  H16Y20482   6.584   0.926   8.536  0.1942  0.0885  0.3011
  179SOPE  C31720483   6.494   0.734   8.516  0.2121  0.3185  0.8681
  179SOPE  H17X20484   6.583   0.670   8.534  1.3642  1.3820 -0.7074
  179SOPE  H17Y20485   6.432   0.686   8.437 -1.2175  2.8820  0.3178
  179SOPE  C31820486   6.408   0.751   8.641 -0.6031 -0.5778  0.4648
  179SOPE  H18X20487   6.326   0.823   8.617 -1.3190 -1.6695 -0.4666
  179SOPE  H18Y20488   6.465   0.796   8.725 -2.1499  2.5467 -0.0253
  179SOPE  H18Z20489   6.363   0.652   8.664  1.4004 -1.7065 -0.1893
  180SOPE     N20490   5.631   1.607   6.488 -0.5906 -0.6924 -0.0222
  180SOPE   HN120491   5.664   1.539   6.417  2.0906 -0.8140  1.2162
  180SOPE   HN220492   5.550   1.652   6.440 -0.4442  0.1052  0.4650
  180SOPE   HN320493   5.708   1.675   6.503 -1.7541  0.5052  0.7218
  180SOPE   C1220494   5.580   1.533   6.610 -0.7435  0.0440 -0.5825
  180SOPE  H12A20495   5.568   1.606   6.693 -0.7041 -0.5742 -0.0166
  180SOPE  H12B20496   5.663   1.477   6.657 -0.7120 -1.2430 -2.0929
  180SOPE   C1120497   5.449   1.460   6.574  0.7537  0.1110 -0.5799
  180SOPE  H11A20498   5.357   1.522   6.568  0.3623 -0.3638  0.3529
  180SOPE  H11B20499   5.440   1.392   6.661 -2.9738 -1.3950 -1.9240
  180SOPE     P20500   5.351   1.308   6.389  0.2472 -0.4604  0.2367
  180SOPE   O1320501   5.377   1.299   6.242  0.0782 -0.1280  0.0076
  180SOPE   O1420502   5.222   1.370   6.433  0.3519 -0.2505  0.4404
  180SOPE   O1220503   5.476   1.381   6.462 -0.2014  0.0102  0.2923
  180SOPE   O1120504   5.356   1.155   6.435 -0.4524 -0.6336 -0.1922
  180SOPE    C120505   5.479   1.097   6.477 -0.2002 -0.3534  0.4699
  180SOPE    HA20506   5.558   1.173   6.496 -0.0871  0.1177 -1.6307
  180SOPE    HB20507   5.511   1.033   6.392  1.0660  0.6393  0.1710
  180SOPE    C220508   5.459   1.007   6.595  0.1731  1.0377 -0.2438
  180SOPE    HS20509   5.352   0.976   6.602  0.3269  0.5185 -0.1235
  180SOPE   O2120510   5.513   1.081   6.707  0.3809 -0.8216  0.0674
  180SOPE   C2120511   5.452   1.057   6.818  0.0749  0.3626 -0.4952
  180SOPE   O2220512   5.371   0.972   6.846 -0.0595  0.4164  0.1555
  180SOPE   C2220513   5.496   1.166   6.923 -0.3221  0.8177 -0.0997
  180SOPE   H2R20514   5.410   1.220   6.966 -0.6357 -0.9383  1.5884
  180SOPE   H2S20515   5.568   1.238   6.876 -0.7188  0.9659 -0.4866
  180SOPE    C320516   5.542   0.875   6.580  0.2689  0.0784 -1.4164
  180SOPE    HX20517   5.645   0.893   6.544  1.1621  0.1018  0.9454
  180SOPE    HY20518   5.494   0.807   6.507  1.3711 -1.4306 -0.7882
  180SOPE   O3120519   5.546   0.804   6.706  0.1559 -0.3223  0.2734
  180SOPE   C3120520   5.451   0.712   6.725  0.4846  0.0012 -0.5421
  180SOPE   O3220521   5.362   0.675   6.644  0.1188 -0.3600 -0.4239
  180SOPE   C3220522   5.481   0.657   6.859 -0.0199  0.3344  0.1761
  180SOPE   H2X20523   5.505   0.736   6.933 -0.6959  0.7613 -0.0516
  180SOPE   H2Y20524   5.558   0.579   6.841  1.5067  1.6660  0.6007
  180SOPE   C2320525   5.580   1.102   7.036  0.4304  0.7660  0.0878
  180SOPE   H3R20526   5.662   1.036   7.003  1.9653  3.0507 -0.9113
  180SOPE   H3S20527   5.524   1.031   7.101 -0.2873  0.2008 -1.1111
  180SOPE   C2420528   5.648   1.216   7.118 -0.0793 -0.2700  0.0882
  180SOPE   H4R20529   5.679   1.300   7.052  0.1631  0.8233  1.5504
  180SOPE   H4S20530   5.583   1.261   7.196  0.3782 -0.8284  0.8091
  180SOPE   C2520531   5.773   1.166   7.194 -0.7955 -0.9452 -0.4156
  180SOPE   H5R20532   5.850   1.124   7.125  1.9288  0.1062  1.8094
  180SOPE   H5S20533   5.824   1.257   7.232  0.0149 -0.8807 -1.5872
  180SOPE   C2620534   5.741   1.057   7.299 -0.3938 -0.1845  0.4530
  180SOPE   H6R20535   5.643   1.095   7.335 -0.9955  1.1889 -2.3249
  180SOPE   H6S20536   5.716   0.965   7.242 -2.8282  0.8289 -0.2468
  180SOPE   C2720537   5.853   1.029   7.406 -0.6647  0.3975 -0.6134
  180SOPE   H7R20538   5.827   0.947   7.478  0.4076  0.6858  0.1156
  180SOPE   H7S20539   5.940   0.988   7.351 -0.6021 -1.6735  0.8749
  180SOPE   C2820540   5.901   1.154   7.489 -0.0213 -0.9661  0.2988
  180SOPE   H8R20541   5.978   1.119   7.561  1.6405  1.0398 -0.4177
  180SOPE   H8S20542   5.954   1.230   7.428 -1.9246 -0.0875 -0.3283
  180SOPE   C2920543   5.779   1.214   7.557 -0.6769  0.4648 -0.5145
  180SOPE   H9120544   5.720   1.270   7.483 -1.8614 -1.1205 -0.8042
  180SOPE  C21020545   5.754   1.224   7.689  0.1398  0.5114 -0.4104
  180SOPE  H10120546   5.667   1.283   7.720  0.0270  0.1879 -0.0954
  180SOPE  C21120547   5.831   1.174   7.813 -0.4571 -0.8522 -0.1323
  180SOPE  H11R20548   5.897   1.096   7.770 -0.0584 -0.0579 -0.9825
  180SOPE  H11S20549   5.760   1.129   7.887 -1.7909 -0.2088 -0.9922
  180SOPE  C21220550   5.910   1.296   7.863 -0.1893  0.0307 -0.4395
  180SOPE  H12R20551   5.916   1.375   7.786  0.3701  1.7213  1.2620
  180SOPE  H12S20552   6.010   1.262   7.898 -1.0236 -1.5671  0.5368
  180SOPE  C21320553   5.843   1.358   7.989 -0.2040  0.1881 -0.1815
  180SOPE  H13R20554   5.822   1.275   8.060  1.6225  0.5436  0.8387
  180SOPE  H13S20555   5.743   1.389   7.952 -1.9500 -4.0293  0.4455
  180SOPE  C21420556   5.910   1.469   8.073 -0.7759 -0.0636 -0.0516
  180SOPE  H14R20557   5.957   1.547   8.009 -0.8525 -1.2361 -1.6264
  180SOPE  H14S20558   5.992   1.413   8.123 -0.8120  1.4202  1.7459
  180SOPE  C21520559   5.824   1.533   8.175  0.7637  0.0578  0.3564
  180SOPE  H15R20560   5.752   1.456   8.207 -0.6031  0.7357 -0.9701
  180SOPE  H15S20561   5.764   1.618   8.137  0.0157  1.6668  4.6154
  180SOPE  C21620562   5.903   1.595   8.284 -0.5636 -0.2716 -0.0163
  180SOPE  H16R20563   5.882   1.704   8.291 -3.2004 -0.5818 -1.7068
  180SOPE  H16S20564   6.012   1.590   8.261 -0.2262  2.7701  0.5564
  180SOPE  C21720565   5.889   1.512   8.413 -0.1449 -0.1235  0.5111
  180SOPE  H17R20566   5.904   1.404   8.392  0.5446  0.3131 -1.4248
  180SOPE  H17S20567   5.780   1.530   8.427 -0.3785  1.1024 -2.2916
  180SOPE  C21820568   5.976   1.553   8.533  0.4599 -0.4119  0.2701
  180SOPE  H18R20569   5.951   1.485   8.617  2.2318 -1.8769 -0.3173
  180SOPE  H18S20570   5.948   1.658   8.560  1.6013 -0.5187  2.0197
  180SOPE  H18T20571   6.083   1.549   8.503  0.3962  3.7290 -1.2228
  180SOPE   C3320572   5.349   0.609   6.917 -0.2425 -0.2632  0.4484
  180SOPE   H3X20573   5.308   0.518   6.868 -0.4012 -0.2726  0.5979
  180SOPE   H3Y20574   5.273   0.689   6.907  0.8651  0.7612  0.0570
  180SOPE   C3420575   5.375   0.573   7.066 -0.1598 -0.5133 -0.0142
  180SOPE   H4X20576   5.382   0.672   7.116  0.3413  0.1436 -1.3522
  180SOPE   H4Y20577   5.475   0.526   7.077  0.6100  0.9522 -0.4400
  180SOPE   C3520578   5.268   0.483   7.129 -0.2998  0.0050  0.7033
  180SOPE   H5X20579   5.301   0.378   7.113  0.5320  0.3654 -0.0789
  180SOPE   H5Y20580   5.169   0.493   7.079 -0.8509  2.3676  2.1006
  180SOPE   C3620581   5.245   0.500   7.283  0.1418  0.1036  0.6250
  180SOPE   H6X20582   5.238   0.610   7.295  0.3808  0.1316  0.4991
  180SOPE   H6Y20583   5.334   0.468   7.341  0.1011 -1.7942 -0.2781
  180SOPE   C3720584   5.119   0.427   7.324 -0.0200  0.4480 -0.3297
  180SOPE   H7X20585   5.136   0.319   7.340 -0.5476  0.4818  0.5086
  180SOPE   H7Y20586   5.045   0.459   7.248  0.1113 -0.1184 -0.7014
  180SOPE   C3820587   5.073   0.476   7.461  0.2208 -0.3942  0.2790
  180SOPE   H8X20588   4.967   0.459   7.492  0.1984  0.9407  1.0101
  180SOPE   H8Y20589   5.087   0.586   7.466 -0.0583 -0.3853  1.0004
  180SOPE   C3920590   5.167   0.422   7.564  0.4839  0.6542 -1.0344
  180SOPE   H9X20591   5.274   0.436   7.536  1.6504 -3.9436  0.2551
  180SOPE   H9Y20592   5.155   0.312   7.560  0.5377  0.6497 -1.0742
  180SOPE  C31020593   5.159   0.457   7.716 -0.0460 -0.1950 -0.0652
  180SOPE  H10X20594   5.176   0.567   7.720  0.1504 -0.1247 -1.8218
  180SOPE  H10Y20595   5.244   0.414   7.774  1.0140  0.1597 -1.2999
  180SOPE  C31120596   5.031   0.437   7.784  0.1073  0.2217 -0.0274
  180SOPE  H11X20597   5.002   0.330   7.775 -1.8670  0.6889  0.4942
  180SOPE  H11Y20598   4.959   0.500   7.728  0.5651  1.3708  0.6431
  180SOPE  C31220599   5.023   0.470   7.933 -0.0057  0.2802  0.2956
  180SOPE  H12X20600   5.073   0.569   7.945 -0.7236  0.9646 -1.8544
  180SOPE  H12Y20601   5.085   0.398   7.990  0.0396  0.9482  1.1145
  180SOPE  C31320602   4.880   0.478   7.988  0.1441 -0.2934  0.4558
  180SOPE  H13X20603   4.830   0.382   7.961  1.5618 -0.2309 -2.8810
  180SOPE  H13Y20604   4.824   0.562   7.942 -0.0497  0.9596  2.8452
  180SOPE  C31420605   4.886   0.507   8.136 -0.1829  0.0423 -0.2165
  180SOPE  H14X20606   4.789   0.537   8.181  0.8913 -2.3875  4.3981
  180SOPE  H14Y20607   4.952   0.595   8.149  0.0257 -0.2714  1.0395
  180SOPE  C31520608   4.923   0.388   8.227 -0.4047 -0.6535 -0.5696
  180SOPE  H15X20609   5.021   0.350   8.191 -0.0299  2.2626 -3.0796
  180SOPE  H15Y20610   4.842   0.315   8.206 -0.6201  0.5755 -5.2515
  180SOPE  C31620611   4.916   0.428   8.375  0.4064  0.6530 -0.1094
  180SOPE  H16X20612   4.815   0.469   8.396  0.9690  1.3126  1.4673
  180SOPE  H16Y20613   4.993   0.506   8.394 -0.2807  1.0678  1.0936
  180SOPE  C31720614   4.928   0.307   8.470 -0.2241 -0.0081 -0.1470
  180SOPE  H17X20615   5.019   0.251   8.440 -0.9454 -0.9659 -0.5779
  180SOPE  H17Y20616   4.844   0.237   8.456 -1.5936  1.7552 -1.2015
  180SOPE  C31820617   4.933   0.356   8.618 -0.2792 -0.3159  0.0929
  180SOPE  H18X20618   5.002   0.443   8.617 -1.6122  0.7804  0.4102
  180SOPE  H18Y20619   4.975   0.282   8.689 -2.0331 -0.5011  0.9906
  180SOPE  H18Z20620   4.840   0.404   8.656 -0.6718 -0.4844 -0.6266
  181SOPE     N20621   5.207   4.977   5.954  0.1480  0.5348 -0.0835
  181SOPE   HN120622   5.311   4.984   5.954  0.1144  1.2827  0.8882
  181SOPE   HN220623   5.171   5.055   6.013 -0.3954 -0.9022  1.5678
  181SOPE   HN320624   5.184   4.887   6.001 -0.6366  0.3604 -0.7763
  181SOPE   C1220625   5.133   4.969   5.820 -0.0993  0.4168  0.0573
  181SOPE  H12A20626   5.181   4.884   5.767  0.3841  0.2001  0.8327
  181SOPE  H12B20627   5.143   5.071   5.777  0.5086 -0.7832 -2.8901
  181SOPE   C1120628   4.983   4.935   5.844 -0.1502 -0.0755  0.2660
  181SOPE  H11A20629   4.947   4.925   5.739  1.3072 -0.1284 -0.2580
  181SOPE  H11B20630   4.930   5.023   5.885  0.6785  0.5835 -0.0446
  181SOPE     P20631   4.828   4.769   5.970 -0.0301  0.5822  0.0849
  181SOPE   O1320632   4.850   4.658   6.074  0.2506  0.0834 -0.2054
  181SOPE   O1420633   4.750   4.722   5.850  0.4067 -1.0208  0.4917
  181SOPE   O1220634   4.970   4.820   5.921 -0.1724 -0.1972 -0.1817
  181SOPE   O1120635   4.759   4.898   6.033 -0.0066  0.0692  0.0376
  181SOPE    C120636   4.792   4.959   6.153 -0.1971  0.3831 -0.3116
  181SOPE    HA20637   4.781   5.069   6.139 -0.0176  0.4310 -0.0744
  181SOPE    HB20638   4.901   4.950   6.170 -0.0800  1.8097 -0.1636
  181SOPE    C220639   4.721   4.901   6.273  0.2918 -0.3382  0.0256
  181SOPE    HS20640   4.719   4.790   6.265  1.1373 -0.3096 -0.7977
  181SOPE   O2120641   4.590   4.966   6.299  0.5499 -0.0665  0.1699
  181SOPE   C2120642   4.513   4.884   6.364  0.1872 -0.1732 -0.2339
  181SOPE   O2220643   4.527   4.767   6.388 -0.5126 -0.0014  1.0156
  181SOPE   C2220644   4.387   4.952   6.406 -0.4361  0.0590 -0.1036
  181SOPE   H2R20645   4.304   4.905   6.350 -1.1682 -3.5615  3.5456
  181SOPE   H2S20646   4.391   5.059   6.374  0.1177  0.4399  1.1703
  181SOPE    C320647   4.812   4.924   6.398  0.1045  0.0731 -0.1748
  181SOPE    HX20648   4.781   5.025   6.435  0.0252 -0.8549  2.4796
  181SOPE    HY20649   4.918   4.944   6.373 -0.0276  0.3035 -0.5511
  181SOPE   O3120650   4.798   4.828   6.508  0.4304  0.3332 -0.0456
  181SOPE   C3120651   4.893   4.734   6.518  0.1633  0.5925 -0.5396
  181SOPE   O3220652   4.987   4.710   6.445  0.3782  0.3093 -0.9257
  181SOPE   C3220653   4.878   4.661   6.649  0.4753 -0.7389  0.3104
  181SOPE   H2X20654   4.854   4.735   6.729 -0.5081 -2.1860  1.4193
  181SOPE   H2Y20655   4.973   4.609   6.672  1.4317  0.3555 -1.0061
  181SOPE   C2320656   4.373   4.953   6.557  0.0580  0.9460 -0.2221
  181SOPE   H3R20657   4.473   4.968   6.605 -0.1670  0.5904  0.3702
  181SOPE   H3S20658   4.338   4.856   6.598 -0.6949  1.5332  0.5735
  181SOPE   C2420659   4.275   5.056   6.617  0.5590 -0.6014  0.4817
  181SOPE   H4R20660   4.300   5.162   6.594 -0.7351 -0.0883  1.2920
  181SOPE   H4S20661   4.177   5.056   6.564  1.6845  2.0325 -1.8481
  181SOPE   C2520662   4.268   5.046   6.773  0.4414  0.1594  0.2380
  181SOPE   H5R20663   4.241   4.943   6.804 -0.6247 -0.5461 -2.7128
  181SOPE   H5S20664   4.362   5.077   6.823 -0.1959  1.8825  0.4565
  181SOPE   C2620665   4.161   5.139   6.834 -0.8746  0.8675 -0.1331
  181SOPE   H6R20666   4.193   5.245   6.829 -2.3736  1.2892 -3.8119
  181SOPE   H6S20667   4.064   5.128   6.780 -1.0114 -1.4277  0.4907
  181SOPE   C2720668   4.122   5.092   6.971  0.8474 -1.0552 -0.4922
  181SOPE   H7R20669   4.029   5.144   7.002  0.8271 -1.2906 -0.1511
  181SOPE   H7S20670   4.102   4.983   6.973 -0.9678 -0.7572  0.7870
  181SOPE   C2820671   4.227   5.115   7.089 -0.0190  0.5755  1.1925
  181SOPE   H8R20672   4.313   5.048   7.064 -0.8516  0.0109 -0.3216
  181SOPE   H8S20673   4.261   5.219   7.073  1.7233 -0.4304 -2.9881
  181SOPE   C2920674   4.165   5.085   7.224  0.1229  0.5271 -0.0853
  181SOPE   H9120675   4.085   5.156   7.251  0.7944  1.7527 -1.1895
  181SOPE  C21020676   4.209   4.995   7.313 -1.3847 -0.0663 -0.2296
  181SOPE  H10120677   4.169   4.993   7.415  1.6502  1.8045  1.1427
  181SOPE  C21120678   4.331   4.906   7.295  0.5001 -0.3840  0.5959
  181SOPE  H11R20679   4.402   4.977   7.246 -0.2926  0.7055  0.9796
  181SOPE  H11S20680   4.305   4.819   7.233  1.5789 -1.3156  1.3999
  181SOPE  C21220681   4.392   4.846   7.419 -0.1345 -0.6337 -0.0993
  181SOPE  H12R20682   4.319   4.772   7.457  0.4964 -1.5327 -0.5943
  181SOPE  H12S20683   4.407   4.919   7.502  1.4278 -2.7449  1.6008
  181SOPE  C21320684   4.532   4.780   7.390  0.4450 -0.3422  0.1733
  181SOPE  H13R20685   4.610   4.849   7.351  1.9481 -2.1960 -0.2473
  181SOPE  H13S20686   4.506   4.693   7.327 -0.2814 -0.0414  0.0405
  181SOPE  C21420687   4.579   4.716   7.514 -0.3989  0.0561 -0.4394
  181SOPE  H14R20688   4.657   4.641   7.486 -0.5382  0.9409 -3.4432
  181SOPE  H14S20689   4.487   4.674   7.560 -1.5221  1.2405 -1.5472
  181SOPE  C21520690   4.645   4.813   7.612  0.3712  0.2023  0.2405
  181SOPE  H15R20691   4.561   4.877   7.645  1.8637  3.3357 -1.5464
  181SOPE  H15S20692   4.718   4.871   7.552 -0.9927  0.6807 -1.0002
  181SOPE  C21620693   4.716   4.749   7.738 -0.2088 -0.0784  0.8107
  181SOPE  H16R20694   4.760   4.833   7.796 -1.8186  1.6091 -0.2892
  181SOPE  H16S20695   4.793   4.674   7.710 -0.8169 -0.3267 -0.2493
  181SOPE  C21720696   4.611   4.671   7.818  0.2781  1.2985  0.9825
  181SOPE  H17R20697   4.608   4.571   7.771 -3.0796  1.1825  1.2199
  181SOPE  H17S20698   4.514   4.717   7.789 -0.1042 -0.8269 -1.4117
  181SOPE  C21820699   4.644   4.679   7.963  0.6641  0.3181 -0.4284
  181SOPE  H18R20700   4.754   4.687   7.971  0.6163  0.4372  0.2111
  181SOPE  H18S20701   4.604   4.591   8.018  2.3739 -0.5721 -0.5341
  181SOPE  H18T20702   4.616   4.776   8.010  1.5577 -0.2793  1.4406
  181SOPE   C3320703   4.759   4.562   6.633  0.3976 -0.0373 -0.4858
  181SOPE   H3X20704   4.773   4.493   6.548  0.4736 -0.1299 -0.3983
  181SOPE   H3Y20705   4.662   4.617   6.622  0.8979  0.7022 -1.3380
  181SOPE   C3420706   4.741   4.474   6.761  0.0504  0.7945 -0.9628
  181SOPE   H4X20707   4.834   4.416   6.781 -0.8684 -0.1658  0.6304
  181SOPE   H4Y20708   4.658   4.403   6.744 -0.3124  0.8848  0.3354
  181SOPE   C3520709   4.694   4.548   6.886  0.1026  0.5356 -0.8495
  181SOPE   H5X20710   4.600   4.604   6.866 -0.4222 -0.5514 -1.5205
  181SOPE   H5Y20711   4.776   4.619   6.910  0.7504  0.0284 -1.5109
  181SOPE   C3620712   4.673   4.454   7.005  0.0155 -0.0049  0.1226
  181SOPE   H6X20713   4.645   4.517   7.092  0.5586  1.0916 -0.4600
  181SOPE   H6Y20714   4.774   4.410   7.020 -0.5254 -1.5181 -0.4856
  181SOPE   C3720715   4.559   4.348   6.979 -0.3091  0.3421  0.6729
  181SOPE   H7X20716   4.570   4.297   6.881  1.3304  0.0672  0.9662
  181SOPE   H7Y20717   4.459   4.394   6.971 -1.1682 -1.3570  1.0742
  181SOPE   C3820718   4.565   4.227   7.078 -0.5405  0.0403 -0.5918
  181SOPE   H8X20719   4.669   4.202   7.109 -0.2469 -0.5130 -1.9442
  181SOPE   H8Y20720   4.510   4.138   7.039  0.3684 -0.6745 -0.3016
  181SOPE   C3920721   4.486   4.270   7.203  0.3579 -0.5597  0.0711
  181SOPE   H9X20722   4.380   4.287   7.175  0.2232 -1.0403  0.2792
  181SOPE   H9Y20723   4.513   4.375   7.228  2.8133 -0.1113 -3.7229
  181SOPE  C31020724   4.491   4.182   7.325  0.7736  1.2373 -0.5719
  181SOPE  H10X20725   4.598   4.165   7.348  0.4302  0.2715  0.3706
  181SOPE  H10Y20726   4.442   4.086   7.298  3.2471 -0.7543  1.5033
  181SOPE  C31120727   4.413   4.245   7.442  0.1324  0.1356 -0.6042
  181SOPE  H11X20728   4.416   4.157   7.510 -3.1374  1.6482  1.7565
  181SOPE  H11Y20729   4.307   4.262   7.416 -0.7594 -1.7574  1.4480
  181SOPE  C31220730   4.477   4.370   7.510  0.0735  0.3712  0.3974
  181SOPE  H12X20731   4.488   4.456   7.442 -1.9835  1.2800  1.1310
  181SOPE  H12Y20732   4.580   4.353   7.547 -0.3936 -0.0394  1.5739
  181SOPE  C31320733   4.386   4.404   7.632  0.8587 -0.0176 -0.1342
  181SOPE  H13X20734   4.280   4.394   7.603  0.2281 -2.9943  2.6950
  181SOPE  H13Y20735   4.410   4.508   7.664 -1.4480  0.2486  0.8719
  181SOPE  C31420736   4.408   4.303   7.745 -0.5695 -0.3213 -0.0796
  181SOPE  H14X20737   4.518   4.295   7.763 -0.6028  0.1016  0.3380
  181SOPE  H14Y20738   4.365   4.207   7.712  0.9639 -1.8665  2.1194
  181SOPE  C31520739   4.334   4.333   7.874  0.3711 -0.3012  0.0399
  181SOPE  H15X20740   4.228   4.355   7.846 -0.1153 -0.7331  1.4529
  181SOPE  H15Y20741   4.358   4.429   7.925  0.4334  1.3840 -2.9279
  181SOPE  C31620742   4.346   4.222   7.979  0.6992 -0.1005  0.7281
  181SOPE  H16X20743   4.446   4.239   8.026  0.9721  0.4868 -0.0435
  181SOPE  H16Y20744   4.352   4.125   7.926 -2.2458  0.2282 -0.3606
  181SOPE  C31720745   4.226   4.209   8.070  0.4416  0.2769 -0.2270
  181SOPE  H17X20746   4.139   4.174   8.011  1.6819 -2.7215 -0.4264
  181SOPE  H17Y20747   4.211   4.311   8.112 -0.3648  0.5634 -1.1725
  181SOPE  C31820748   4.245   4.110   8.184 -0.1165  0.4237 -0.1413
  181SOPE  H18X20749   4.289   4.165   8.270  0.4481 -1.6878  0.9808
  181SOPE  H18Y20750   4.309   4.025   8.150 -0.2562  0.9638 -1.8497
  181SOPE  H18Z20751   4.157   4.057   8.226  1.7445  0.3253  4.1868
  182SOPE     N20752   4.592   5.425   6.176  0.1298  0.3658  0.4022
  182SOPE   HN120753   4.543   5.425   6.084  0.8115 -2.3519 -0.0480
  182SOPE   HN220754   4.570   5.518   6.218 -1.9211 -0.5655  1.5478
  182SOPE   HN320755   4.694   5.411   6.168 -0.1471 -1.0010 -1.2142
  182SOPE   C1220756   4.547   5.316   6.270  0.9737 -0.0869  0.3854
  182SOPE  H12A20757   4.566   5.213   6.232  0.6159 -0.3606  0.9398
  182SOPE  H12B20758   4.438   5.331   6.281  1.1786  2.1105 -0.0819
  182SOPE   C1120759   4.617   5.324   6.400  0.3211 -0.1190 -0.5324
  182SOPE  H11A20760   4.552   5.263   6.466  0.1023  1.1163  0.4264
  182SOPE  H11B20761   4.607   5.423   6.450  0.9673 -0.1848 -0.2657
  182SOPE     P20762   4.876   5.328   6.344  0.5244  0.4527 -0.3687
  182SOPE   O1320763   4.848   5.389   6.213 -0.3798  0.1667 -0.4007
  182SOPE   O1420764   4.974   5.218   6.342  0.1423  0.0562 -0.8452
  182SOPE   O1220765   4.743   5.261   6.398  0.3708  0.1013  0.1002
  182SOPE   O1120766   4.914   5.443   6.443 -0.4970 -0.1050 -0.5118
  182SOPE    C120767   4.966   5.405   6.569 -0.0920  0.1699  0.2502
  182SOPE    HA20768   5.056   5.469   6.576 -1.8329  2.9670 -0.9880
  182SOPE    HB20769   4.988   5.298   6.587 -1.2741  0.0666  1.2274
  182SOPE    C220770   4.863   5.438   6.682  0.5402 -0.0614  0.8247
  182SOPE    HS20771   4.929   5.436   6.772  4.4433  0.8798 -1.7535
  182SOPE   O2120772   4.751   5.350   6.688 -0.3105 -0.0468 -0.1145
  182SOPE   C2120773   4.779   5.239   6.766 -0.3284 -0.4145  0.8042
  182SOPE   O2220774   4.873   5.227   6.839 -0.0705  0.4370  0.1609
  182SOPE   C2220775   4.666   5.134   6.750  0.6234 -0.0860 -0.4347
  182SOPE   H2R20776   4.669   5.106   6.642 -1.0598  1.5535 -0.9581
  182SOPE   H2S20777   4.567   5.184   6.757  0.6721 -0.1999  2.2594
  182SOPE    C320778   4.807   5.587   6.661 -1.0829  0.8219 -0.3311
  182SOPE    HX20779   4.735   5.589   6.577 -1.5683 -1.6412 -0.0286
  182SOPE    HY20780   4.897   5.644   6.628  0.9394 -1.4299  1.0135
  182SOPE   O3120781   4.748   5.634   6.781  0.4758 -0.0462  0.4107
  182SOPE   C3120782   4.770   5.763   6.821 -0.5118  0.3956 -0.3493
  182SOPE   O3220783   4.840   5.839   6.754 -0.3838  0.1216  0.0104
  182SOPE   C3220784   4.705   5.797   6.952  0.7419  0.0045 -0.7166
  182SOPE   H2X20785   4.689   5.707   7.015  0.9702 -0.0778 -0.7760
  182SOPE   H2Y20786   4.610   5.849   6.926  0.1698 -1.1621 -1.0106
  182SOPE   C2320787   4.680   5.007   6.845  0.1504 -0.1388  0.9630
  182SOPE   H3R20788   4.787   4.984   6.828 -0.1067 -1.2890  0.8642
  182SOPE   H3S20789   4.621   4.920   6.810  2.5790 -1.0902 -1.1323
  182SOPE   C2420790   4.640   5.052   6.988  0.0925 -0.6315 -0.4761
  182SOPE   H4R20791   4.732   5.106   7.021 -0.1101 -0.3788 -0.3192
  182SOPE   H4S20792   4.548   5.115   6.991 -0.3575 -1.3197  0.5829
  182SOPE   C2520793   4.635   4.939   7.088 -0.0079  0.1425  0.5629
  182SOPE   H5R20794   4.615   4.984   7.187  1.7240 -0.8973  1.4318
  182SOPE   H5S20795   4.560   4.864   7.055  1.5623 -2.3570  2.3728
  182SOPE   C2620796   4.761   4.848   7.086  0.2870 -0.2956 -0.0521
  182SOPE   H6R20797   4.750   4.756   7.147  0.3253 -1.2139 -1.3984
  182SOPE   H6S20798   4.774   4.799   6.987  3.4816 -0.1204  0.1752
  182SOPE   C2720799   4.898   4.915   7.112 -0.2725 -0.2105  0.2761
  182SOPE   H7R20800   4.952   4.818   7.111 -0.3305 -0.2446 -0.3146
  182SOPE   H7S20801   4.938   4.979   7.030 -1.9244  0.3106 -0.1695
  182SOPE   C2820802   4.918   4.975   7.258  1.0229  0.3519  0.1961
  182SOPE   H8R20803   4.825   5.030   7.284 -0.0206  0.0507 -2.5765
  182SOPE   H8S20804   4.913   4.886   7.326 -1.0902  0.3816  0.1480
  182SOPE   C2920805   5.044   5.051   7.278  0.3048  0.2478  0.4562
  182SOPE   H9120806   5.043   5.144   7.219  3.0194 -0.0064 -0.1059
  182SOPE  C21020807   5.150   5.026   7.361 -0.1800 -0.3507 -1.1321
  182SOPE  H10120808   5.235   5.096   7.370 -0.7308  0.3260 -1.1303
  182SOPE  C21120809   5.169   4.911   7.457 -0.4445 -0.7008  0.1874
  182SOPE  H11R20810   5.264   4.856   7.440 -0.2578 -0.1284 -0.6742
  182SOPE  H11S20811   5.080   4.844   7.448 -0.4635 -0.3744 -4.0542
  182SOPE  C21220812   5.172   4.971   7.597 -0.0203 -0.5920  0.2318
  182SOPE  H12R20813   5.094   5.049   7.611 -1.1822 -1.5028 -0.9442
  182SOPE  H12S20814   5.273   5.014   7.614 -0.7228  0.6780  1.4251
  182SOPE  C21320815   5.155   4.861   7.705  0.3073 -0.0200  0.4616
  182SOPE  H13R20816   5.233   4.783   7.687 -0.1614 -0.5854  0.8400
  182SOPE  H13S20817   5.050   4.824   7.705 -0.3898  1.8372  1.0545
  182SOPE  C21420818   5.172   4.919   7.842  0.8794  0.1230 -0.2991
  182SOPE  H14R20819   5.112   5.011   7.859 -0.2190 -0.6152 -0.1160
  182SOPE  H14S20820   5.279   4.948   7.845  1.5259 -1.1650 -4.5992
  182SOPE  C21520821   5.133   4.820   7.953 -0.3352 -0.5108  0.4322
  182SOPE  H15R20822   5.206   4.737   7.959 -0.5925 -0.8096 -0.5257
  182SOPE  H15S20823   5.035   4.775   7.928  0.4393 -2.0183  0.0292
  182SOPE  C21620824   5.120   4.885   8.087 -0.0438 -0.1541  0.1504
  182SOPE  H16R20825   5.049   4.970   8.077 -0.6655 -0.6895 -0.0436
  182SOPE  H16S20826   5.224   4.924   8.092 -1.0071  2.8153 -0.7034
  182SOPE  C21720827   5.069   4.788   8.203 -0.7776 -0.2286  0.2745
  182SOPE  H17R20828   4.958   4.784   8.208 -0.8624 -0.9063 -1.5095
  182SOPE  H17S20829   5.075   4.839   8.302  1.0982 -1.0369  0.6264
  182SOPE  C21820830   5.127   4.647   8.206 -0.8041 -1.2561 -0.1280
  182SOPE  H18R20831   5.084   4.592   8.292 -1.5152  0.1057  0.4213
  182SOPE  H18S20832   5.235   4.672   8.203 -1.2561  0.9606  0.4239
  182SOPE  H18T20833   5.108   4.591   8.112 -1.9821 -1.6352  0.3240
  182SOPE   C3320834   4.808   5.889   7.038 -0.5414  0.1375  0.0859
  182SOPE   H3X20835   4.824   5.982   6.980 -1.8061  0.0293 -0.4700
  182SOPE   H3Y20836   4.901   5.830   7.053  0.3586  0.9740 -1.8381
  182SOPE   C3420837   4.751   5.928   7.175  0.0881  0.9528 -0.5055
  182SOPE   H4X20838   4.659   5.986   7.152  1.2471  2.3318 -1.8368
  182SOPE   H4Y20839   4.817   5.992   7.236  0.2853 -0.4996  0.8621
  182SOPE   C3520840   4.721   5.802   7.259 -0.2438 -0.3511  0.3452
  182SOPE   H5X20841   4.815   5.742   7.258  0.8159  1.2376 -1.2628
  182SOPE   H5Y20842   4.634   5.738   7.231 -1.1756  1.7550 -1.9076
  182SOPE   C3620843   4.696   5.838   7.408 -0.6743 -0.0472  0.0179
  182SOPE   H6X20844   4.609   5.775   7.439 -0.0070 -2.1172 -2.0373
  182SOPE   H6Y20845   4.664   5.944   7.414  0.5240  0.3037  0.3506
  182SOPE   C3720846   4.809   5.805   7.508 -0.1490 -0.6570 -0.1171
  182SOPE   H7X20847   4.899   5.850   7.462 -1.1628  0.2172 -1.3012
  182SOPE   H7Y20848   4.837   5.698   7.507  0.6326 -0.5161  1.9020
  182SOPE   C3820849   4.793   5.859   7.647  0.4886 -0.0831  0.2399
  182SOPE   H8X20850   4.766   5.966   7.634 -0.7343 -0.5709 -1.7256
  182SOPE   H8Y20851   4.885   5.850   7.708  0.0092  1.5163  1.2815
  182SOPE   C3920852   4.688   5.778   7.717  0.5605  0.3665  0.2996
  182SOPE   H9X20853   4.719   5.672   7.731 -0.1780  0.0546 -0.3386
  182SOPE   H9Y20854   4.603   5.770   7.646 -1.1882  0.9111  2.2123
  182SOPE  C31020855   4.634   5.838   7.850 -1.5428  0.5597 -1.4073
  182SOPE  H10X20856   4.535   5.794   7.872 -1.2856  0.6611  0.0341
  182SOPE  H10Y20857   4.624   5.947   7.831 -2.1524  1.0967  1.5817
  182SOPE  C31120858   4.735   5.817   7.970  0.7862 -0.0529 -0.2367
  182SOPE  H11X20859   4.818   5.888   7.949  0.9104 -0.1862 -0.1996
  182SOPE  H11Y20860   4.763   5.709   7.977  0.2898 -0.1050  1.3316
  182SOPE  C31220861   4.668   5.850   8.110 -0.3721  0.1403 -0.2398
  182SOPE  H12X20862   4.570   5.797   8.108 -0.6561  0.5109  1.5847
  182SOPE  H12Y20863   4.657   5.960   8.126 -2.6013 -0.0688 -0.0783
  182SOPE  C31320864   4.748   5.783   8.221  0.1783  0.6867  0.2744
  182SOPE  H13X20865   4.745   5.672   8.214  0.9559  0.7155 -0.6294
  182SOPE  H13Y20866   4.698   5.806   8.318 -1.9225  1.2838 -0.8974
  182SOPE  C31420867   4.902   5.801   8.210 -0.2022 -0.6341 -0.1651
  182SOPE  H14X20868   4.921   5.910   8.215  1.2128 -0.8771  0.1177
  182SOPE  H14Y20869   4.944   5.761   8.115  0.9602 -0.6956  0.3627
  182SOPE  C31520870   4.967   5.727   8.320 -0.1480 -0.3948 -0.5710
  182SOPE  H15X20871   4.943   5.619   8.313 -0.4371 -0.2818 -1.4688
  182SOPE  H15Y20872   4.939   5.766   8.420  4.4049 -0.0111  0.7891
  182SOPE  C31620873   5.126   5.753   8.308  0.0374  0.1429 -0.2828
  182SOPE  H16X20874   5.164   5.840   8.366 -0.9136  0.9454 -0.8542
  182SOPE  H16Y20875   5.146   5.771   8.201  0.3655  1.5040 -0.0116
  182SOPE  C31720876   5.192   5.622   8.357 -0.6034  0.9468 -0.7271
  182SOPE  H17X20877   5.158   5.538   8.293  1.5245  0.1035 -0.8330
  182SOPE  H17Y20878   5.146   5.598   8.455 -1.3963 -0.0402 -1.3224
  182SOPE  C31820879   5.345   5.632   8.380  0.3645 -0.1342  0.0018
  182SOPE  H18X20880   5.377   5.539   8.432  1.4301  0.5252  0.5592
  182SOPE  H18Y20881   5.362   5.721   8.444  0.4029 -0.3245  0.2574
  182SOPE  H18Z20882   5.386   5.655   8.279  0.1656 -0.0812 -0.0656
  183SOPE     N20883   0.644   3.956   6.216 -0.2352 -0.0862  0.3883
  183SOPE   HN120884   0.616   3.873   6.272  1.7331  0.0101  1.5957
  183SOPE   HN220885   0.562   3.992   6.163  0.4244 -0.6789 -1.0994
  183SOPE   HN320886   0.702   3.904   6.146 -0.9186 -2.8336  1.7233
  183SOPE   C1220887   0.716   4.059   6.299  0.3697  0.2672 -0.2578
  183SOPE  H12A20888   0.738   4.143   6.228 -0.8541 -0.1192 -1.1251
  183SOPE  H12B20889   0.810   4.009   6.328  0.3294  0.3337 -0.0067
  183SOPE   C1120890   0.647   4.116   6.421  1.3202 -0.1512 -0.3786
  183SOPE  H11A20891   0.706   4.196   6.471 -1.6171  1.9760 -0.0331
  183SOPE  H11B20892   0.638   4.037   6.499  3.3691  0.4898  0.5692
  183SOPE     P20893   0.488   4.308   6.345 -0.0435 -0.1359 -0.0864
  183SOPE   O1320894   0.340   4.323   6.330 -0.2876 -0.0132  0.1404
  183SOPE   O1420895   0.563   4.345   6.223 -0.4335  0.3122  0.3427
  183SOPE   O1220896   0.517   4.158   6.385  0.0175  0.0435 -0.6048
  183SOPE   O1120897   0.550   4.395   6.458 -0.2146  0.0460  0.2069
  183SOPE    C120898   0.497   4.376   6.589 -0.0256 -0.0100 -0.1960
  183SOPE    HA20899   0.546   4.287   6.634  3.2464  0.9927 -1.4947
  183SOPE    HB20900   0.387   4.363   6.591  0.0921 -0.9773  0.9351
  183SOPE    C220901   0.532   4.495   6.677  0.5143 -0.2977 -0.8143
  183SOPE    HS20902   0.534   4.589   6.619 -1.5766  0.9367  0.9280
  183SOPE   O2120903   0.652   4.470   6.753  0.3667 -0.5595  0.0922
  183SOPE   C2120904   0.720   4.583   6.800  0.2140  0.4596 -0.4409
  183SOPE   O2220905   0.684   4.696   6.779 -0.3585  0.3000  0.0616
  183SOPE   C2220906   0.831   4.544   6.890 -0.2661 -0.2931 -0.8272
  183SOPE   H2R20907   0.885   4.458   6.845  0.4097 -0.8461  0.9571
  183SOPE   H2S20908   0.768   4.501   6.971 -0.9176 -2.2561 -2.2782
  183SOPE    C320909   0.425   4.515   6.790  0.3978 -0.6840 -0.0466
  183SOPE    HX20910   0.337   4.561   6.740  1.1937  0.3583 -0.5139
  183SOPE    HY20911   0.462   4.600   6.852 -0.9564  0.5576 -0.8758
  183SOPE   O3120912   0.392   4.404   6.881 -0.2137 -0.0711  0.7302
  183SOPE   C3120913   0.283   4.339   6.849 -0.2877 -0.9375  0.3315
  183SOPE   O3220914   0.200   4.375   6.768  0.1452  0.0044 -0.2299
  183SOPE   C3220915   0.299   4.200   6.925 -0.0911  0.3537 -0.2336
  183SOPE   H2X20916   0.354   4.133   6.855 -0.8200 -0.1286 -0.3506
  183SOPE   H2Y20917   0.197   4.157   6.930 -0.6111  1.4155 -1.1590
  183SOPE   C2320918   0.924   4.655   6.940  0.0792  0.4338  0.5356
  183SOPE   H3R20919   0.859   4.735   6.981 -0.8437  0.0778 -0.1929
  183SOPE   H3S20920   0.971   4.693   6.847  0.1922  0.1622  0.4800
  183SOPE   C2420921   1.022   4.625   7.050 -0.4391 -0.1648  0.5762
  183SOPE   H4R20922   1.080   4.533   7.027 -1.0372 -0.6126  0.7989
  183SOPE   H4S20923   1.092   4.707   7.073  2.6572 -1.5974 -2.8309
  183SOPE   C2520924   0.956   4.605   7.188  0.4895 -0.6553  0.6546
  183SOPE   H5R20925   0.881   4.682   7.216 -0.7985 -1.5872 -0.1279
  183SOPE   H5S20926   0.891   4.515   7.176  0.5793 -0.5206 -1.0645
  183SOPE   C2620927   1.051   4.576   7.301 -0.0102  0.1510 -0.2599
  183SOPE   H6R20928   1.097   4.676   7.317 -0.4798  0.5370 -1.2605
  183SOPE   H6S20929   1.008   4.533   7.394  1.7952 -0.3540  0.3758
  183SOPE   C2720930   1.162   4.471   7.278  0.4558 -0.9576  0.1312
  183SOPE   H7R20931   1.110   4.380   7.242 -1.7970 -0.1457  1.1452
  183SOPE   H7S20932   1.223   4.508   7.193  1.5927 -0.9959  0.9067
  183SOPE   C2820933   1.242   4.435   7.398 -0.2698  0.6016  1.2266
  183SOPE   H8R20934   1.175   4.385   7.472  0.0840 -1.6828  0.0876
  183SOPE   H8S20935   1.305   4.349   7.368 -1.4148 -0.2001  1.0475
  183SOPE   C2920936   1.338   4.545   7.439  0.7798 -0.0280  0.4143
  183SOPE   H9120937   1.383   4.586   7.347 -2.6436  0.4762 -1.2021
  183SOPE  C21020938   1.359   4.590   7.564  0.0900  0.1058 -0.9535
  183SOPE  H10120939   1.426   4.676   7.578 -0.1336  0.2471 -0.7498
  183SOPE  C21120940   1.297   4.534   7.691 -0.3275  0.5768 -0.0525
  183SOPE  H11R20941   1.376   4.518   7.767 -0.4144  0.6917  0.0632
  183SOPE  H11S20942   1.239   4.439   7.686  0.3811  0.1258  0.1131
  183SOPE  C21220943   1.195   4.636   7.743 -0.0385  0.0206 -0.4819
  183SOPE  H12R20944   1.109   4.642   7.672 -0.0603 -1.2195 -0.5788
  183SOPE  H12S20945   1.230   4.740   7.757 -1.9851  0.6087  0.3665
  183SOPE  C21320946   1.132   4.605   7.879  0.5695  0.6755 -0.0208
  183SOPE  H13R20947   1.085   4.505   7.892 -2.4291  2.0227  0.1465
  183SOPE  H13S20948   1.048   4.677   7.886  1.4034  1.5425  1.6635
  183SOPE  C21420949   1.217   4.629   8.006 -0.0768 -1.0809 -0.4269
  183SOPE  H14R20950   1.256   4.733   8.003 -0.1553 -1.0498 -0.3821
  183SOPE  H14S20951   1.296   4.551   8.002 -2.5544 -3.7511 -2.3754
  183SOPE  C21520952   1.132   4.619   8.133 -0.2568  0.3281  0.0300
  183SOPE  H15R20953   1.057   4.539   8.114 -0.5811  0.8998 -1.2159
  183SOPE  H15S20954   1.089   4.718   8.159  0.4976  0.8342 -0.6247
  183SOPE  C21620955   1.237   4.591   8.243  0.1466  0.0029 -0.5620
  183SOPE  H16R20956   1.297   4.681   8.265 -0.6703  0.3206  0.4646
  183SOPE  H16S20957   1.302   4.511   8.201 -1.2063 -1.3208 -0.2222
  183SOPE  C21720958   1.175   4.545   8.376 -0.3279  0.7459  0.0170
  183SOPE  H17R20959   1.108   4.459   8.355  1.3291 -0.5175 -0.3045
  183SOPE  H17S20960   1.107   4.627   8.410  1.3911  2.5358 -0.6542
  183SOPE  C21820961   1.271   4.476   8.476 -1.2295  0.1380 -0.2007
  183SOPE  H18R20962   1.364   4.534   8.494 -0.5234 -1.6095  2.2283
  183SOPE  H18S20963   1.310   4.381   8.431 -2.4796 -0.3741 -0.2471
  183SOPE  H18T20964   1.222   4.460   8.574  1.0486 -0.4205  0.9247
  183SOPE   C3320965   0.370   4.203   7.061 -0.9587  0.1750  0.1459
  183SOPE   H3X20966   0.467   4.258   7.059 -0.6616 -0.1235  2.8995
  183SOPE   H3Y20967   0.409   4.103   7.089  1.1526  0.9858  0.2989
  183SOPE   C3420968   0.278   4.235   7.179  0.2471  0.0177  1.0830
  183SOPE   H4X20969   0.195   4.162   7.183  1.6079 -1.7121 -0.4938
  183SOPE   H4Y20970   0.235   4.338   7.177 -0.6939 -0.3733 -0.3773
  183SOPE   C3520971   0.352   4.228   7.319  0.8026  0.3794 -0.1907
  183SOPE   H5X20972   0.454   4.274   7.323  0.8192  0.2558  2.3975
  183SOPE   H5Y20973   0.373   4.124   7.351  0.6336  0.8456  1.5133
  183SOPE   C3620974   0.279   4.287   7.437 -0.2010  0.1917 -0.2610
  183SOPE   H6X20975   0.180   4.237   7.441 -0.0478 -0.1403 -0.5915
  183SOPE   H6Y20976   0.274   4.398   7.435 -0.4700  0.1653 -1.8779
  183SOPE   C3720977   0.356   4.249   7.564  0.4520 -1.1417 -0.5884
  183SOPE   H7X20978   0.454   4.302   7.566  1.3437 -2.5313 -2.8143
  183SOPE   H7Y20979   0.394   4.144   7.565  1.2629 -0.8799  1.4815
  183SOPE   C3820980   0.274   4.282   7.687  0.6956  0.2237 -0.5977
  183SOPE   H8X20981   0.179   4.225   7.687  0.8930 -0.1059 -0.9253
  183SOPE   H8Y20982   0.246   4.390   7.690  2.0824  0.5927  1.2541
  183SOPE   C3920983   0.337   4.250   7.824 -0.8912 -0.3054 -0.2720
  183SOPE   H9X20984   0.440   4.291   7.828 -0.5880 -1.0564 -0.2013
  183SOPE   H9Y20985   0.364   4.142   7.830  0.7837 -0.0575 -2.1045
  183SOPE  C31020986   0.262   4.303   7.948  0.5300  0.2332  0.3215
  183SOPE  H10X20987   0.154   4.279   7.931  0.9015 -1.3730  0.0426
  183SOPE  H10Y20988   0.272   4.412   7.961  0.8896  0.1635  0.6425
  183SOPE  C31120989   0.315   4.251   8.076  0.1260  0.4012 -0.5997
  183SOPE  H11X20990   0.423   4.232   8.056  0.3066  1.6853 -0.9363
  183SOPE  H11Y20991   0.282   4.148   8.101 -0.0717  0.5866 -0.0881
  183SOPE  C31220992   0.292   4.356   8.192  0.7560  0.3021  0.9670
  183SOPE  H12X20993   0.329   4.460   8.173  0.4095  0.4718  1.2159
  183SOPE  H12Y20994   0.361   4.332   8.276  1.0764  1.2902  1.0057
  183SOPE  C31320995   0.138   4.355   8.235 -0.5396  0.3648 -0.8555
  183SOPE  H13X20996   0.145   4.281   8.317  1.4057 -1.3427 -2.4395
  183SOPE  H13Y20997   0.072   4.322   8.151 -1.7463  1.5691 -0.4038
  183SOPE  C31420998   0.086   4.489   8.291  0.2525 -0.5822  0.6316
  183SOPE  H14X20999   0.161   4.522   8.366 -0.4665 -0.0036  1.1034
  183SOPE  H14Y21000   0.004   4.459   8.359  0.2604  0.7454  1.2623
  183SOPE  C31521001   0.037   4.599   8.198  0.4643  0.0294 -0.8549
  183SOPE  H15X21002  -0.048   4.549   8.147 -2.8262  2.2592  1.9614
  183SOPE  H15Y21003   0.112   4.622   8.120  0.5335  2.5277 -0.1260
  183SOPE  C31621004  -0.021   4.720   8.265  0.0990  0.0321 -0.4285
  183SOPE  H16X21005   0.052   4.798   8.297 -1.5235  1.4087  0.1136
  183SOPE  H16Y21006  -0.084   4.703   8.355  0.2974  1.4512  0.0110
  183SOPE  C31721007  -0.132   4.789   8.171  0.2757  0.7066 -0.3485
  183SOPE  H17X21008  -0.214   4.718   8.145 -0.3640  0.6907  1.5484
  183SOPE  H17Y21009  -0.075   4.828   8.084  1.3567 -0.2371 -0.0919
  183SOPE  C31821010  -0.205   4.898   8.250  0.2334  0.0453  0.0525
  183SOPE  H18X21011  -0.242   4.974   8.178  1.5871  1.5797  0.8914
  183SOPE  H18Y21012  -0.134   4.952   8.317  2.1965 -0.6963 -1.3106
  183SOPE  H18Z21013  -0.288   4.853   8.309 -1.2031  2.0595 -0.3302
  184SOPE     N21014   0.159   4.795   6.226  0.6834 -0.4630 -0.4233
  184SOPE   HN121015   0.084   4.795   6.154 -1.4803 -1.0536  1.6844
  184SOPE   HN221016   0.257   4.787   6.193  2.6679  0.6934  4.2990
  184SOPE   HN321017   0.142   4.717   6.293 -0.3611 -0.2850 -0.4536
  184SOPE   C1221018   0.141   4.923   6.297  0.7121 -0.0634  0.4635
  184SOPE  H12A21019   0.048   4.930   6.358  0.2912  1.7679 -0.3195
  184SOPE  H12B21020   0.133   5.003   6.221 -1.4937  1.3262  2.0423
  184SOPE   C1121021   0.260   4.947   6.387  1.0620 -0.6868  0.0850
  184SOPE  H11A21022   0.257   4.864   6.462  0.9384 -0.6074  0.1663
  184SOPE  H11B21023   0.257   5.046   6.437 -1.5405 -0.6650 -0.0131
  184SOPE     P21024   0.455   5.055   6.238 -0.0017  0.2921 -0.5737
  184SOPE   O1321025   0.371   5.100   6.127 -0.6081 -0.5088 -0.2689
  184SOPE   O1421026   0.589   5.017   6.205  0.0053  0.0055  0.1142
  184SOPE   O1221027   0.380   4.930   6.317 -0.4441  0.0846  0.8732
  184SOPE   O1121028   0.458   5.172   6.344 -0.1728  0.0338 -0.5690
  184SOPE    C121029   0.562   5.219   6.425 -0.2748 -0.6344 -0.5956
  184SOPE    HA21030   0.564   5.330   6.416 -1.2184 -0.4780  0.7945
  184SOPE    HB21031   0.659   5.179   6.389 -0.8645 -0.4014 -2.5651
  184SOPE    C221032   0.542   5.179   6.575 -0.6427  0.2787 -0.3448
  184SOPE    HS21033   0.515   5.072   6.579 -0.6296  0.3144  1.1947
  184SOPE   O2121034   0.442   5.262   6.630 -0.1311 -0.2189  0.3867
  184SOPE   C2121035   0.329   5.200   6.663  0.4100  0.0352  0.2556
  184SOPE   O2221036   0.316   5.079   6.658  0.2520 -0.0061  0.1417
  184SOPE   C2221037   0.226   5.291   6.720  0.1091  0.3159  0.0187
  184SOPE   H2R21038   0.134   5.295   6.657 -1.2860 -1.9748  1.7392
  184SOPE   H2S21039   0.272   5.391   6.724  1.5725 -0.3279 -0.2353
  184SOPE    C321040   0.678   5.209   6.658  0.5385 -1.0502 -0.5142
  184SOPE    HX21041   0.692   5.317   6.633  1.1485 -1.0390 -0.1276
  184SOPE    HY21042   0.771   5.161   6.621  1.7740  1.1932 -0.5000
  184SOPE   O3121043   0.654   5.210   6.801 -0.6143 -0.2026  0.1799
  184SOPE   C3121044   0.659   5.083   6.840  0.0907  0.0853 -0.5943
  184SOPE   O3221045   0.671   4.985   6.766  0.5366  0.2594 -0.2062
  184SOPE   C3221046   0.631   5.064   6.992  0.4189  0.0650 -0.0541
  184SOPE   H2X21047   0.587   5.158   7.032  0.8769 -1.2649  4.0223
  184SOPE   H2Y21048   0.736   5.055   7.026  0.3924  0.1780  0.0540
  184SOPE   C2321049   0.185   5.258   6.862  0.8371  0.1752  0.7311
  184SOPE   H3R21050   0.147   5.154   6.869 -3.1034  1.5010  1.0891
  184SOPE   H3S21051   0.102   5.328   6.887  2.1505  1.5470  1.4284
  184SOPE   C2421052   0.284   5.277   6.973 -0.1638  0.1357 -0.1460
  184SOPE   H4R21053   0.381   5.225   6.953 -1.0854 -2.6495  1.9398
  184SOPE   H4S21054   0.307   5.385   6.981 -0.7504  0.1692  1.2190
  184SOPE   C2521055   0.236   5.231   7.113 -0.2898  0.0851 -0.2180
  184SOPE   H5R21056   0.128   5.257   7.122 -0.7883 -2.2180  1.1949
  184SOPE   H5S21057   0.251   5.122   7.126  0.6943  0.2117 -0.2279
  184SOPE   C2621058   0.318   5.296   7.224 -0.2361  0.2762  0.1854
  184SOPE   H6R21059   0.426   5.277   7.206  0.2421  1.2396  1.8610
  184SOPE   H6S21060   0.294   5.404   7.217 -0.1240  0.2856 -0.0729
  184SOPE   C2721061   0.275   5.240   7.348 -0.3026 -0.1455 -0.0437
  184SOPE   H7R21062   0.166   5.255   7.355 -0.3549  1.3877 -2.8774
  184SOPE   H7S21063   0.288   5.129   7.351  1.6066 -0.0526 -2.1919
  184SOPE   C2821064   0.331   5.300   7.477  0.6477 -0.0795  0.1424
  184SOPE   H8R21065   0.319   5.410   7.460 -0.0085 -0.2436 -0.4692
  184SOPE   H8S21066   0.257   5.259   7.548  0.1636 -2.0387 -1.4320
  184SOPE   C2921067   0.464   5.251   7.513  0.1787 -0.5942 -0.1583
  184SOPE   H9121068   0.507   5.184   7.438 -1.2130  0.2190 -1.7533
  184SOPE  C21021069   0.542   5.291   7.616  0.0473 -0.5155 -0.6897
  184SOPE  H10121070   0.645   5.252   7.621  0.8215  1.2445 -1.9742
  184SOPE  C21121071   0.505   5.394   7.717  0.3081  0.7121  0.0756
  184SOPE  H11R21072   0.406   5.439   7.696  0.7193  1.7295  0.2500
  184SOPE  H11S21073   0.578   5.478   7.716 -1.8525  2.7557  1.8831
  184SOPE  C21221074   0.502   5.328   7.851  0.4081 -0.2504  0.0784
  184SOPE  H12R21075   0.571   5.242   7.862  1.3689  0.4402 -0.3817
  184SOPE  H12S21076   0.403   5.278   7.858  0.4053 -0.3148 -0.3885
  184SOPE  C21321077   0.523   5.430   7.957 -0.4144 -0.8765 -0.8198
  184SOPE  H13R21078   0.625   5.474   7.949 -0.1140 -1.4304 -0.1287
  184SOPE  H13S21079   0.514   5.386   8.059 -0.2026  0.8224 -0.0222
  184SOPE  C21421080   0.421   5.546   7.960 -0.0434 -0.0296 -0.0513
  184SOPE  H14R21081   0.319   5.504   7.964 -1.0859  2.0200 -2.4282
  184SOPE  H14S21082   0.437   5.602   7.865 -2.1040  3.5551  1.5036
  184SOPE  C21521083   0.445   5.636   8.080 -0.6707  0.4285  0.0759
  184SOPE  H15R21084   0.544   5.686   8.076 -0.3725 -0.2242 -1.2822
  184SOPE  H15S21085   0.445   5.569   8.169 -2.3350 -0.3050 -0.4492
  184SOPE  C21621086   0.342   5.744   8.104 -0.3635  0.4655 -0.8479
  184SOPE  H16R21087   0.245   5.695   8.081 -0.3456 -0.4937  0.9252
  184SOPE  H16S21088   0.365   5.830   8.037 -0.3493  0.4099 -0.9152
  184SOPE  C21721089   0.338   5.785   8.249  0.1312  0.5719  0.4110
  184SOPE  H17R21090   0.334   5.694   8.313  0.2217  0.5775  0.4246
  184SOPE  H17S21091   0.245   5.845   8.260 -0.4146 -0.3499  0.9337
  184SOPE  C21821092   0.452   5.875   8.296 -0.2933  0.7637  0.4185
  184SOPE  H18R21093   0.540   5.823   8.253 -1.5388 -0.9052 -0.2033
  184SOPE  H18S21094   0.451   5.887   8.407 -0.6894 -0.9338  0.6351
  184SOPE  H18T21095   0.448   5.976   8.249 -2.2141 -0.4895 -2.4212
  184SOPE   C3321096   0.567   4.924   7.030 -0.5120  0.2433 -0.6359
  184SOPE   H3X21097   0.586   4.841   6.959  1.2834 -2.4169  2.6348
  184SOPE   H3Y21098   0.459   4.948   7.040 -1.0240 -1.8432 -0.7921
  184SOPE   C3421099   0.621   4.873   7.161  0.1252 -0.4992  0.2734
  184SOPE   H4X21100   0.611   4.955   7.236  0.8436  0.7290 -0.9387
  184SOPE   H4Y21101   0.731   4.859   7.156  0.2024 -1.6739  3.1338
  184SOPE   C3521102   0.542   4.744   7.185 -0.3719  0.6481 -0.7205
  184SOPE   H5X21103   0.564   4.674   7.101  1.7059  1.3478 -0.8217
  184SOPE   H5Y21104   0.434   4.768   7.194 -0.8212 -1.5734  0.6333
  184SOPE   C3621105   0.586   4.672   7.312 -0.4151  0.6551 -0.3423
  184SOPE   H6X21106   0.695   4.663   7.331 -0.0731 -1.8851 -2.9373
  184SOPE   H6Y21107   0.555   4.566   7.301  0.8905  0.3751 -1.4959
  184SOPE   C3721108   0.494   4.715   7.429  0.7843 -0.6973  0.3348
  184SOPE   H7X21109   0.392   4.677   7.407  0.0614  1.3186 -0.0629
  184SOPE   H7Y21110   0.481   4.826   7.426  0.0011 -0.7773  0.5373
  184SOPE   C3821111   0.533   4.682   7.573  0.5685 -0.0783  0.3761
  184SOPE   H8X21112   0.638   4.708   7.599  0.9902 -1.2470 -0.0516
  184SOPE   H8Y21113   0.533   4.572   7.592  0.5314 -0.0281  0.6597
  184SOPE   C3921114   0.437   4.728   7.688  1.0406 -0.6939  0.0737
  184SOPE   H9X21115   0.339   4.678   7.673  1.2203 -0.5732 -1.7411
  184SOPE   H9Y21116   0.413   4.833   7.660 -0.0337 -1.3235 -1.4778
  184SOPE  C31021117   0.502   4.696   7.828 -0.6941  0.1609 -0.3934
  184SOPE  H10X21118   0.594   4.755   7.844 -0.0369 -0.7420 -0.7432
  184SOPE  H10Y21119   0.532   4.589   7.830 -1.8614 -0.3295 -3.5358
  184SOPE  C31121120   0.406   4.732   7.940 -0.2176  0.2856 -0.0617
  184SOPE  H11X21121   0.320   4.662   7.926 -0.8512  0.9476  0.4568
  184SOPE  H11Y21122   0.374   4.837   7.920  1.6509  1.0048  0.5781
  184SOPE  C31221123   0.474   4.712   8.080 -0.5161 -0.0015  0.3671
  184SOPE  H12X21124   0.578   4.751   8.074 -0.5401  0.2772  1.4795
  184SOPE  H12Y21125   0.471   4.604   8.105  3.4099 -0.6237 -1.2750
  184SOPE  C31321126   0.403   4.801   8.180  0.1728  0.1558 -0.6404
  184SOPE  H13X21127   0.295   4.793   8.158  0.0969  1.9985 -1.0994
  184SOPE  H13Y21128   0.442   4.903   8.162 -0.7424  0.8833  1.2796
  184SOPE  C31421129   0.429   4.749   8.328 -0.8887  0.9667 -0.1716
  184SOPE  H14X21130   0.539   4.738   8.337 -1.0028 -1.2437 -0.9774
  184SOPE  H14Y21131   0.384   4.648   8.342 -1.6666  1.4995  1.4881
  184SOPE  C31521132   0.377   4.847   8.435 -0.2850  0.3436 -0.4311
  184SOPE  H15X21133   0.267   4.834   8.447 -0.2649  1.6699  1.8817
  184SOPE  H15Y21134   0.396   4.952   8.408 -2.2554  1.4940  2.1534
  184SOPE  C31621135   0.444   4.810   8.568 -0.5537  0.0437 -0.4416
  184SOPE  H16X21136   0.554   4.814   8.555 -0.6124  2.8157 -0.6494
  184SOPE  H16Y21137   0.426   4.708   8.609  0.3020 -0.1263 -0.4568
  184SOPE  C31721138   0.418   4.920   8.670  0.0900 -0.4669 -0.3749
  184SOPE  H17X21139   0.453   4.898   8.773 -0.3158  1.4190  0.2123
  184SOPE  H17Y21140   0.307   4.924   8.672  0.1128  0.2146 -0.1885
  184SOPE  C31821141   0.462   5.060   8.651  0.2337  0.6174  0.2816
  184SOPE  H18X21142   0.571   5.071   8.672  0.4803 -2.7961  1.4323
  184SOPE  H18Y21143   0.413   5.121   8.729 -0.4788  0.2031  0.1711
  184SOPE  H18Z21144   0.436   5.100   8.551  2.9665  0.0459 -0.7545
  185SAPI   C1221145   3.811   1.667  11.168 -0.2149  0.1247 -0.1285
  185SAPI    H221146   3.769   1.629  11.072  0.3425 -3.5088  0.9014
  185SAPI    O221147   3.754   1.578  11.258  0.2337  0.1042  0.1530
  185SAPI   HO221148   3.661   1.593  11.239 -0.1090 -1.0967  0.7660
  185SAPI   C1321149   3.959   1.654  11.179 -0.1017 -0.2931 -0.2884
  185SAPI    H321150   3.998   1.727  11.105 -0.5616  1.5262  1.2207
  185SAPI    O321151   4.009   1.522  11.163 -0.4785  0.1925  0.3371
  185SAPI   HO321152   3.969   1.466  11.230 -1.1645  0.8336  0.4723
  185SAPI   C1421153   4.008   1.713  11.311  1.2243  0.6415 -0.0163
  185SAPI    H421154   3.959   1.654  11.392  0.2126  1.2493 -0.1714
  185SAPI    O421155   4.147   1.731  11.320  0.2468 -0.0482  0.0081
  185SAPI   HO421156   4.193   1.696  11.396  1.3322  0.5465 -0.3595
  185SAPI   C1521157   3.943   1.854  11.333  0.3900 -0.1957  0.4134
  185SAPI    H521158   3.977   1.915  11.247 -0.7414 -0.4927 -0.2565
  185SAPI    O521159   3.994   1.925  11.447 -0.0863  0.2242 -0.4552
  185SAPI   HO521160   3.954   1.901  11.531  0.9631 -2.6695 -0.6514
  185SAPI   C1621161   3.791   1.863  11.325 -0.5121  0.2491  0.3031
  185SAPI    H621162   3.754   1.804  11.412  0.8195  0.4350  1.0248
  185SAPI    O621163   3.741   1.994  11.345 -0.1147 -0.1142 -0.1507
  185SAPI   HO621164   3.647   1.993  11.323 -0.1769  3.4612 -0.6511
  185SAPI   C1121165   3.749   1.803  11.196 -0.0725  0.2558  0.3456
  185SAPI    H121166   3.796   1.863  11.115 -0.1287  0.4330  0.4449
  185SAPI     P21167   3.521   1.900  11.087  0.0567  0.1207  0.3244
  185SAPI   O1321168   3.519   2.026  11.166  0.6595 -0.2670 -0.1763
  185SAPI   O1421169   3.387   1.835  11.051 -0.1349  0.1882 -0.2330
  185SAPI   O1221170   3.608   1.794  11.188 -0.2026  0.0606  0.3909
  185SAPI   O1121171   3.621   1.910  10.965  0.2360  0.0145  0.8932
  185SAPI    C121172   3.641   1.790  10.887  0.1150 -0.1502 -0.0291
  185SAPI    HA21173   3.747   1.756  10.887 -0.3919 -2.0136  3.0887
  185SAPI    HB21174   3.588   1.706  10.935  0.3392 -0.1281  0.2645
  185SAPI    C221175   3.601   1.812  10.736  0.0330  0.2787  0.0105
  185SAPI    HS21176   3.603   1.716  10.681 -2.2636 -0.7604  1.5800
  185SAPI   O2121177   3.679   1.918  10.672  0.4897  0.1080 -0.0386
  185SAPI   C2121178   3.771   1.877  10.586 -0.0016 -0.7436 -0.0455
  185SAPI   O2221179   3.815   1.763  10.578 -0.1303  0.3606 -0.1947
  185SAPI   C2221180   3.808   1.990  10.496 -0.1433  0.4329  0.1927
  185SAPI   H2R21181   3.802   2.079  10.562 -0.4887 -0.5307  1.5149
  185SAPI   H2S21182   3.908   1.966  10.455 -0.8752 -1.2823 -0.7003
  185SAPI    C321183   3.456   1.860  10.736  1.3297  0.7292 -0.0649
  185SAPI    HX21184   3.449   1.950  10.800  3.4946  0.3983  0.6971
  185SAPI    HY21185   3.386   1.791  10.789  1.6335 -0.2965 -0.9615
  185SAPI   O3121186   3.398   1.871  10.602 -0.3413 -0.3189 -0.4702
  185SAPI   C3121187   3.380   2.003  10.564  0.1545 -0.0559  0.8086
  185SAPI   O3221188   3.409   2.104  10.617 -0.2352  0.1132  0.1755
  185SAPI   C3221189   3.315   1.997  10.422 -0.2823  0.1313 -0.2466
  185SAPI   H2X21190   3.216   1.946  10.424  0.8039 -2.1300  2.2977
  185SAPI   H2Y21191   3.375   1.937  10.350 -0.1855  0.2933 -0.3030
  185SAPI   C2321192   3.715   2.014  10.367  0.4496 -0.4125 -0.1168
  185SAPI   H3R21193   3.759   2.102  10.316  0.3037  0.1594  0.7363
  185SAPI   H3S21194   3.616   2.043  10.406 -0.0161  0.5117 -1.8779
  185SAPI   C2421195   3.703   1.893  10.261  0.4829  0.1884  0.5262
  185SAPI   H4R21196   3.644   1.926  10.172  0.4842 -1.8328 -0.2683
  185SAPI   H4S21197   3.642   1.815  10.311  2.4477 -0.6303  1.7254
  185SAPI   C2521198   3.832   1.832  10.214  0.2644  0.1408  0.1408
  185SAPI   H5R21199   3.901   1.810  10.296  1.6628 -0.6294 -1.1835
  185SAPI   C2621200   3.873   1.803  10.093  0.5900  0.0272  0.1408
  185SAPI   H6R21201   3.963   1.742  10.081 -0.3501 -1.4033  0.2127
  185SAPI   C2721202   3.793   1.836   9.964 -0.1675  0.1391  0.1399
  185SAPI   H7R21203   3.797   1.943   9.934 -2.2473  0.0464 -0.6175
  185SAPI   H7S21204   3.683   1.829   9.976 -0.1660 -2.5286 -0.8118
  185SAPI   C2821205   3.817   1.741   9.848  0.2164  0.3908  0.0236
  185SAPI   H8R21206   3.837   1.637   9.879  0.8472  0.7155  0.7628
  185SAPI   C2921207   3.815   1.770   9.720  0.5709 -0.0007  0.2641
  185SAPI   H9R21208   3.850   1.700   9.643  1.6224  0.2052  0.5408
  185SAPI  C21021209   3.787   1.898   9.658  0.5895 -0.1348 -0.1308
  185SAPI  H10R21210   3.752   1.964   9.741  0.6195  0.0844 -0.2922
  185SAPI  H10S21211   3.702   1.897   9.587  1.3995  2.3800 -1.2673
  185SAPI  C21121212   3.903   1.958   9.586 -0.4573 -0.2530  0.0467
  185SAPI  H11R21213   3.976   1.995   9.660  0.9248 -2.8459  0.1252
  185SAPI  C21221214   3.921   1.955   9.450  0.7077 -0.0449  0.0109
  185SAPI  H12R21215   4.003   2.007   9.399  1.5147 -3.0080 -1.9333
  185SAPI  C21321216   3.826   1.882   9.358  0.0739  0.2636  0.0458
  185SAPI  H13R21217   3.787   1.789   9.403  0.1573  0.6269  0.8893
  185SAPI  H13S21218   3.889   1.858   9.270  1.8289  1.6800  0.8487
  185SAPI  C21421219   3.715   1.972   9.297 -0.1541 -0.3189 -0.3374
  185SAPI  H14R21220   3.722   2.079   9.319  2.3023 -0.2909 -0.9248
  185SAPI  C21521221   3.638   1.922   9.202  0.1307  0.4849 -0.1033
  185SAPI  H15R21222   3.558   1.991   9.172 -0.2883 -0.1609 -0.5216
  185SAPI  C21621223   3.641   1.787   9.146  0.0851  0.4735  0.4528
  185SAPI  H16R21224   3.541   1.745   9.122  1.1828 -2.3668  0.4004
  185SAPI  H16S21225   3.677   1.714   9.222 -2.7784 -0.9983  0.5227
  185SAPI  C21721226   3.737   1.767   9.025  0.1525  0.2642 -0.0932
  185SAPI  H17R21227   3.725   1.668   8.977 -1.8537  0.8959 -0.9792
  185SAPI  H17S21228   3.846   1.777   9.047  0.1533  0.6553 -0.2721
  185SAPI  C21821229   3.702   1.864   8.908  0.0307 -0.2290  0.2141
  185SAPI  H18R21230   3.795   1.893   8.853 -0.9470  0.8031 -0.9474
  185SAPI  H18S21231   3.644   1.954   8.940 -1.1381 -1.1265  0.6726
  185SAPI  C21921232   3.608   1.798   8.808  0.1195  0.1218  0.8491
  185SAPI  H19R21233   3.511   1.783   8.859  1.2088 -0.6369  2.8005
  185SAPI  H19S21234   3.644   1.696   8.782  0.7749  0.8226 -1.2363
  185SAPI  C22021235   3.585   1.885   8.689  0.3045  0.4482 -0.1700
  185SAPI  H20R21236   3.541   1.980   8.726 -1.6999 -0.9054  1.0593
  185SAPI  H20S21237   3.519   1.851   8.606  0.5380 -1.4305  0.3818
  185SAPI  H20T21238   3.685   1.912   8.648 -0.0325  3.0141  0.5403
  185SAPI   C3321239   3.281   2.134  10.351  0.3560 -0.9663 -0.4393
  185SAPI   H3X21240   3.378   2.180  10.327  1.3678 -0.6995  3.4913
  185SAPI   H3Y21241   3.232   2.197  10.429  0.0296 -1.5594 -0.1520
  185SAPI   C3421242   3.181   2.121  10.232 -0.1287 -0.1768 -1.5836
  185SAPI   H4X21243   3.166   2.229  10.212  1.0583  0.5046  0.7947
  185SAPI   H4Y21244   3.091   2.063  10.262  0.3803 -1.4728 -2.5083
  185SAPI   C3521245   3.250   2.054  10.115  0.1812 -0.0149  0.4238
  185SAPI   H5X21246   3.183   2.052  10.026 -0.4926  0.1113  0.9268
  185SAPI   H5Y21247   3.269   1.946  10.131  1.9211  0.1282 -0.4738
  185SAPI   C3621248   3.386   2.105  10.065  0.1254  0.0252  0.0350
  185SAPI   H6X21249   3.456   2.098  10.150 -0.9433 -0.4946  0.8959
  185SAPI   H6Y21250   3.372   2.211  10.038  1.0193  0.3688  0.8633
  185SAPI   C3721251   3.444   2.015   9.958 -0.7540 -0.0243 -0.0137
  185SAPI   H7X21252   3.448   1.907   9.984  2.8442  0.0256  0.1416
  185SAPI   H7Y21253   3.554   2.033   9.953 -0.6888 -0.4614 -0.2084
  185SAPI   C3821254   3.389   2.024   9.816  0.0771  0.0044 -0.2691
  185SAPI   H8X21255   3.285   2.060   9.830 -0.0796 -0.9503  1.2191
  185SAPI   H8Y21256   3.391   1.928   9.760 -2.6979 -0.7020  0.6824
  185SAPI   C3921257   3.462   2.131   9.731 -0.0133 -0.3474  0.4291
  185SAPI   H9X21258   3.567   2.104   9.709 -0.3342 -0.4886 -1.0291
  185SAPI   H9Y21259   3.456   2.235   9.768  1.1156 -0.2550  0.3916
  185SAPI  C31021260   3.411   2.129   9.585 -0.2598 -0.2368 -0.1435
  185SAPI  H10X21261   3.305   2.161   9.593 -0.1749 -0.3280  2.1256
  185SAPI  H10Y21262   3.412   2.026   9.544  0.2919  0.0730 -0.9359
  185SAPI  C31121263   3.482   2.220   9.496 -0.2188 -0.1705  0.5475
  185SAPI  H11X21264   3.589   2.194   9.490  0.4845  2.1776  1.5838
  185SAPI  H11Y21265   3.478   2.327   9.526  1.3740  0.6556 -1.8963
  185SAPI  C31221266   3.414   2.195   9.362  0.5880  0.3500  0.1741
  185SAPI  H12X21267   3.306   2.218   9.362  0.0117 -2.1182 -0.2516
  185SAPI  H12Y21268   3.423   2.091   9.324 -0.9670  1.0809 -2.5184
  185SAPI  C31321269   3.472   2.294   9.258  0.3256  0.0372  0.0152
  185SAPI  H13X21270   3.574   2.256   9.239 -0.2445 -0.6995 -1.9311
  185SAPI  H13Y21271   3.468   2.398   9.296  0.0852  0.1601 -0.3345
  185SAPI  C31421272   3.395   2.303   9.129  0.8399 -0.1294 -0.0563
  185SAPI  H14X21273   3.298   2.351   9.154  1.9035  1.3804  1.3764
  185SAPI  H14Y21274   3.385   2.202   9.082  2.0098 -0.3670  0.1670
  185SAPI  C31521275   3.465   2.394   9.023  0.1709 -0.5538  0.2254
  185SAPI  H15X21276   3.571   2.359   9.023 -0.1271 -1.4646  0.0812
  185SAPI  H15Y21277   3.453   2.500   9.053  2.4536 -0.3201  0.4859
  185SAPI  C31621278   3.406   2.373   8.880  0.4401  0.6493 -0.3134
  185SAPI  H16X21279   3.307   2.423   8.870 -0.2114 -0.8598 -2.0082
  185SAPI  H16Y21280   3.390   2.263   8.875 -1.7469  0.9254 -0.4192
  185SAPI  C31721281   3.490   2.403   8.763 -0.0076 -0.1747  0.5292
  185SAPI  H17X21282   3.576   2.335   8.777 -1.8059 -2.2642  2.2492
  185SAPI  H17Y21283   3.512   2.511   8.776 -0.9479  0.0578  0.2572
  185SAPI  C31821284   3.410   2.403   8.635 -0.2690 -0.2070 -0.4494
  185SAPI  H18X21285   3.472   2.426   8.546 -1.7940  1.2149 -1.1813
  185SAPI  H18Y21286   3.323   2.472   8.634 -0.0561  0.0600 -1.4193
  185SAPI  H18Z21287   3.382   2.296   8.621  2.5415 -1.1716  0.5287
  186SAPI   C1221288   2.490   6.725  10.642 -0.0576  0.3868  0.2142
  186SAPI    H221289   2.495   6.795  10.556  0.5787 -1.7977 -1.6225
  186SAPI    O221290   2.361   6.675  10.654 -0.2254 -0.0086 -0.5699
  186SAPI   HO221291   2.307   6.755  10.654 -0.3929 -0.0789  1.3379
  186SAPI   C1321292   2.582   6.612  10.598  0.4816  0.3115  0.1554
  186SAPI    H321293   2.680   6.665  10.598  0.4929  0.3128  1.0721
  186SAPI    O321294   2.555   6.551  10.467  0.5971 -0.0768 -0.7294
  186SAPI   HO321295   2.484   6.489  10.485 -0.1141  1.0513  0.4970
  186SAPI   C1421296   2.589   6.506  10.713  0.0330  0.2661 -0.0396
  186SAPI    H421297   2.484   6.470  10.722 -0.5430  2.0251  0.6028
  186SAPI    O421298   2.667   6.394  10.673 -0.0022  0.3906  0.5301
  186SAPI   HO421299   2.642   6.310  10.710  1.2389 -0.4323 -0.4116
  186SAPI   C1521300   2.630   6.568  10.845  0.7258  0.0411 -0.1283
  186SAPI    H521301   2.729   6.617  10.831  0.1531  0.8480 -1.5605
  186SAPI    O521302   2.638   6.468  10.949 -0.2575  0.6776  0.4178
  186SAPI   HO521303   2.549   6.438  10.970 -0.9706  1.6117 -1.1096
  186SAPI   C1621304   2.534   6.678  10.883  0.0656  0.0578  0.2447
  186SAPI    H621305   2.435   6.629  10.894  1.3454 -2.8151 -0.3186
  186SAPI    O621306   2.569   6.742  11.010 -0.5492 -0.2447 -0.1512
  186SAPI   HO621307   2.565   6.837  11.001  2.5377 -0.0078 -0.2154
  186SAPI   C1121308   2.533   6.788  10.773  0.7837  0.4791 -0.0944
  186SAPI    H121309   2.640   6.815  10.757  1.5110 -1.5011  1.0215
  186SAPI     P21310   2.481   7.039  10.849 -0.3815  0.3366  0.5931
  186SAPI   O1321311   2.569   7.018  10.963  0.3404 -0.0260 -0.3350
  186SAPI   O1421312   2.360   7.121  10.870 -0.5041 -0.2831  0.2574
  186SAPI   O1221313   2.442   6.895  10.790  0.2512 -1.0844  0.3762
  186SAPI   O1121314   2.565   7.095  10.727  0.6711  0.8370  0.0601
  186SAPI    C121315   2.522   7.110  10.590 -1.3162  0.5212 -0.1150
  186SAPI    HA21316   2.598   7.060  10.526  0.2081  0.2449  1.8036
  186SAPI    HB21317   2.432   7.047  10.577 -0.4576 -0.8686  0.3986
  186SAPI    C221318   2.513   7.252  10.552  0.0927 -0.2216  0.4199
  186SAPI    HS21319   2.413   7.276  10.593  1.2888 -0.5395  3.8691
  186SAPI   O2121320   2.528   7.273  10.409  0.0511 -0.0470  0.5845
  186SAPI   C2121321   2.482   7.390  10.357 -0.4771  0.4242  0.6587
  186SAPI   O2221322   2.419   7.474  10.409  0.2629 -0.6610 -0.1997
  186SAPI   C2221323   2.523   7.386  10.212  0.4833  0.1203 -0.0983
  186SAPI   H2R21324   2.634   7.380  10.211  0.4277 -1.5957  0.4191
  186SAPI   H2S21325   2.486   7.287  10.178 -0.7972  0.6165 -0.2177
  186SAPI    C321326   2.603   7.354  10.629 -0.8089 -0.1872 -0.2994
  186SAPI    HX21327   2.579   7.351  10.738  0.3818 -0.3509 -0.0280
  186SAPI    HY21328   2.590   7.461  10.602 -2.5960  0.1069  1.4771
  186SAPI   O3121329   2.741   7.310  10.620 -0.0942 -0.0429 -0.3121
  186SAPI   C3121330   2.799   7.350  10.506 -0.3530 -0.1759 -0.1638
  186SAPI   O3221331   2.754   7.429  10.429  0.5398 -0.0673 -0.0699
  186SAPI   C3221332   2.922   7.278  10.491 -0.0373  0.4879  0.1954
  186SAPI   H2X21333   2.979   7.287  10.586  1.1057 -0.8370 -0.3309
  186SAPI   H2Y21334   2.996   7.318  10.418  2.2913 -1.1245  1.5488
  186SAPI   C2321335   2.464   7.493  10.120  0.0790 -0.3385 -0.6170
  186SAPI   H3R21336   2.499   7.590  10.160  1.1352 -1.7293  2.0751
  186SAPI   H3S21337   2.354   7.509  10.118  0.3896  2.6242  1.1170
  186SAPI   C2421338   2.499   7.476   9.973 -0.7568  0.1623  0.2897
  186SAPI   H4R21339   2.429   7.549   9.928 -0.4413  1.0518  1.2021
  186SAPI   H4S21340   2.482   7.375   9.932 -2.1017  0.8631 -0.9599
  186SAPI   C2521341   2.643   7.506   9.936 -0.4761 -0.6415  0.0309
  186SAPI   H5R21342   2.718   7.476  10.011 -0.9837 -2.8857 -0.2924
  186SAPI   C2621343   2.677   7.557   9.819 -0.4231  0.2733  0.3970
  186SAPI   H6R21344   2.783   7.574   9.795  0.2373 -1.6213  1.8061
  186SAPI   C2721345   2.589   7.604   9.702  0.5960  0.2257  0.5959
  186SAPI   H7R21346   2.483   7.628   9.727 -0.9376 -2.9781 -2.0766
  186SAPI   H7S21347   2.593   7.529   9.621 -0.2907  0.0941  0.6620
  186SAPI   C2821348   2.651   7.728   9.649 -0.4819 -0.0947 -0.9107
  186SAPI   H8R21349   2.640   7.812   9.719 -1.6778  0.7494 -2.0774
  186SAPI   C2921350   2.712   7.755   9.529  0.2029 -0.1164  0.1886
  186SAPI   H9R21351   2.753   7.856   9.514  0.8324 -0.3267  0.4710
  186SAPI  C21021352   2.735   7.663   9.412  0.4705  0.5714 -0.1531
  186SAPI  H10R21353   2.767   7.567   9.458  0.6056  0.4348 -0.5329
  186SAPI  H10S21354   2.821   7.704   9.356 -1.1374  1.4686 -2.0823
  186SAPI  C21121355   2.621   7.636   9.317  0.0031 -0.3636 -0.1191
  186SAPI  H11R21356   2.562   7.545   9.335 -0.0704 -0.0383  1.4456
  186SAPI  C21221357   2.600   7.705   9.207 -0.5393  0.3878  1.2188
  186SAPI  H12R21358   2.506   7.677   9.158  0.7474 -0.5782 -0.8336
  186SAPI  C21321359   2.676   7.828   9.153 -0.2311  0.8512 -0.8945
  186SAPI  H13R21360   2.743   7.803   9.068 -1.0722 -2.0176 -0.8240
  186SAPI  H13S21361   2.744   7.868   9.231  1.1088  2.8542 -2.9592
  186SAPI  C21421362   2.585   7.938   9.111  0.8003  0.4929 -0.3097
  186SAPI  H14R21363   2.544   7.998   9.194  0.9481 -0.3657  0.3943
  186SAPI  C21521364   2.560   7.984   8.989 -0.6023  0.3650  0.2382
  186SAPI  H15R21365   2.478   8.055   8.973 -0.5282  0.4155  0.0774
  186SAPI  C21621366   2.613   7.931   8.859 -0.2669 -0.1213 -0.0794
  186SAPI  H16R21367   2.548   7.972   8.779 -0.8840 -0.0829  0.4327
  186SAPI  H16S21368   2.619   7.820   8.864  0.9660 -0.0227  1.6822
  186SAPI  C21721369   2.751   7.982   8.814 -0.1582 -0.2250  0.5970
  186SAPI  H17R21370   2.818   7.972   8.901 -0.7232  0.7222  1.1660
  186SAPI  H17S21371   2.751   8.093   8.801  0.9917  0.1510  3.2112
  186SAPI  C21821372   2.809   7.901   8.692 -0.0654 -0.5614 -0.0483
  186SAPI  H18R21373   2.750   7.906   8.598  2.6658 -0.9918 -1.8992
  186SAPI  H18S21374   2.822   7.795   8.722 -0.1973 -0.8122 -0.8633
  186SAPI  C21921375   2.950   7.946   8.635  0.3776  0.4931 -0.7694
  186SAPI  H19R21376   3.012   7.952   8.727 -1.4023 -3.1609  0.8629
  186SAPI  H19S21377   2.931   8.051   8.604  1.5875  0.9783  0.0693
  186SAPI  C22021378   3.007   7.851   8.530  0.2674 -0.1177  0.3354
  186SAPI  H20R21379   3.080   7.779   8.572 -0.8606 -0.2512  2.1632
  186SAPI  H20S21380   3.066   7.908   8.454 -1.0729  0.0923 -0.5824
  186SAPI  H20T21381   2.925   7.796   8.480  0.2119  0.9809 -0.8663
  186SAPI   C3321382   2.900   7.123  10.458  0.1232  0.2511  0.7937
  186SAPI   H3X21383   2.837   7.083  10.541 -0.2835  0.2609  0.4900
  186SAPI   H3Y21384   3.002   7.079  10.453  0.0706 -0.2497  2.9546
  186SAPI   C3421385   2.830   7.088  10.327  0.3542  0.0529 -0.0147
  186SAPI   H4X21386   2.722   7.110  10.343 -0.0793 -2.6816  1.4616
  186SAPI   H4Y21387   2.826   6.980  10.299 -0.3961  0.4244 -1.4358
  186SAPI   C3521388   2.887   7.172  10.208 -0.2535  0.6226  0.6771
  186SAPI   H5X21389   2.996   7.158  10.198 -0.1241  1.2763  1.1178
  186SAPI   H5Y21390   2.863   7.279  10.224  2.0440  0.9667  2.3825
  186SAPI   C3621391   2.824   7.130  10.071  0.0633 -0.3963 -0.5417
  186SAPI   H6X21392   2.716   7.153  10.058  0.3133  0.5430 -1.0125
  186SAPI   H6Y21393   2.840   7.021  10.060  0.6480 -0.1590 -2.5075
  186SAPI   C3721394   2.898   7.200   9.961 -0.6626  0.0690 -0.2594
  186SAPI   H7X21395   2.999   7.154   9.958  0.9784  3.1559  1.7463
  186SAPI   H7Y21396   2.912   7.307   9.990 -0.1796 -0.0376 -0.0944
  186SAPI   C3821397   2.829   7.192   9.825  0.0646 -0.1813 -0.3289
  186SAPI   H8X21398   2.734   7.250   9.826  2.5406  4.3849 -0.1460
  186SAPI   H8Y21399   2.799   7.089   9.795  0.7839 -0.5855  0.3194
  186SAPI   C3921400   2.912   7.250   9.713 -0.4423  0.2591  0.6524
  186SAPI   H9X21401   3.008   7.195   9.702 -1.5822 -1.5203 -1.1733
  186SAPI   H9Y21402   2.929   7.356   9.740  0.0965  0.1518  0.7438
  186SAPI  C31021403   2.834   7.237   9.575 -0.3268 -0.4253 -0.0957
  186SAPI  H10X21404   2.743   7.301   9.582 -2.5066 -2.9363 -2.8263
  186SAPI  H10Y21405   2.810   7.129   9.565  2.1704 -1.0832  0.1723
  186SAPI  C31121406   2.924   7.296   9.471 -0.3597  0.4634  0.2682
  186SAPI  H11X21407   3.012   7.230   9.460 -0.0415  1.0483 -0.9000
  186SAPI  H11Y21408   2.967   7.394   9.502  1.7870 -0.2976 -0.2031
  186SAPI  C31221409   2.865   7.307   9.329 -0.7638  0.1605  0.2784
  186SAPI  H12X21410   2.762   7.344   9.348  0.1658  3.5101 -0.4098
  186SAPI  H12Y21411   2.846   7.206   9.288 -1.6094  0.4552 -0.0663
  186SAPI  C31321412   2.940   7.399   9.226  0.4445  0.2093  0.5314
  186SAPI  H13X21413   3.047   7.372   9.229  0.5599  0.2927 -1.5301
  186SAPI  H13Y21414   2.920   7.504   9.260  0.0624  0.0360  0.8571
  186SAPI  C31421415   2.875   7.385   9.088 -0.0997 -0.6892 -0.0721
  186SAPI  H14X21416   2.766   7.397   9.099 -0.1669 -0.5756 -0.7799
  186SAPI  H14Y21417   2.893   7.286   9.042  0.8549 -1.4893  1.9116
  186SAPI  C31521418   2.916   7.488   8.987  0.4534  0.0538  0.1108
  186SAPI  H15X21419   3.025   7.499   8.966  0.7762  0.1726  1.7027
  186SAPI  H15Y21420   2.887   7.588   9.028  1.9776  0.0964  1.1950
  186SAPI  C31621421   2.860   7.464   8.847 -0.2716 -0.9142 -0.3111
  186SAPI  H16X21422   2.883   7.550   8.781  0.5718  0.4128  1.6171
  186SAPI  H16Y21423   2.750   7.447   8.848 -0.3372 -0.6187 -1.3855
  186SAPI  C31721424   2.925   7.346   8.787 -0.4411 -0.1980 -0.2146
  186SAPI  H17X21425   2.870   7.256   8.822  1.5312 -0.9065  1.2152
  186SAPI  H17Y21426   3.034   7.339   8.804 -0.3427 -0.3173 -0.8739
  186SAPI  C31821427   2.902   7.353   8.636 -0.4737 -0.0224  0.2516
  186SAPI  H18X21428   2.927   7.450   8.588 -1.5547  0.7944  1.2815
  186SAPI  H18Y21429   2.803   7.327   8.594  1.1509 -1.0557 -3.3353
  186SAPI  H18Z21430   2.977   7.284   8.590 -1.2439 -0.2828 -0.6505
  187SAPI   C1221431   6.475   1.145   6.094 -0.1414  0.5666 -0.0024
  187SAPI    H221432   6.429   1.220   6.025 -0.6606  1.0619  0.8607
  187SAPI    O221433   6.378   1.108   6.193  0.2240  0.2119 -0.3478
  187SAPI   HO221434   6.357   1.189   6.240 -0.8135  0.3222 -0.9689
  187SAPI   C1321435   6.515   1.016   6.013  0.4327  0.3025  0.2543
  187SAPI    H321436   6.584   1.048   5.932 -1.1037  2.8324 -0.1758
  187SAPI    O321437   6.411   0.960   5.935 -0.4417 -0.0116  0.2169
  187SAPI   HO321438   6.377   1.028   5.875 -1.7663 -1.0422 -0.2579
  187SAPI   C1421439   6.581   0.916   6.103  0.1430  0.4367  0.0301
  187SAPI    H421440   6.521   0.893   6.194 -0.5221  3.2345  0.4087
  187SAPI    O421441   6.613   0.799   6.021  0.3823 -0.0586  0.0588
  187SAPI   HO421442   6.527   0.768   5.992  0.1450 -0.5508  1.2159
  187SAPI   C1521443   6.700   0.971   6.169 -0.7481 -0.3529 -0.2342
  187SAPI    H521444   6.765   1.011   6.088  0.3022  1.4102  1.4056
  187SAPI    O521445   6.786   0.880   6.230 -0.4350 -0.4657  0.6067
  187SAPI   HO521446   6.872   0.897   6.192 -1.2332 -0.1088 -1.1337
  187SAPI   C1621447   6.653   1.090   6.253 -0.1902  0.3236 -0.2426
  187SAPI    H621448   6.576   1.057   6.327  0.4827  0.8106  0.7001
  187SAPI    O621449   6.762   1.135   6.323  0.4800  0.3849 -0.0192
  187SAPI   HO621450   6.762   1.230   6.310  2.1171  0.3705 -0.3591
  187SAPI   C1121451   6.596   1.201   6.163  0.5188 -0.1400 -0.6814
  187SAPI    H121452   6.662   1.217   6.074  0.0619 -0.6934 -1.1311
  187SAPI     P21453   6.639   1.468   6.222 -0.5333 -0.2253 -0.0002
  187SAPI   O1321454   6.538   1.570   6.211  0.8928 -0.4709  0.3536
  187SAPI   O1421455   6.745   1.453   6.116 -0.1853 -0.3566  0.8006
  187SAPI   O1221456   6.554   1.325   6.223 -0.5021  0.2634  0.0070
  187SAPI   O1121457   6.697   1.452   6.367 -0.3643  0.0333  0.7249
  187SAPI    C121458   6.759   1.566   6.425  0.0754  0.3187  0.1681
  187SAPI    HA21459   6.860   1.589   6.383  0.1722 -0.5862 -0.1209
  187SAPI    HB21460   6.692   1.655   6.430 -0.7678 -0.3796  1.9473
  187SAPI    C221461   6.807   1.539   6.576  0.2636  0.3544 -0.4650
  187SAPI    HS21462   6.860   1.630   6.612 -2.7448  1.7921  0.6331
  187SAPI   O2121463   6.889   1.417   6.598  0.3298  0.2319  0.3564
  187SAPI   C2121464   7.006   1.408   6.539  0.2895 -0.6511  0.3238
  187SAPI   O2221465   7.050   1.491   6.459  0.4605 -0.0163 -0.2846
  187SAPI   C2221466   7.070   1.266   6.582  0.2876 -0.1025  0.3664
  187SAPI   H2R21467   6.985   1.204   6.619 -0.1841  0.9245  1.0932
  187SAPI   H2S21468   7.107   1.221   6.488  0.5594  1.5505 -0.3566
  187SAPI    C321469   6.682   1.518   6.668 -0.0644 -0.7652 -0.6171
  187SAPI    HX21470   6.626   1.428   6.634 -0.9707  0.1700 -1.6623
  187SAPI    HY21471   6.616   1.605   6.648  0.0056 -0.3482  0.8276
  187SAPI   O3121472   6.712   1.503   6.811 -0.4216  0.0638  0.5019
  187SAPI   C3121473   6.736   1.604   6.881  0.1381 -1.1204  0.6375
  187SAPI   O3221474   6.721   1.721   6.843  0.0414  0.1674  0.6646
  187SAPI   C3221475   6.789   1.550   7.017 -0.5976 -0.2466 -0.2839
  187SAPI   H2X21476   6.871   1.481   6.986  0.5240  0.3573  1.2055
  187SAPI   H2Y21477   6.708   1.488   7.061  0.4214 -1.7736 -0.4359
  187SAPI   C2321478   7.168   1.283   6.704  0.1569  0.2398 -0.0158
  187SAPI   H3R21479   7.253   1.354   6.694  1.0807 -0.9637 -0.9993
  187SAPI   H3S21480   7.205   1.180   6.719 -0.0506  0.2933  0.9439
  187SAPI   C2421481   7.086   1.308   6.830 -0.2792  0.3186  0.0315
  187SAPI   H4R21482   7.001   1.236   6.836  0.0950 -0.3542 -1.9797
  187SAPI   H4S21483   7.036   1.407   6.826  0.6339  0.8219  0.7336
  187SAPI   C2521484   7.168   1.294   6.956  0.5637 -0.0489 -0.0813
  187SAPI   H5R21485   7.255   1.359   6.971  0.4382  0.2914 -0.8017
  187SAPI   C2621486   7.147   1.195   7.048 -0.1240 -0.5648 -0.1758
  187SAPI   H6R21487   7.223   1.182   7.126  1.0428  1.6573 -0.8320
  187SAPI   C2721488   7.035   1.097   7.036  1.1990  0.4022 -0.3623
  187SAPI   H7R21489   7.035   1.052   6.934  1.4266  1.4934 -0.8533
  187SAPI   H7S21490   6.935   1.143   7.050  0.7201 -0.4118 -0.9861
  187SAPI   C2821491   7.056   0.994   7.139  0.6819  0.8423 -0.5199
  187SAPI   H8R21492   7.112   0.903   7.113  1.0097  0.3127  1.7841
  187SAPI   C2921493   7.029   1.011   7.271  0.2158 -0.2416 -0.6655
  187SAPI   H9R21494   7.055   0.929   7.341 -1.2170  1.1776  1.6683
  187SAPI  C21021495   6.959   1.122   7.350  0.1000 -0.4739  0.1671
  187SAPI  H10R21496   6.904   1.072   7.432  0.1049  0.7257  0.9216
  187SAPI  H10S21497   6.886   1.185   7.295 -1.0742 -2.1894 -0.3096
  187SAPI  C21121498   7.067   1.212   7.408  0.4581  0.1868  0.3056
  187SAPI  H11R21499   7.123   1.263   7.327 -1.3295 -0.3332 -1.3483
  187SAPI  C21221500   7.090   1.233   7.540 -0.0835  0.0910 -0.2365
  187SAPI  H12R21501   7.179   1.292   7.565  0.7038 -1.0067 -0.3976
  187SAPI  C21321502   7.010   1.167   7.654  0.4694 -0.4181  0.4217
  187SAPI  H13R21503   6.991   1.059   7.637 -0.9076 -0.2483  0.8159
  187SAPI  H13S21504   6.906   1.205   7.648 -0.1408 -1.7042  2.1492
  187SAPI  C21421505   7.083   1.201   7.786 -0.3686  0.6934  0.7739
  187SAPI  H14R21506   7.190   1.181   7.773 -0.7402 -0.7610 -0.2337
  187SAPI  C21521507   7.043   1.260   7.908  0.2359  0.5376  0.2500
  187SAPI  H15R21508   7.118   1.282   7.986 -0.1007  1.2449  0.3809
  187SAPI  C21621509   6.907   1.313   7.949 -0.5635  0.1794 -0.0842
  187SAPI  H16R21510   6.838   1.310   7.862 -0.9680 -1.2996  0.2523
  187SAPI  H16S21511   6.910   1.419   7.981 -1.9454  0.0492  0.5632
  187SAPI  C21721512   6.842   1.237   8.065  0.2106  0.3101 -0.1843
  187SAPI  H17R21513   6.807   1.134   8.044 -0.2947  0.6851 -1.3120
  187SAPI  H17S21514   6.740   1.277   8.084  0.6077  1.0370  0.4772
  187SAPI  C21821515   6.925   1.230   8.196 -0.1781  0.3801 -0.0563
  187SAPI  H18R21516   7.019   1.172   8.183  1.3737  2.6138  0.5820
  187SAPI  H18S21517   6.865   1.181   8.275  2.8607 -0.4577  1.8857
  187SAPI  C21921518   6.978   1.367   8.252  0.4432  0.4491  0.4347
  187SAPI  H19R21519   6.893   1.439   8.246 -0.7347 -0.6765  2.3755
  187SAPI  H19S21520   7.057   1.403   8.184 -0.7680  0.3268 -1.0814
  187SAPI  C22021521   7.026   1.357   8.397  0.0100  0.5605 -0.1255
  187SAPI  H20R21522   6.943   1.344   8.470  0.9269 -1.1445  0.6830
  187SAPI  H20S21523   7.082   1.450   8.417 -0.0466  0.6941 -0.5681
  187SAPI  H20T21524   7.089   1.266   8.406 -1.7155 -0.7070 -0.1963
  187SAPI   C3321525   6.829   1.656   7.118  0.2780 -0.8872  0.1863
  187SAPI   H3X21526   6.799   1.753   7.072  0.7257 -1.4118 -1.2368
  187SAPI   H3Y21527   6.939   1.662   7.125  0.3018 -1.6079  0.4841
  187SAPI   C3421528   6.779   1.631   7.259  0.0293 -0.0263  0.1503
  187SAPI   H4X21529   6.822   1.531   7.282 -0.5428 -1.0251 -2.7247
  187SAPI   H4Y21530   6.669   1.634   7.269  0.2395  0.6752  2.8225
  187SAPI   C3521531   6.842   1.726   7.361 -0.2172 -0.0633 -0.3573
  187SAPI   H5X21532   6.805   1.830   7.345  1.0719  0.6580  1.0490
  187SAPI   H5Y21533   6.952   1.738   7.350 -0.4255  0.4393 -2.3124
  187SAPI   C3621534   6.799   1.683   7.502 -0.3996 -0.3424 -0.6985
  187SAPI   H6X21535   6.834   1.577   7.510  0.1637 -0.3662 -2.8643
  187SAPI   H6Y21536   6.689   1.682   7.518 -0.1536  1.7355  1.7824
  187SAPI   C3721537   6.867   1.769   7.611 -0.1049 -0.2332  0.3078
  187SAPI   H7X21538   6.824   1.872   7.616 -0.9237 -0.6364  2.7817
  187SAPI   H7Y21539   6.978   1.769   7.598 -0.3806 -1.4535 -2.9827
  187SAPI   C3821540   6.842   1.709   7.747  0.1384  0.5253 -0.9687
  187SAPI   H8X21541   6.912   1.624   7.760 -0.6623 -0.1392 -0.9439
  187SAPI   H8Y21542   6.743   1.659   7.749  0.6354 -0.7530 -3.8055
  187SAPI   C3921543   6.850   1.809   7.865  0.5239 -0.3639  0.2775
  187SAPI   H9X21544   6.794   1.903   7.847  2.2504  0.9375  1.3828
  187SAPI   H9Y21545   6.954   1.845   7.878  1.0859 -1.2761 -1.4609
  187SAPI  C31021546   6.805   1.742   7.996 -0.1351 -0.2381 -0.1807
  187SAPI  H10X21547   6.875   1.657   8.009  0.7796  0.5497  0.2280
  187SAPI  H10Y21548   6.712   1.685   7.979  0.3350 -1.0093 -0.2127
  187SAPI  C31121549   6.800   1.819   8.124  0.4019 -0.2224 -0.2612
  187SAPI  H11X21550   6.743   1.756   8.197 -0.4171  0.4743 -0.2869
  187SAPI  H11Y21551   6.735   1.908   8.107  0.6908  0.1520  0.5324
  187SAPI  C31221552   6.934   1.878   8.176 -0.4196  0.0499 -0.0173
  187SAPI  H12X21553   6.916   1.958   8.251  0.3472  1.9576 -1.7988
  187SAPI  H12Y21554   6.996   1.921   8.094  0.0170 -0.7928 -0.1460
  187SAPI  C31321555   7.018   1.768   8.247  0.0297  0.6007  1.2936
  187SAPI  H13X21556   7.061   1.703   8.169  0.8312  1.3936  1.0530
  187SAPI  H13Y21557   6.944   1.711   8.307 -2.1513  0.3349 -1.4554
  187SAPI  C31421558   7.132   1.828   8.327  0.3981 -0.0612 -0.5359
  187SAPI  H14X21559   7.085   1.890   8.406 -1.1861 -0.5383 -1.0696
  187SAPI  H14Y21560   7.188   1.897   8.260 -0.3345  0.2862 -0.8083
  187SAPI  C31521561   7.238   1.731   8.386  0.5543 -0.5359  0.8328
  187SAPI  H15X21562   7.291   1.669   8.310  2.3849 -0.5970  2.0994
  187SAPI  H15Y21563   7.170   1.670   8.448 -1.9727  1.3604  0.0893
  187SAPI  C31621564   7.346   1.805   8.460 -0.1426 -0.2243 -0.3305
  187SAPI  H16X21565   7.308   1.882   8.530  0.7814 -1.0301  1.0871
  187SAPI  H16Y21566   7.392   1.865   8.379 -1.4186 -0.2799 -1.1302
  187SAPI  C31721567   7.453   1.716   8.531  0.1129 -0.2329 -0.4935
  187SAPI  H17X21568   7.523   1.674   8.455 -0.3449 -1.9653  0.0010
  187SAPI  H17Y21569   7.406   1.622   8.567  0.5595 -1.3902 -2.7665
  187SAPI  C31821570   7.532   1.781   8.652 -0.2080 -0.4886  0.1726
  187SAPI  H18X21571   7.464   1.797   8.738 -0.6626  2.6832 -0.6343
  187SAPI  H18Y21572   7.570   1.878   8.612 -0.1416 -1.0228 -1.1081
  187SAPI  H18Z21573   7.624   1.726   8.679  0.2613  0.3683  0.3559
  188SAPI   C1221574   2.077   4.017   6.194 -0.1170 -0.5468 -0.2103
  188SAPI    H221575   2.019   3.957   6.121  0.1448  2.5704 -3.2266
  188SAPI    O221576   2.211   4.029   6.143  0.0091 -0.5336  0.0741
  188SAPI   HO221577   2.256   3.948   6.169  2.2746 -0.2239 -2.4395
  188SAPI   C1321578   2.011   4.154   6.198 -0.3792  0.4472  0.1235
  188SAPI    H321579   1.910   4.145   6.244  0.6082  0.6418  2.4956
  188SAPI    O321580   1.995   4.202   6.067  0.0566 -0.5118  0.0725
  188SAPI   HO321581   2.078   4.233   6.030  0.6309  1.4616  2.6771
  188SAPI   C1421582   2.087   4.245   6.286 -0.2592 -0.4964  0.5562
  188SAPI    H421583   2.188   4.264   6.244 -0.8117 -0.0242 -0.6210
  188SAPI    O421584   2.020   4.372   6.283  0.4665 -0.6277  0.1611
  188SAPI   HO421585   2.079   4.434   6.242 -1.5644  1.5198  0.2921
  188SAPI   C1521586   2.103   4.192   6.430  0.4745 -0.4047 -0.3137
  188SAPI    H521587   1.998   4.187   6.465  1.1722 -0.0575  2.0361
  188SAPI    O521588   2.160   4.280   6.524 -0.4136  0.0456 -0.3271
  188SAPI   HO521589   2.210   4.234   6.591 -1.4554 -0.8331 -0.1246
  188SAPI   C1621590   2.159   4.043   6.432 -0.1908 -0.5026  0.6128
  188SAPI    H621591   2.266   4.049   6.404 -0.7268  0.0576 -1.5131
  188SAPI    O621592   2.146   3.996   6.557  0.2030  0.4341  0.0153
  188SAPI   HO621593   2.179   3.906   6.559  1.4859  0.8704  2.2130
  188SAPI   C1121594   2.080   3.957   6.333  0.4385 -0.4315  0.2307
  188SAPI    H121595   1.978   3.948   6.376  0.8098 -2.3794  0.7784
  188SAPI     P21596   2.029   3.684   6.347 -0.2579 -0.4037 -0.1543
  188SAPI   O1321597   2.111   3.566   6.305 -0.1368  0.6880  0.1005
  188SAPI   O1421598   1.899   3.699   6.275 -0.1899 -0.3283  0.3356
  188SAPI   O1221599   2.126   3.818   6.324 -0.0436  0.5766 -0.4672
  188SAPI   O1121600   2.001   3.672   6.502 -0.1720 -0.5797 -0.4561
  188SAPI    C121601   1.895   3.726   6.577 -0.0188 -0.4590  0.3086
  188SAPI    HA21602   1.895   3.837   6.575  1.2031 -0.4373  0.7828
  188SAPI    HB21603   1.800   3.715   6.521 -0.1328  2.8149 -0.3165
  188SAPI    C221604   1.894   3.687   6.732  0.0429 -0.0504  0.3604
  188SAPI    HS21605   1.793   3.721   6.764  0.6411  0.3802  1.8894
  188SAPI   O2121606   1.999   3.750   6.806 -0.0357 -0.3423  0.2263
  188SAPI   C2121607   1.979   3.879   6.840  0.2363  0.6494  0.3242
  188SAPI   O2221608   1.884   3.946   6.808  0.6159 -0.4079  0.2946
  188SAPI   C2221609   2.101   3.929   6.924  0.1754 -0.1280 -0.4456
  188SAPI   H2R21610   2.141   3.851   6.993 -0.3272  0.3144  0.3677
  188SAPI   H2S21611   2.177   3.972   6.856 -0.4467  0.7041 -0.6328
  188SAPI    C321612   1.892   3.532   6.750  0.0131  0.6675  0.3592
  188SAPI    HX21613   1.994   3.506   6.715 -0.0593  1.1270 -0.2082
  188SAPI    HY21614   1.820   3.482   6.682 -0.1934 -0.8135  1.6117
  188SAPI   O3121615   1.866   3.483   6.880  0.7642 -0.2648 -0.2740
  188SAPI   C3121616   1.933   3.375   6.913  0.7061  0.4221  0.1524
  188SAPI   O3221617   2.005   3.305   6.842  0.0938 -0.1671 -0.2118
  188SAPI   C3221618   1.886   3.329   7.047  0.2845 -0.1409 -0.6992
  188SAPI   H2X21619   1.779   3.302   7.035  1.1340 -3.5864 -1.5072
  188SAPI   H2Y21620   1.898   3.414   7.119 -1.6165  0.4949 -1.0814
  188SAPI   C2321621   2.059   4.040   7.026 -0.2862 -0.1683  0.4173
  188SAPI   H3R21622   1.963   4.014   7.075 -1.6595  1.3071 -1.3186
  188SAPI   H3S21623   2.046   4.128   6.960  0.8293  0.4601  1.0123
  188SAPI   C2421624   2.156   4.075   7.140 -0.1467  0.2469 -0.9341
  188SAPI   H4R21625   2.255   4.105   7.100  0.2715  1.8677  1.1456
  188SAPI   H4S21626   2.170   3.984   7.201 -1.4086  0.3290 -0.5039
  188SAPI   C2521627   2.116   4.208   7.207 -1.1156  0.5349 -0.3332
  188SAPI   H5R21628   2.107   4.298   7.144  0.5008  0.5115 -0.6226
  188SAPI   C2621629   2.090   4.226   7.337  0.0016  0.4007  0.4575
  188SAPI   H6R21630   2.070   4.329   7.371 -0.1257 -0.2489  2.4711
  188SAPI   C2721631   2.101   4.115   7.445  0.1131 -0.5264  0.3585
  188SAPI   H7R21632   2.205   4.128   7.483 -0.3765  1.2913  1.1587
  188SAPI   H7S21633   2.077   4.013   7.408  0.7942 -0.7415  0.4876
  188SAPI   C2821634   2.016   4.132   7.563  0.0789 -0.7316  0.5574
  188SAPI   H8R21635   1.915   4.148   7.521  0.6396  1.2338 -0.1684
  188SAPI   C2921636   2.047   4.149   7.691 -0.4057 -0.3071 -0.0718
  188SAPI   H9R21637   1.964   4.173   7.759 -1.3879 -0.6135 -1.1250
  188SAPI  C21021638   2.180   4.140   7.761  0.0371 -0.2448 -0.0112
  188SAPI  H10R21639   2.268   4.110   7.701  0.8756 -1.4731  1.7405
  188SAPI  H10S21640   2.178   4.062   7.840  0.7263 -1.2054 -0.9135
  188SAPI  C21121641   2.206   4.269   7.834 -0.4661  0.5033 -0.4747
  188SAPI  H11R21642   2.196   4.358   7.769 -0.4867  1.4740  0.8182
  188SAPI  C21221643   2.236   4.282   7.964 -0.0292  1.3966  0.1046
  188SAPI  H12R21644   2.250   4.382   8.009 -0.6388  0.4151  2.6678
  188SAPI  C21321645   2.265   4.169   8.070 -0.3154  0.6207 -0.0844
  188SAPI  H13R21646   2.322   4.088   8.019 -1.1492  0.1543 -0.2823
  188SAPI  H13S21647   2.169   4.127   8.105 -0.7817 -0.0441 -2.0704
  188SAPI  C21421648   2.345   4.209   8.187  0.1840 -0.6452  0.0339
  188SAPI  H14R21649   2.439   4.261   8.162 -0.0306  0.9652  2.2891
  188SAPI  C21521650   2.313   4.208   8.313 -0.1866  0.8773  0.7688
  188SAPI  H15R21651   2.381   4.247   8.389  0.6048  0.1182  0.4570
  188SAPI  C21621652   2.178   4.157   8.367 -0.0550  0.0798  0.0790
  188SAPI  H16R21653   2.183   4.097   8.461 -0.6849 -0.7174 -0.3926
  188SAPI  H16S21654   2.134   4.079   8.301 -0.9453 -0.8628  1.7185
  188SAPI  C21721655   2.083   4.271   8.387  0.1692  0.3143  0.5158
  188SAPI  H17R21656   1.982   4.226   8.395 -0.0921 -0.0784 -3.1239
  188SAPI  H17S21657   2.072   4.329   8.292 -2.5612 -1.4569 -0.3774
  188SAPI  C21821658   2.111   4.367   8.504  0.7284  0.3295 -0.2367
  188SAPI  H18R21659   2.213   4.359   8.547  1.5047  0.5041 -1.9569
  188SAPI  H18S21660   2.044   4.350   8.591 -1.5145  0.9254 -1.7531
  188SAPI  C21921661   2.108   4.520   8.480 -0.2934  0.0648  0.1334
  188SAPI  H19R21662   2.012   4.541   8.429 -1.4105 -0.7988  1.7645
  188SAPI  H19S21663   2.199   4.540   8.419  1.0053  0.3794  2.0772
  188SAPI  C22021664   2.113   4.595   8.608  0.0891 -0.2012 -0.7153
  188SAPI  H20R21665   2.025   4.571   8.671  2.0245  0.9623  2.6725
  188SAPI  H20S21666   2.096   4.704   8.590 -0.4916  0.0839  1.3126
  188SAPI  H20T21667   2.201   4.571   8.672  0.0176 -1.0848 -0.9320
  188SAPI   C3321668   1.960   3.202   7.098 -0.2302 -0.7104  0.6345
  188SAPI   H3X21669   2.070   3.208   7.106 -0.3443  1.2927  1.1779
  188SAPI   H3Y21670   1.930   3.121   7.027 -2.0949  0.8971 -0.5215
  188SAPI   C3421671   1.905   3.162   7.238 -0.7816  0.5932  0.3831
  188SAPI   H4X21672   1.969   3.081   7.279 -0.2702  0.7865 -0.0112
  188SAPI   H4Y21673   1.800   3.135   7.216 -0.9113  1.3913 -0.0058
  188SAPI   C3521674   1.907   3.267   7.347  0.5664  0.1918  0.0638
  188SAPI   H5X21675   1.827   3.340   7.325  1.6797  1.6907  0.8026
  188SAPI   H5Y21676   1.999   3.329   7.334 -0.7353  2.0687 -0.7306
  188SAPI   C3621677   1.895   3.222   7.489 -0.1836  0.7863 -0.5558
  188SAPI   H6X21678   1.974   3.145   7.498 -0.2570  0.5433 -1.8244
  188SAPI   H6Y21679   1.796   3.177   7.513 -0.7303  2.5160  0.6658
  188SAPI   C3721680   1.934   3.325   7.596 -0.3787 -0.1488  0.4823
  188SAPI   H7X21681   1.864   3.410   7.608 -1.1421 -0.2782 -2.4330
  188SAPI   H7Y21682   2.026   3.379   7.565 -0.2421 -0.6536 -0.0037
  188SAPI   C3821683   1.962   3.264   7.733  0.0223 -0.1942  0.7439
  188SAPI   H8X21684   2.057   3.207   7.722  1.0749  1.7344 -0.7673
  188SAPI   H8Y21685   1.878   3.197   7.762 -0.0636 -0.7383 -0.6890
  188SAPI   C3921686   1.976   3.363   7.851  0.1841  0.0346 -0.1558
  188SAPI   H9X21687   1.881   3.419   7.841 -0.0035 -0.7566 -4.7767
  188SAPI   H9Y21688   2.060   3.431   7.826  0.4801 -0.2321  0.1107
  188SAPI  C31021689   1.965   3.302   8.001 -0.6818  0.1084 -0.0638
  188SAPI  H10X21690   2.063   3.252   8.010 -0.9979 -0.4557  0.2598
  188SAPI  H10Y21691   1.894   3.217   8.011  0.5873 -0.7211  2.6035
  188SAPI  C31121692   1.944   3.405   8.118 -0.6462 -0.1357  0.2113
  188SAPI  H11X21693   1.842   3.449   8.115 -0.3424  0.7534  1.9646
  188SAPI  H11Y21694   2.023   3.483   8.112  1.0902 -1.5197  2.9383
  188SAPI  C31221695   1.963   3.349   8.265  0.8829  0.3039  0.4102
  188SAPI  H12X21696   2.059   3.293   8.269  1.2174  0.9091  1.0255
  188SAPI  H12Y21697   1.883   3.274   8.284 -0.7558  2.0331  0.6807
  188SAPI  C31321698   1.942   3.459   8.361 -0.0825  0.2759 -0.3000
  188SAPI  H13X21699   1.842   3.504   8.344 -0.5921 -0.4595  0.6418
  188SAPI  H13Y21700   2.025   3.531   8.346 -0.3493  0.6774  0.1104
  188SAPI  C31421701   1.934   3.418   8.510 -0.2906  0.1523 -0.0090
  188SAPI  H14X21702   1.841   3.360   8.528  0.7743 -1.6819 -0.2383
  188SAPI  H14Y21703   1.927   3.518   8.558 -0.6453  0.0483  0.1584
  188SAPI  C31521704   2.064   3.343   8.553  1.1672  0.1628 -0.0873
  188SAPI  H15X21705   2.153   3.394   8.513  1.2716 -0.4246 -0.6229
  188SAPI  H15Y21706   2.074   3.242   8.508 -1.3315 -1.0288  1.8092
  188SAPI  C31621707   2.066   3.324   8.701 -0.3860  0.6431  0.8540
  188SAPI  H16X21708   2.155   3.265   8.732  1.7122  2.9187 -0.4937
  188SAPI  H16Y21709   1.978   3.266   8.735 -0.5482 -0.1463 -0.7755
  188SAPI  C31721710   2.076   3.456   8.778 -0.5349  0.2738 -0.5033
  188SAPI  H17X21711   1.988   3.521   8.757 -1.1421 -0.1403  0.6773
  188SAPI  H17Y21712   2.171   3.506   8.750 -0.2765  0.3529  0.4677
  188SAPI  C31821713   2.066   3.426   8.929  0.1736  0.3202 -0.0870
  188SAPI  H18X21714   2.137   3.345   8.956 -2.4875 -2.5450 -1.0868
  188SAPI  H18Y21715   1.970   3.384   8.964  0.2179 -1.2894 -1.7378
  188SAPI  H18Z21716   2.073   3.521   8.986 -1.4792  0.4573 -0.0601
  189POPC     N21717   2.206   5.557  11.085 -0.0844 -0.4094 -0.2684
  189POPC   C1221718   2.153   5.580  10.947 -0.9281 -0.7115  0.0079
  189POPC  H12A21719   2.163   5.487  10.893 -0.1992 -0.2977 -0.5880
  189POPC  H12B21720   2.208   5.653  10.889 -0.0746 -2.1272 -1.0322
  189POPC   C1321721   2.224   5.692  11.158 -0.4826  0.5201  0.1054
  189POPC  H13A21722   2.126   5.735  11.168 -0.3847  0.9186 -0.5805
  189POPC  H13B21723   2.288   5.682  11.245  2.4811  0.2682 -1.9414
  189POPC  H13C21724   2.278   5.760  11.094 -1.7690 -0.2026 -1.8532
  189POPC   C1421725   2.114   5.464  11.158 -0.1699  0.4882  0.1048
  189POPC  H14A21726   2.083   5.379  11.098  0.8174  0.0708  0.1608
  189POPC  H14B21727   2.166   5.424  11.244 -1.1824 -2.1012 -0.3851
  189POPC  H14C21728   2.027   5.518  11.190  0.3223  0.8425  0.8691
  189POPC   C1521729   2.343   5.495  11.070 -0.4816  0.4867  0.2494
  189POPC  H15A21730   2.389   5.488  11.167  1.1982 -1.7740 -0.6242
  189POPC  H15B21731   2.404   5.570  11.021 -1.9040  1.3717 -0.2315
  189POPC  H15C21732   2.342   5.398  11.023  1.4580 -0.6684  2.4359
  189POPC   C1121733   2.002   5.608  10.924  0.0568  0.0031 -0.2968
  189POPC  H11A21734   1.959   5.515  10.966 -0.2880  0.4897  0.4619
  189POPC  H11B21735   1.991   5.623  10.815  0.4594  4.6292  0.0937
  189POPC     P21736   1.796   5.755  10.981 -0.3008  0.0838  0.2552
  189POPC   O1321737   1.783   5.894  11.021 -0.6483 -0.5466 -0.2475
  189POPC   O1421738   1.714   5.653  11.051  0.6767 -0.6281  0.6671
  189POPC   O1221739   1.945   5.713  11.007 -0.9101  0.6149  0.5035
  189POPC   O1121740   1.769   5.751  10.825 -0.6443  0.2421  0.0618
  189POPC    C121741   1.824   5.851  10.735  0.0364  0.4959  0.0413
  189POPC    HA21742   1.932   5.836  10.716 -0.0752 -2.5299  1.2419
  189POPC    HB21743   1.817   5.948  10.789 -2.8610 -0.3108  1.3620
  189POPC    C221744   1.757   5.837  10.603 -0.5772 -0.1665  0.4970
  189POPC    HS21745   1.793   5.919  10.538  1.0702  1.0405  2.7723
  189POPC   O2121746   1.613   5.842  10.597 -0.1529 -0.2851  0.0838
  189POPC   C2121747   1.567   5.966  10.613 -0.4322 -0.0288 -0.0206
  189POPC   O2221748   1.631   6.067  10.635 -0.6563  0.4382 -0.0246
  189POPC   C2221749   1.418   5.967  10.601 -0.0947 -0.3783 -0.0123
  189POPC   H2R21750   1.386   6.072  10.621  0.0954 -0.5231  1.1112
  189POPC   H2S21751   1.377   5.896  10.675 -2.4758 -1.3863 -2.1351
  189POPC    C321752   1.802   5.701  10.540  0.4811  0.9295 -0.2002
  189POPC    HX21753   1.776   5.610  10.598  0.2702  1.1267  0.0170
  189POPC    HY21754   1.913   5.702  10.542  0.4963 -0.2229  0.4646
  189POPC   O3121755   1.744   5.683  10.410 -0.1157  0.9243  0.8518
  189POPC   C3121756   1.811   5.587  10.346  0.8950 -0.4853 -0.0215
  189POPC   O3221757   1.893   5.509  10.391 -0.7440  0.4361  0.0180
  189POPC   C3221758   1.747   5.587  10.208  0.1421  0.0215  0.1846
  189POPC   H2X21759   1.795   5.670  10.151  0.4923  0.0489  0.5204
  189POPC   H2Y21760   1.636   5.588  10.212 -0.0677 -1.3958 -2.5225
  189POPC   C2321761   1.354   5.928  10.467  0.0078 -0.1301  0.2949
  189POPC   H3R21762   1.246   5.912  10.486  0.0060 -1.0852 -0.4144
  189POPC   H3S21763   1.382   5.824  10.440  0.7930  0.0176  0.5203
  189POPC   C2421764   1.401   6.026  10.358  0.3167 -0.3852  0.1110
  189POPC   H4R21765   1.408   6.122  10.414  0.2116  0.0047 -0.5389
  189POPC   H4S21766   1.323   6.036  10.280  1.5737  0.5381 -1.0846
  189POPC   C2521767   1.529   5.990  10.292  0.6946 -0.2159 -1.1591
  189POPC   H5R21768   1.540   5.882  10.268  0.7282 -0.3897 -0.4151
  189POPC   H5S21769   1.614   5.984  10.364 -1.1501 -0.4196  1.1320
  189POPC   C2621770   1.564   6.063  10.167 -0.1035  0.0874  0.1589
  189POPC   H6R21771   1.673   6.041  10.164 -0.1386 -0.7812  2.7942
  189POPC   H6S21772   1.544   6.172  10.182  0.7702  0.2786  0.0251
  189POPC   C2721773   1.492   6.009  10.045  0.0592  0.0096  0.6006
  189POPC   H7R21774   1.395   6.063  10.041  0.4014  0.7859  2.1115
  189POPC   H7S21775   1.470   5.902  10.065  0.3439 -0.0158  0.7839
  189POPC   C2821776   1.569   6.023   9.910  0.3551  0.0917 -0.1098
  189POPC   H8R21777   1.659   5.959   9.912  0.5808  0.4145  0.5145
  189POPC   H8S21778   1.603   6.125   9.883 -1.0068  0.6723  0.2346
  189POPC   C2921779   1.492   5.973   9.789 -0.5079  0.1534  0.3803
  189POPC   H9121780   1.386   5.959   9.815 -0.7274  2.9497  1.4235
  189POPC  C21021781   1.537   5.959   9.663  0.5304 -0.3392 -0.3992
  189POPC  H10121782   1.460   5.923   9.593 -0.0285  0.6672 -0.3144
  189POPC  C21121783   1.682   5.975   9.619  0.5676 -0.1423 -0.4638
  189POPC  H11R21784   1.719   5.878   9.578  0.7138 -0.5768  0.6308
  189POPC  H11S21785   1.751   6.003   9.701  0.0833 -1.5494  0.4624
  189POPC  C21221786   1.696   6.086   9.514 -0.7887  0.2898  0.1644
  189POPC  H12R21787   1.805   6.102   9.499 -0.1305  0.7571  4.2527
  189POPC  H12S21788   1.647   6.181   9.544 -1.0772  1.0716 -2.5346
  189POPC  C21321789   1.644   6.037   9.378 -0.0735  0.0857  0.6388
  189POPC  H13R21790   1.541   5.997   9.386  1.1524 -3.4321  0.2425
  189POPC  H13S21791   1.715   5.956   9.352 -0.1508  0.2323 -0.0335
  189POPC  C21421792   1.663   6.148   9.279 -0.8140  0.0231 -0.7305
  189POPC  H14R21793   1.764   6.195   9.281 -0.2449 -1.1518  0.7073
  189POPC  H14S21794   1.582   6.222   9.296 -1.7381 -1.4241  1.5652
  189POPC  C21521795   1.636   6.100   9.130  0.1010 -0.1418  0.1538
  189POPC  H15R21796   1.532   6.063   9.142 -0.3339  1.7134  3.3501
  189POPC  H15S21797   1.705   6.017   9.103 -1.9364 -2.1326  0.7630
  189POPC  C21621798   1.639   6.221   9.033  0.3069  0.9492 -0.1538
  189POPC  H16R21799   1.743   6.258   9.040  0.4482  0.4830  0.2581
  189POPC  H16S21800   1.560   6.294   9.061 -0.9543  0.6446 -2.6169
  189POPC  C21721801   1.616   6.167   8.890  0.4964  0.4411 -0.0839
  189POPC  H17R21802   1.590   6.255   8.827 -1.2555  0.4171  0.5395
  189POPC  H17S21803   1.531   6.096   8.889 -0.4708  1.4886 -2.5478
  189POPC  C21821804   1.738   6.098   8.824 -0.0954 -0.4367  0.3815
  189POPC  H18R21805   1.717   6.050   8.726 -0.0426 -1.3142  0.7893
  189POPC  H18S21806   1.784   6.032   8.901  0.8313  0.5911  0.7309
  189POPC  H18T21807   1.809   6.182   8.809  3.5265 -3.3308 -0.1567
  189POPC   C3321808   1.787   5.464  10.126  0.2622 -0.2299  0.0061
  189POPC   H3X21809   1.767   5.383  10.200 -0.1232  0.7164  0.9579
  189POPC   H3Y21810   1.898   5.453  10.116  0.0481 -2.2455 -0.7007
  189POPC   C3421811   1.724   5.450   9.988  0.5197  0.2366 -0.7280
  189POPC   H4X21812   1.615   5.464  10.006  0.7090  0.9236 -0.0729
  189POPC   H4Y21813   1.758   5.355   9.943  0.4803 -0.2168  0.1768
  189POPC   C3521814   1.768   5.550   9.885 -0.1271 -0.4049  0.6120
  189POPC   H5X21815   1.877   5.570   9.883 -0.2745  0.7232 -2.7606
  189POPC   H5Y21816   1.722   5.649   9.905  0.8917  0.2773 -0.3146
  189POPC   C3621817   1.738   5.498   9.744  0.3070 -0.0920 -0.0465
  189POPC   H6X21818   1.630   5.500   9.717  0.0550  0.4567  0.9557
  189POPC   H6Y21819   1.772   5.392   9.742  0.8840  0.0958 -1.8793
  189POPC   C3721820   1.810   5.584   9.636 -0.1498  0.6270  0.3567
  189POPC   H7X21821   1.917   5.571   9.661  0.3250 -0.5599 -2.0211
  189POPC   H7Y21822   1.792   5.694   9.635  1.6569  0.9586 -0.4130
  189POPC   C3821823   1.775   5.524   9.500  0.5637 -0.8270 -0.4725
  189POPC   H8X21824   1.672   5.566   9.490  0.4355 -0.9534  0.2606
  189POPC   H8Y21825   1.779   5.413   9.495  0.6462 -0.7967 -1.0880
  189POPC   C3921826   1.862   5.574   9.390 -0.0833  0.0300  0.4024
  189POPC   H9X21827   1.962   5.525   9.386  0.1384  0.5294 -0.4148
  189POPC   H9Y21828   1.890   5.681   9.397 -0.8857  0.1972  1.2601
  189POPC  C31021829   1.803   5.537   9.256 -0.4242 -0.1116  0.0287
  189POPC  H10X21830   1.702   5.583   9.248 -0.0539  0.5835 -0.7720
  189POPC  H10Y21831   1.792   5.427   9.253  1.5967 -0.3572  0.6719
  189POPC  C31121832   1.885   5.598   9.145 -0.1697  0.2351  0.1082
  189POPC  H11X21833   1.992   5.573   9.160 -0.5042 -1.0203  0.5661
  189POPC  H11Y21834   1.884   5.708   9.161 -0.0601  0.0993  1.1484
  189POPC  C31221835   1.844   5.551   9.000 -0.5483 -0.0963  0.8740
  189POPC  H12X21836   1.734   5.563   8.991 -0.9574 -2.5588  1.6928
  189POPC  H12Y21837   1.867   5.443   8.989 -1.8471 -0.2904 -0.1809
  189POPC  C31321838   1.912   5.633   8.883  0.1417 -0.1381  0.7564
  189POPC  H13X21839   2.018   5.635   8.918 -0.1550  0.4003  1.6702
  189POPC  H13Y21840   1.885   5.738   8.911 -1.8034 -0.5237  0.4249
  189POPC  C31421841   1.886   5.585   8.739  0.3877 -0.8779  0.4550
  189POPC  H14X21842   1.927   5.483   8.723 -0.5498 -0.9347 -1.9109
  189POPC  H14Y21843   1.951   5.650   8.677 -0.1230  0.0780  0.9065
  189POPC  C31521844   1.740   5.589   8.693  0.5668  0.1831  0.4228
  189POPC  H15X21845   1.685   5.508   8.745 -0.8429  1.4014  0.8949
  189POPC  H15Y21846   1.743   5.565   8.584 -2.0125 -0.9558  0.5553
  189POPC  C31621847   1.668   5.718   8.710  0.1031  0.3480 -0.1085
  189POPC  H16X21848   1.746   5.795   8.693  1.1969 -0.3009  1.6477
  189POPC  H16Y21849   1.628   5.742   8.811 -1.0984  1.6995 -0.8811
  189POPC  H16Z21850   1.585   5.729   8.638 -1.2900  0.3636  1.4437
  190POPC     N21851   3.705   3.280  11.310 -0.4648  0.6329  0.0032
  190POPC   C1221852   3.741   3.190  11.194  0.3731 -0.2946 -0.4460
  190POPC  H12A21853   3.662   3.119  11.173 -2.0379  2.0914  0.0033
  190POPC  H12B21854   3.831   3.134  11.213 -0.4272 -1.1777  0.9282
  190POPC   C1321855   3.579   3.355  11.269 -0.4632  0.0208 -0.2835
  190POPC  H13A21856   3.503   3.295  11.222 -0.3257  0.2922 -0.8567
  190POPC  H13B21857   3.531   3.406  11.351  1.6219 -0.3443  1.2471
  190POPC  H13C21858   3.616   3.426  11.197  0.9843 -0.2632  0.1519
  190POPC   C1421859   3.671   3.192  11.433  0.2159 -0.1187  0.1898
  190POPC  H14A21860   3.752   3.124  11.453 -1.5809 -2.4574 -0.1171
  190POPC  H14B21861   3.675   3.261  11.516  0.9544  0.9801 -0.7128
  190POPC  H14C21862   3.577   3.139  11.426  0.0634 -0.4127  3.3090
  190POPC   C1521863   3.821   3.379  11.331  0.1502 -0.0771  0.4071
  190POPC  H15A21864   3.853   3.421  11.237  1.7948 -0.0169  0.9708
  190POPC  H15B21865   3.907   3.332  11.375 -0.3158 -1.5674 -0.1926
  190POPC  H15C21866   3.797   3.466  11.390  1.4031  0.8318 -0.3819
  190POPC   C1121867   3.770   3.257  11.055  0.4328 -0.7887 -0.0340
  190POPC  H11A21868   3.685   3.318  11.017  1.6763  2.6692  2.1785
  190POPC  H11B21869   3.777   3.178  10.978  0.7284 -1.7597  0.9706
  190POPC     P21870   4.035   3.309  11.036  0.2584  0.0567 -0.1705
  190POPC   O1321871   4.037   3.164  11.078 -0.4716  0.0423 -0.1717
  190POPC   O1421872   4.123   3.410  11.097 -0.1626 -0.2690 -0.6861
  190POPC   O1221873   3.881   3.346  11.055  0.2123  0.0236 -0.2364
  190POPC   O1121874   4.056   3.328  10.889 -0.1290 -0.2511  0.3743
  190POPC    C121875   3.965   3.379  10.791 -0.2081 -0.1805  0.5325
  190POPC    HA21876   4.016   3.451  10.724 -2.3836  0.0441 -0.9860
  190POPC    HB21877   3.879   3.427  10.843  0.7304 -1.0201  2.9707
  190POPC    C221878   3.901   3.269  10.693 -0.0739  1.1502  0.1911
  190POPC    HS21879   3.833   3.223  10.768  2.0624  1.1365  2.2475
  190POPC   O2121880   4.012   3.174  10.657  0.0198 -0.2001  0.1446
  190POPC   C2121881   3.960   3.060  10.607  0.2812 -0.1452 -0.4137
  190POPC   O2221882   3.844   3.020  10.621 -0.0663  0.4638  0.1628
  190POPC   C2221883   4.068   2.978  10.535  0.5179 -0.0345  0.1358
  190POPC   H2R21884   4.155   2.954  10.600  0.4025  1.1280  0.7527
  190POPC   H2S21885   4.109   3.052  10.463 -0.2987  0.3136  0.0170
  190POPC    C321886   3.824   3.339  10.579 -0.2937  0.0810 -0.0155
  190POPC    HX21887   3.757   3.419  10.616 -0.1762  0.1128  0.1273
  190POPC    HY21888   3.758   3.267  10.524  0.3449  0.1900 -0.9516
  190POPC   O3121889   3.920   3.388  10.479  0.2375  1.1480 -0.1702
  190POPC   C3121890   3.932   3.522  10.451  0.4099  1.4005 -0.0516
  190POPC   O3221891   3.853   3.601  10.493  0.2279 -0.2528  0.4101
  190POPC   C3221892   4.045   3.547  10.353  0.4953  0.4947 -0.3637
  190POPC   H2X21893   4.084   3.452  10.311  2.1717  0.9033  0.2121
  190POPC   H2Y21894   4.130   3.584  10.414  1.4937 -0.5138 -1.0970
  190POPC   C2321895   4.019   2.846  10.466  0.2388 -0.1939  0.5169
  190POPC   H3R21896   3.920   2.866  10.420 -0.2346 -3.3780 -0.0872
  190POPC   H3S21897   4.004   2.771  10.546  2.6140 -1.9508 -0.5383
  190POPC   C2421898   4.133   2.782  10.371  0.3976 -0.2733 -0.0441
  190POPC   H4R21899   4.229   2.769  10.425  0.9240 -1.3477 -1.1849
  190POPC   H4S21900   4.145   2.850  10.283  0.0057  0.3756  0.3945
  190POPC   C2521901   4.104   2.645  10.302  0.5386 -0.0494  0.1555
  190POPC   H5R21902   4.005   2.666  10.255  0.4577  1.5193  0.9682
  190POPC   H5S21903   4.079   2.557  10.365 -0.1486 -0.8350 -1.1824
  190POPC   C2621904   4.206   2.601  10.192  0.2698 -0.0775  0.5758
  190POPC   H6R21905   4.294   2.558  10.245  1.8450  1.2547 -0.8387
  190POPC   H6S21906   4.250   2.697  10.157 -2.2874  0.2733 -1.9681
  190POPC   C2721907   4.138   2.512  10.088  0.9525 -0.7509 -0.8823
  190POPC   H7R21908   4.041   2.560  10.062  0.0628 -2.6662 -1.3334
  190POPC   H7S21909   4.107   2.416  10.136  2.1124 -2.0427 -2.5864
  190POPC   C2821910   4.217   2.479   9.959 -0.5042  0.1348 -0.5763
  190POPC   H8R21911   4.314   2.449  10.006  0.1824  0.3711 -1.8000
  190POPC   H8S21912   4.241   2.573   9.905  0.9627 -0.0260 -0.2427
  190POPC   C2921913   4.141   2.375   9.884  0.3821  1.1447 -0.4626
  190POPC   H9121914   4.043   2.352   9.928  0.4392  0.3579 -0.7407
  190POPC  C21021915   4.184   2.299   9.777 -0.4148  0.5679  0.3668
  190POPC  H10121916   4.121   2.214   9.746  1.2981 -0.8685  0.6580
  190POPC  C21121917   4.318   2.304   9.709 -0.0173 -0.0737  0.6556
  190POPC  H11R21918   4.337   2.204   9.664 -1.6462  0.4134 -1.2340
  190POPC  H11S21919   4.394   2.315   9.790  0.1386 -1.5879  0.7532
  190POPC  C21221920   4.325   2.406   9.592  0.4782  0.1264 -0.4467
  190POPC  H12R21921   4.429   2.442   9.575  0.7632  0.8893  2.4177
  190POPC  H12S21922   4.270   2.500   9.609 -0.6457  0.0161 -3.0119
  190POPC  C21321923   4.281   2.360   9.458  0.7293  0.2090 -0.3623
  190POPC  H13R21924   4.257   2.452   9.400  0.5516  1.3975  1.5091
  190POPC  H13S21925   4.187   2.306   9.484  1.3877 -0.7190  0.1716
  190POPC  C21421926   4.378   2.279   9.380 -0.2803 -0.5233  0.1155
  190POPC  H14R21927   4.408   2.180   9.422  0.8192 -0.8533 -1.3421
  190POPC  H14S21928   4.473   2.336   9.379  0.0066 -0.9934 -1.0638
  190POPC  C21521929   4.342   2.246   9.234  0.0231  0.2371 -0.1337
  190POPC  H15R21930   4.323   2.345   9.188 -0.2296  0.2502 -0.0077
  190POPC  H15S21931   4.242   2.197   9.235 -0.5705  1.4363  0.1781
  190POPC  C21621932   4.433   2.153   9.159 -0.1891 -0.4306 -0.5646
  190POPC  H16R21933   4.451   2.065   9.225 -1.3026  0.5572  1.1363
  190POPC  H16S21934   4.526   2.206   9.128  0.2330 -0.6270  0.3040
  190POPC  C21721935   4.375   2.104   9.026 -0.2797  0.3757  0.1999
  190POPC  H17R21936   4.336   2.188   8.965  0.8569  0.3520 -0.5881
  190POPC  H17S21937   4.283   2.048   9.051 -0.2090  0.9660  1.9202
  190POPC  C21821938   4.478   2.024   8.944  0.4633  0.4611 -0.3555
  190POPC  H18R21939   4.567   2.087   8.924  0.6631  0.2711 -0.0588
  190POPC  H18S21940   4.430   2.002   8.845 -2.1226  3.7085  0.0028
  190POPC  H18T21941   4.512   1.933   8.999  0.0946 -0.7336 -2.0033
  190POPC   C3321942   4.021   3.646  10.247  0.0101 -0.1583 -0.4447
  190POPC   H3X21943   4.114   3.680  10.197  1.0117  1.0520  2.0888
  190POPC   H3Y21944   3.967   3.731  10.294 -1.7407 -2.0304  1.1327
  190POPC   C3421945   3.930   3.585  10.133 -0.3952 -0.3687  0.1047
  190POPC   H4X21946   3.846   3.531  10.180 -0.8869  0.8165  0.6425
  190POPC   H4Y21947   3.994   3.511  10.081 -1.4361 -0.7848 -0.6160
  190POPC   C3521948   3.881   3.681  10.023 -0.0903  0.3099  0.2492
  190POPC   H5X21949   3.800   3.743  10.066 -0.3953  0.3063 -0.3133
  190POPC   H5Y21950   3.843   3.622   9.937  3.1795  0.1814 -1.2694
  190POPC   C3621951   3.997   3.773   9.975  0.5479 -0.0286  0.2198
  190POPC   H6X21952   4.100   3.730   9.983  0.3181 -0.4995  0.7145
  190POPC   H6Y21953   3.990   3.874  10.021 -2.7774  1.5222 -3.1647
  190POPC   C3721954   3.973   3.819   9.830  0.1662 -0.7155 -0.3689
  190POPC   H7X21955   4.026   3.916   9.817 -1.3633  0.3911  1.2132
  190POPC   H7Y21956   3.866   3.842   9.816  0.5220 -0.1637 -2.5114
  190POPC   C3821957   4.018   3.720   9.729 -0.2731  1.0245 -0.4982
  190POPC   H8X21958   3.949   3.633   9.734 -0.2591  1.0794  1.3187
  190POPC   H8Y21959   4.114   3.668   9.747 -1.4033 -0.7529  0.6229
  190POPC   C3921960   4.013   3.777   9.590  0.2301  0.2048 -0.6374
  190POPC   H9X21961   4.097   3.848   9.573 -0.2534  1.0234  0.2925
  190POPC   H9Y21962   3.915   3.824   9.565  0.5546  1.3851  0.2210
  190POPC  C31021963   4.031   3.671   9.489  0.0102  0.4623  0.0648
  190POPC  H10X21964   3.981   3.575   9.516  1.1706  0.3450  1.9923
  190POPC  H10Y21965   4.137   3.641   9.481  0.2869  1.9357 -3.3908
  190POPC  C31121966   3.980   3.723   9.352 -0.8025 -0.4234  0.4168
  190POPC  H11X21967   4.032   3.819   9.330  0.2417 -1.5943 -2.8457
  190POPC  H11Y21968   3.874   3.753   9.361  0.0611  2.7265  1.5540
  190POPC  C31221969   4.005   3.619   9.237 -0.0115 -0.2204 -0.7731
  190POPC  H12X21970   3.978   3.521   9.282 -0.2307  0.6566  1.1075
  190POPC  H12Y21971   4.112   3.625   9.211 -0.2910  3.3170 -1.5086
  190POPC  C31321972   3.930   3.652   9.108  0.6796  0.1143  0.2332
  190POPC  H13X21973   3.959   3.755   9.077 -0.2278  0.0706 -0.8254
  190POPC  H13Y21974   3.823   3.649   9.138  0.7320  2.8435  0.9255
  190POPC  C31421975   3.960   3.570   8.985  0.1971 -0.6548  0.0729
  190POPC  H14X21976   3.937   3.463   9.008  0.9783 -0.4595  1.9097
  190POPC  H14Y21977   4.066   3.580   8.953  0.6544 -3.6137  0.3596
  190POPC  C31521978   3.885   3.603   8.858  0.4632 -0.4607 -0.5649
  190POPC  H15X21979   3.869   3.712   8.847 -0.4686 -0.5970 -0.6485
  190POPC  H15Y21980   3.782   3.564   8.875  0.3685 -0.4135 -1.0148
  190POPC  C31621981   3.960   3.567   8.734  0.2266  0.2019  0.2030
  190POPC  H16X21982   3.994   3.462   8.720  0.7205  0.2250  1.1988
  190POPC  H16Y21983   4.055   3.624   8.736  0.6971 -0.3165 -2.7951
  190POPC  H16Z21984   3.919   3.608   8.639 -0.8689 -0.3200  0.4329
  191POPC     N21985   4.268   1.768   6.238  0.4049  0.3285 -0.7113
  191POPC   C1221986   4.249   1.899   6.321  0.0603  0.7660 -0.4278
  191POPC  H12A21987   4.157   1.893   6.377 -1.8191 -0.6669 -3.4574
  191POPC  H12B21988   4.226   1.974   6.247 -0.6079  0.2585 -0.7398
  191POPC   C1321989   4.379   1.802   6.134  0.1948  0.3315  0.1540
  191POPC  H13A21990   4.344   1.859   6.049 -0.9359 -1.9461 -0.9962
  191POPC  H13B21991   4.452   1.847   6.200 -1.5399  1.5158  1.3852
  191POPC  H13C21992   4.431   1.714   6.100 -0.6986 -0.9150  1.8322
  191POPC   C1421993   4.317   1.648   6.318 -0.1675 -0.0206 -0.4596
  191POPC  H14A21994   4.331   1.567   6.248 -2.1986 -0.8184 -0.0062
  191POPC  H14B21995   4.405   1.669   6.377  0.7727  1.5899 -2.3271
  191POPC  H14C21996   4.241   1.616   6.388  1.1361  0.8621  1.4646
  191POPC   C1521997   4.141   1.726   6.162 -0.2203 -0.6305  0.2266
  191POPC  H15A21998   4.151   1.632   6.110  0.5298  0.9195 -2.6506
  191POPC  H15B21999   4.105   1.788   6.082 -0.9239 -2.3802 -0.8759
  191POPC  H15C22000   4.053   1.715   6.222 -3.1079  0.4413 -3.4552
  191POPC   C1122001   4.354   1.935   6.419  0.6434  0.7549 -0.4631
  191POPC  H11A22002   4.382   1.850   6.485 -2.5151 -0.2949 -0.2824
  191POPC  H11B22003   4.320   2.016   6.486  1.1355 -1.0915  2.1874
  191POPC     P22004   4.465   2.123   6.282 -0.1690 -0.3099  0.0207
  191POPC   O1322005   4.353   2.119   6.182 -0.0282  0.4217 -0.3794
  191POPC   O1422006   4.597   2.162   6.232  0.4098  0.0100  0.2542
  191POPC   O1222007   4.470   1.975   6.344  0.1517  0.3707 -0.1674
  191POPC   O1122008   4.424   2.213   6.404  0.3449  0.5806 -0.2834
  191POPC    C122009   4.494   2.232   6.529 -0.2767 -0.2960  0.2385
  191POPC    HA22010   4.599   2.260   6.506  0.2167 -0.7149  1.8508
  191POPC    HB22011   4.492   2.145   6.597  0.0029  2.1166  3.6055
  191POPC    C222012   4.433   2.355   6.604  0.5219  0.5160  0.2113
  191POPC    HS22013   4.502   2.391   6.683 -1.1183  2.7086  0.7597
  191POPC   O2122014   4.305   2.316   6.667  0.6175 -0.0742  0.3123
  191POPC   C2122015   4.278   2.369   6.780 -0.4873  0.2327  0.0509
  191POPC   O2222016   4.350   2.438   6.849  1.1010  0.2319 -0.3020
  191POPC   C2222017   4.135   2.347   6.824  0.3279  0.0874 -0.1640
  191POPC   H2R22018   4.091   2.267   6.761  0.5686  0.9246 -1.4246
  191POPC   H2S22019   4.079   2.436   6.789 -0.6220 -0.7742 -0.8884
  191POPC    C322020   4.404   2.477   6.503  0.6490 -0.1390  0.4793
  191POPC    HX22021   4.345   2.429   6.421  2.7482 -1.0614 -0.5637
  191POPC    HY22022   4.484   2.527   6.444  0.4835  0.2452  0.5741
  191POPC   O3122023   4.324   2.584   6.563  0.0474  0.3692  0.5899
  191POPC   C3122024   4.400   2.677   6.620 -0.0687 -0.1052  0.5106
  191POPC   O3222025   4.521   2.670   6.632  0.1158 -0.2663 -0.0108
  191POPC   C3222026   4.308   2.787   6.676  0.1117  0.8818  0.3652
  191POPC   H2X22027   4.221   2.791   6.607  0.9184 -0.1541 -0.7615
  191POPC   H2Y22028   4.372   2.878   6.674  0.1122  0.8988  0.9021
  191POPC   C2322029   4.111   2.332   6.980  0.1654  0.1885 -0.2856
  191POPC   H3R22030   4.149   2.430   7.014  0.0795  0.4195 -0.8392
  191POPC   H3S22031   4.185   2.259   7.019 -0.9493  0.3442  2.3343
  191POPC   C2422032   3.966   2.292   7.036 -0.3437  0.1611  0.0372
  191POPC   H4R22033   3.922   2.192   7.016  0.8393 -0.4500  0.4270
  191POPC   H4S22034   3.899   2.355   6.973  1.4452  1.9446 -0.1786
  191POPC   C2522035   3.954   2.324   7.186  0.5853 -0.6301  0.7920
  191POPC   H5R22036   3.844   2.328   7.204 -0.1158  0.7545 -2.9275
  191POPC   H5S22037   3.995   2.425   7.207  1.5120 -1.0758  1.1713
  191POPC   C2622038   4.028   2.233   7.276 -0.1737  0.8154 -0.1060
  191POPC   H6R22039   4.137   2.244   7.260 -0.1240  0.4277 -0.0448
  191POPC   H6S22040   3.992   2.129   7.260 -1.6729  1.3239 -0.2267
  191POPC   C2722041   3.992   2.246   7.427  0.0942 -0.0820  0.4823
  191POPC   H7R22042   3.882   2.245   7.446 -0.4962  0.2529 -2.4307
  191POPC   H7S22043   4.025   2.346   7.463  1.3169 -0.7596  1.2896
  191POPC   C2822044   4.049   2.134   7.518  0.3430 -0.3310  0.3144
  191POPC   H8R22045   4.038   2.037   7.466  1.3710 -1.4305  2.0358
  191POPC   H8S22046   3.984   2.139   7.608  0.6067  1.5816  0.4473
  191POPC   C2922047   4.198   2.154   7.555  0.0318  0.6218 -0.6268
  191POPC   H9122048   4.265   2.095   7.491 -0.3408 -1.3450  0.6970
  191POPC  C21022049   4.237   2.220   7.664 -0.4901 -0.1639 -0.0284
  191POPC  H10122050   4.346   2.227   7.680 -0.3422  2.2507 -1.5922
  191POPC  C21122051   4.144   2.303   7.753 -0.8883 -0.3616  0.4449
  191POPC  H11R22052   4.036   2.299   7.724 -0.7002  0.6462 -0.4644
  191POPC  H11S22053   4.175   2.409   7.749 -0.6564 -0.3993  1.2173
  191POPC  C21222054   4.145   2.254   7.898  0.3607 -0.6744  0.0256
  191POPC  H12R22055   4.110   2.340   7.959 -0.1684  0.3067 -1.5888
  191POPC  H12S22056   4.244   2.212   7.924 -0.6232 -2.8268  0.5688
  191POPC  C21322057   4.048   2.135   7.919  0.5257  0.1423  0.3120
  191POPC  H13R22058   4.083   2.040   7.871 -2.8532  0.2599 -2.7981
  191POPC  H13S22059   3.955   2.150   7.860 -0.1693 -1.2060  1.0169
  191POPC  C21422060   4.005   2.127   8.060 -0.2216 -0.4045  0.1828
  191POPC  H14R22061   4.096   2.127   8.124 -1.1653  1.1366  1.6097
  191POPC  H14S22062   3.960   2.027   8.078  1.2750 -0.9389  1.1591
  191POPC  C21522063   3.905   2.233   8.100  0.3608  0.2626  0.4324
  191POPC  H15R22064   3.843   2.252   8.009  1.6303  1.7025 -0.1644
  191POPC  H15S22065   3.957   2.328   8.124 -0.4167  0.2586  2.2868
  191POPC  C21622066   3.809   2.196   8.214 -0.1054  0.1165  0.1527
  191POPC  H16R22067   3.754   2.104   8.184  0.1246  0.2576 -0.7359
  191POPC  H16S22068   3.728   2.272   8.220  0.1804  0.3526  1.1837
  191POPC  C21722069   3.877   2.175   8.348 -1.0071 -0.0539  0.3729
  191POPC  H17R22070   3.942   2.085   8.356 -0.8588  0.1059  1.0586
  191POPC  H17S22071   3.797   2.154   8.422 -0.1511 -1.0246  1.0549
  191POPC  C21822072   3.951   2.296   8.406  0.1978 -0.6117 -0.1746
  191POPC  H18R22073   4.039   2.320   8.343 -0.4386  1.4044 -0.3737
  191POPC  H18S22074   3.982   2.280   8.511  0.2509  0.4382 -0.0165
  191POPC  H18T22075   3.894   2.391   8.393  1.3226 -0.2390 -3.3605
  191POPC   C3322076   4.274   2.754   6.826 -0.4610  0.4307  0.0113
  191POPC   H3X22077   4.363   2.707   6.873 -1.6197 -1.4294  0.4552
  191POPC   H3Y22078   4.191   2.681   6.837 -1.5118  1.5000 -0.5972
  191POPC   C3422079   4.215   2.874   6.903 -0.3639  0.7419  0.3411
  191POPC   H4X22080   4.105   2.860   6.894 -0.1833  0.3467 -1.7714
  191POPC   H4Y22081   4.241   2.972   6.858  2.5574 -0.3150 -0.5106
  191POPC   C3522082   4.260   2.878   7.055  0.3132 -0.4854  0.0004
  191POPC   H5X22083   4.216   2.972   7.093 -1.9388 -0.7897 -1.6529
  191POPC   H5Y22084   4.370   2.890   7.050  0.1071  1.0855 -1.9665
  191POPC   C3622085   4.208   2.755   7.130  0.0234 -0.9090 -0.1107
  191POPC   H6X22086   4.262   2.666   7.091 -0.8346 -1.6792  0.4185
  191POPC   H6Y22087   4.099   2.740   7.115 -0.0744  0.5484 -1.0960
  191POPC   C3722088   4.234   2.769   7.276  0.0630  0.3650 -0.5714
  191POPC   H7X22089   4.189   2.863   7.316  2.5051  1.1106  0.6210
  191POPC   H7Y22090   4.343   2.779   7.292  0.3480 -2.8381  0.1679
  191POPC   C3822091   4.175   2.652   7.351 -0.7548 -0.4990 -0.5793
  191POPC   H8X22092   4.223   2.563   7.304 -2.2041 -0.6068 -1.9697
  191POPC   H8Y22093   4.065   2.640   7.339 -1.0258 -0.8700  1.8984
  191POPC   C3922094   4.210   2.639   7.500  0.3039  0.4784 -0.2429
  191POPC   H9X22095   4.316   2.605   7.506  0.1538 -0.0351 -0.3983
  191POPC   H9Y22096   4.152   2.549   7.532 -1.3437  1.9935  1.2123
  191POPC  C31022097   4.176   2.760   7.593  0.2788 -0.9115 -0.2797
  191POPC  H10X22098   4.097   2.821   7.544  0.1952 -1.4370 -0.8118
  191POPC  H10Y22099   4.265   2.826   7.602 -0.9467  0.6923  0.6442
  191POPC  C31122100   4.127   2.730   7.726  0.1027  0.3958  0.3965
  191POPC  H11X22101   4.051   2.649   7.722 -0.3633  0.8231  0.5047
  191POPC  H11Y22102   4.061   2.807   7.771  0.2820  0.3236  0.7835
  191POPC  C31222103   4.242   2.706   7.825 -0.1053  0.0041 -0.1141
  191POPC  H12X22104   4.306   2.797   7.819 -2.2186  1.6088  0.5732
  191POPC  H12Y22105   4.307   2.625   7.784 -0.8813 -1.3409  1.2502
  191POPC  C31322106   4.197   2.672   7.966 -0.1177 -0.3701  0.6581
  191POPC  H13X22107   4.114   2.598   7.966  0.4629 -1.1119 -1.4288
  191POPC  H13Y22108   4.172   2.761   8.027 -0.3562  0.9131 -1.2154
  191POPC  C31422109   4.308   2.590   8.036 -0.1762 -0.5392  0.7983
  191POPC  H14X22110   4.399   2.648   8.063 -0.8933 -0.1525  2.5648
  191POPC  H14Y22111   4.353   2.506   7.979  0.3493  0.7904 -0.8351
  191POPC  C31522112   4.245   2.546   8.168 -0.0772  0.4902  0.2068
  191POPC  H15X22113   4.162   2.482   8.132  1.1848 -0.6800 -0.7370
  191POPC  H15Y22114   4.209   2.631   8.229 -1.3196 -0.6766  1.1764
  191POPC  C31622115   4.346   2.485   8.252 -0.1566  0.6868  0.0012
  191POPC  H16X22116   4.311   2.434   8.344  0.5509 -0.5299 -0.3894
  191POPC  H16Y22117   4.426   2.557   8.280 -2.3991  3.2945  0.1503
  191POPC  H16Z22118   4.407   2.421   8.186  0.2482  0.6039  0.4522
  192POPC     N22119   3.290   5.719   6.358  0.3429  0.0687 -0.0998
  192POPC   C1222120   3.444   5.720   6.365 -0.1218 -0.1058 -0.0054
  192POPC  H12A22121   3.475   5.647   6.439  0.9542 -0.0984 -0.4234
  192POPC  H12B22122   3.480   5.814   6.407 -0.0820 -0.4364  0.7210
  192POPC   C1322123   3.217   5.775   6.477 -0.3256  0.4402 -0.2534
  192POPC  H13A22124   3.241   5.720   6.567 -0.6238  1.2141  0.3039
  192POPC  H13B22125   3.247   5.875   6.504  0.6873 -0.3491  1.7942
  192POPC  H13C22126   3.111   5.783   6.462 -0.5492 -1.3032  0.1689
  192POPC   C1422127   3.248   5.806   6.243  0.4599  0.2392  0.0281
  192POPC  H14A22128   3.142   5.803   6.222  0.6477 -0.5689 -0.9356
  192POPC  H14B22129   3.277   5.906   6.272  0.2565 -0.2143  1.9021
  192POPC  H14C22130   3.298   5.776   6.152 -1.8798 -0.8190 -1.0153
  192POPC   C1522131   3.244   5.580   6.331  0.3448  0.8213 -0.0091
  192POPC  H15A22132   3.271   5.560   6.229  1.6826  0.6729  0.3524
  192POPC  H15B22133   3.137   5.570   6.333  0.4710 -0.6322 -0.0325
  192POPC  H15C22134   3.297   5.504   6.386  0.8743  1.3808  0.2728
  192POPC   C1122135   3.534   5.694   6.248  0.5727  0.3453 -0.3440
  192POPC  H11A22136   3.637   5.723   6.279  0.4399  1.6156 -1.0472
  192POPC  H11B22137   3.510   5.760   6.162 -1.3981 -1.8122 -1.5625
  192POPC     P22138   3.637   5.453   6.247 -0.2048  0.1402 -0.5594
  192POPC   O1322139   3.749   5.479   6.153  0.4425  0.2597 -0.2089
  192POPC   O1422140   3.572   5.319   6.241  0.3521 -0.1487 -0.9728
  192POPC   O1222141   3.521   5.555   6.206 -0.6519 -0.0694 -0.3383
  192POPC   O1122142   3.672   5.494   6.397  0.1746  0.2795 -0.6581
  192POPC    C122143   3.797   5.465   6.460 -0.6064  0.1853 -0.3079
  192POPC    HA22144   3.883   5.525   6.422 -0.8591 -0.0198 -1.2417
  192POPC    HB22145   3.831   5.360   6.461 -1.1643 -0.0016  0.7264
  192POPC    C222146   3.796   5.507   6.605 -0.1595 -0.1486  0.5518
  192POPC    HS22147   3.902   5.503   6.636  1.0773  0.4469 -3.0757
  192POPC   O2122148   3.708   5.430   6.689 -0.5119  0.4721 -0.4236
  192POPC   C2122149   3.761   5.309   6.712  0.2243 -0.8249 -0.4092
  192POPC   O2222150   3.874   5.271   6.685 -0.0995 -0.2630 -0.3456
  192POPC   C2222151   3.651   5.219   6.772  0.6042  0.3387  0.1123
  192POPC   H2R22152   3.601   5.163   6.690  0.6238  0.5017 -0.0137
  192POPC   H2S22153   3.566   5.285   6.801  1.1266  2.0068 -1.8729
  192POPC    C322154   3.746   5.657   6.620 -0.1877  0.2033 -0.0195
  192POPC    HX22155   3.642   5.668   6.582  0.4348  0.3263 -1.8077
  192POPC    HY22156   3.809   5.717   6.550 -1.5037  0.1296 -1.2986
  192POPC   O3122157   3.752   5.702   6.759 -0.8975 -0.6420 -0.4121
  192POPC   C3122158   3.872   5.735   6.804  0.5437 -0.4824  0.2254
  192POPC   O3222159   3.976   5.716   6.747  0.2684  0.5885 -0.1839
  192POPC   C3222160   3.856   5.807   6.937 -0.1220 -0.0462 -0.4001
  192POPC   H2X22161   3.765   5.870   6.930  0.0397  0.2998  0.5619
  192POPC   H2Y22162   3.943   5.876   6.938 -1.1312  1.4896  4.1745
  192POPC   C2322163   3.691   5.113   6.878 -0.9343 -0.0350  0.2836
  192POPC   H3R22164   3.778   5.048   6.853 -1.0709 -1.6446  3.4394
  192POPC   H3S22165   3.599   5.054   6.899 -1.5291 -0.0701 -2.1269
  192POPC   C2422166   3.738   5.161   7.022  0.2053 -0.0597 -0.4376
  192POPC   H4R22167   3.832   5.219   7.013  1.2840 -1.5452  0.7615
  192POPC   H4S22168   3.750   5.075   7.092  0.6403 -0.1110 -0.5761
  192POPC   C2522169   3.630   5.237   7.101 -0.5444 -0.2191 -0.8027
  192POPC   H5R22170   3.538   5.179   7.127 -1.8254  2.0766  0.0851
  192POPC   H5S22171   3.600   5.325   7.040 -1.9556 -0.4284 -0.4546
  192POPC   C2622172   3.677   5.309   7.229 -0.1355  0.1189  0.1665
  192POPC   H6R22173   3.594   5.362   7.281  0.3161 -0.6077  1.6868
  192POPC   H6S22174   3.744   5.393   7.200 -1.1544  0.4881 -1.2230
  192POPC   C2722175   3.752   5.223   7.335  0.2062  0.2058  0.3048
  192POPC   H7R22176   3.816   5.159   7.271  0.3343  0.8280 -0.1931
  192POPC   H7S22177   3.676   5.156   7.381 -0.9887  0.3627 -1.3431
  192POPC   C2822178   3.833   5.301   7.444  0.7944  0.6422  0.1970
  192POPC   H8R22179   3.759   5.366   7.496  0.9859  0.5616  0.5758
  192POPC   H8S22180   3.895   5.375   7.388 -0.4899  2.7819  1.4630
  192POPC   C2922181   3.924   5.224   7.529 -0.3455  0.4010  0.1915
  192POPC   H9122182   4.019   5.184   7.488 -0.7769  1.2357 -1.7275
  192POPC  C21022183   3.899   5.194   7.658  0.0494 -0.1887 -0.0916
  192POPC  H10122184   3.972   5.144   7.723 -0.0416  0.2103  0.3218
  192POPC  C21122185   3.771   5.238   7.729 -0.2357 -0.4907  0.1174
  192POPC  H11R22186   3.692   5.185   7.672 -1.9775  1.6344  0.4240
  192POPC  H11S22187   3.755   5.344   7.699 -0.0016 -0.3544  0.4648
  192POPC  C21222188   3.771   5.217   7.881 -0.0424 -0.3809  0.3993
  192POPC  H12R22189   3.775   5.111   7.913  0.5725 -0.8054 -1.0322
  192POPC  H12S22190   3.679   5.260   7.926 -0.8882 -0.4620 -1.1722
  192POPC  C21322191   3.896   5.270   7.953  0.1829 -0.0775 -0.1580
  192POPC  H13R22192   3.918   5.371   7.912 -0.1157 -0.1267 -0.4540
  192POPC  H13S22193   3.971   5.197   7.914  0.5292 -0.1103  0.5673
  192POPC  C21422194   3.890   5.271   8.110  0.2976  0.5971  0.3791
  192POPC  H14R22195   3.860   5.167   8.133  1.1255  0.3350  0.3069
  192POPC  H14S22196   3.804   5.333   8.144  0.1625  0.8388 -0.3818
  192POPC  C21522197   4.017   5.320   8.180 -0.3934 -0.6017 -0.0550
  192POPC  H15R22198   4.009   5.306   8.290 -0.9929  0.1774  0.0068
  192POPC  H15S22199   4.019   5.431   8.171  1.8546 -0.4925  1.0722
  192POPC  C21622200   4.153   5.271   8.130  0.1418 -0.0171  0.0316
  192POPC  H16R22201   4.167   5.310   8.027  0.0071  2.1550  0.7925
  192POPC  H16S22202   4.163   5.160   8.126 -1.9300 -0.2332 -1.2384
  192POPC  C21722203   4.258   5.338   8.214 -0.4608  0.1506 -0.2503
  192POPC  H17R22204   4.290   5.275   8.299 -0.3523  3.4311  2.3587
  192POPC  H17S22205   4.216   5.431   8.259  1.5687  0.6728  0.6668
  192POPC  C21822206   4.382   5.387   8.131  0.1364 -0.1974 -0.4755
  192POPC  H18R22207   4.371   5.488   8.086 -2.9590 -0.2005  0.0830
  192POPC  H18S22208   4.429   5.320   8.056  2.6170  3.0163 -2.0627
  192POPC  H18T22209   4.466   5.402   8.203 -0.2821  1.1583 -0.2347
  192POPC   C3322210   3.860   5.720   7.061 -0.1625 -0.0919 -0.5284
  192POPC   H3X22211   3.966   5.687   7.072  0.3697  1.4231 -0.8497
  192POPC   H3Y22212   3.789   5.635   7.055  0.3181 -0.4302 -1.7971
  192POPC   C3422213   3.826   5.785   7.191  1.0297 -0.4209 -0.0709
  192POPC   H4X22214   3.738   5.852   7.177  1.5217 -0.2832 -3.4812
  192POPC   H4Y22215   3.906   5.850   7.231  0.0170  0.8753 -0.0988
  192POPC   C3522216   3.790   5.695   7.316  0.1547 -0.3660 -0.2003
  192POPC   H5X22217   3.877   5.631   7.341  0.1778 -0.3307 -0.1896
  192POPC   H5Y22218   3.697   5.638   7.294 -0.2846 -0.2210  1.2073
  192POPC   C3622219   3.768   5.773   7.455  0.7990  0.4988  1.0691
  192POPC   H6X22220   3.678   5.833   7.430 -0.2416 -2.0272 -1.7703
  192POPC   H6Y22221   3.845   5.852   7.470 -2.6833  4.2962  0.6509
  192POPC   C3722222   3.744   5.674   7.568 -0.4971 -0.2715 -0.1730
  192POPC   H7X22223   3.835   5.612   7.582 -1.2160 -1.2222  0.3523
  192POPC   H7Y22224   3.655   5.614   7.537 -0.7413  1.1466 -2.4763
  192POPC   C3822225   3.718   5.757   7.701 -0.8133  0.6818 -0.8502
  192POPC   H8X22226   3.622   5.812   7.696  0.3787  3.3341  2.1099
  192POPC   H8Y22227   3.793   5.839   7.709 -3.0015  2.6780  0.8697
  192POPC   C3922228   3.713   5.658   7.808  0.7951  1.2811  0.1389
  192POPC   H9X22229   3.818   5.625   7.827  0.9979  0.7689 -1.7315
  192POPC   H9Y22230   3.651   5.573   7.773  0.4988  0.7971  1.7432
  192POPC  C31022231   3.647   5.710   7.944 -0.0532 -0.2730  0.4296
  192POPC  H10X22232   3.541   5.737   7.928 -0.8407 -0.6099  4.1890
  192POPC  H10Y22233   3.696   5.806   7.974 -0.6000  0.4396 -0.8626
  192POPC  C31122234   3.665   5.604   8.048  0.4277 -0.2476  0.3906
  192POPC  H11X22235   3.775   5.601   8.065  0.4007 -0.7264  0.4874
  192POPC  H11Y22236   3.633   5.503   8.015  2.3231 -0.4765 -0.9074
  192POPC  C31222237   3.591   5.638   8.181  0.2670  0.1032  0.0471
  192POPC  H12X22238   3.483   5.613   8.192  0.3032 -0.8228 -1.3979
  192POPC  H12Y22239   3.590   5.749   8.180  2.0196  0.1575  0.9585
  192POPC  C31322240   3.663   5.580   8.307  0.2953 -0.4633  0.1010
  192POPC  H13X22241   3.691   5.473   8.299 -0.3665 -0.5607 -1.0671
  192POPC  H13Y22242   3.585   5.592   8.385 -3.5480  0.6015 -3.5519
  192POPC  C31422243   3.796   5.658   8.334  0.0352 -1.0031  0.0478
  192POPC  H14X22244   3.781   5.766   8.314  1.3859 -1.0667 -1.5575
  192POPC  H14Y22245   3.879   5.627   8.268 -0.6521 -1.0307 -0.8226
  192POPC  C31522246   3.831   5.643   8.485  0.0952 -0.2403 -0.0462
  192POPC  H15X22247   3.745   5.683   8.542  0.1075  2.4654 -1.7537
  192POPC  H15Y22248   3.913   5.714   8.509  2.3281 -2.3650 -0.8383
  192POPC  C31622249   3.890   5.514   8.522 -0.5463 -0.5595  0.1625
  192POPC  H16X22250   3.985   5.495   8.467  0.3604 -0.1664  1.5493
  192POPC  H16Y22251   3.812   5.437   8.505 -0.8437 -0.2360  0.0472
  192POPC  H16Z22252   3.928   5.512   8.626 -0.4275 -2.4060  0.1143
  193SOD    SOD22253   4.605   3.872  10.617 -0.0959 -0.0339  0.3435
  194SOD    SOD22254   0.369   1.867  12.791  0.4499 -0.0591 -0.1798
  195SOD    SOD22255   5.170   1.526   3.666 -0.3277 -0.4048 -0.0155
  196SOD    SOD22256   4.645   2.663   4.513 -0.3724  0.3602  0.4785
  197SOD    SOD22257   3.421   2.532   6.107  0.3032  0.1243 -0.1993
  198SOD    SOD22258   3.428   2.852  14.942 -0.3365  0.2565  0.4215
  199SOD    SOD22259   0.650   5.388  10.741  0.2585 -0.2635  0.1785
  200SOD    SOD22260   3.991   6.300   5.620  0.0877  0.0960  0.3641
  201SOD    SOD22261   2.257   2.877  16.704  0.1336 -0.2786  0.1220
  202SOD    SOD22262   6.399   0.381   5.160 -0.2359 -0.0494 -0.3072
  203SOD    SOD22263   5.431   1.396  12.510 -0.2172 -0.3280  0.0902
  204SOD    SOD22264   2.445   1.306  13.435  0.2757  0.9049 -0.1806
  205SOD    SOD22265   3.809   2.637  11.349 -0.0585 -0.2186 -0.1863
  206SOD    SOD22266   1.089   6.175   2.767 -0.3951  0.1472 -0.3588
  207SOD    SOD22267   6.019   2.950  10.779  0.1014 -0.2783  0.1736
  208SOD    SOD22268   0.332   6.477   2.899  0.5131 -0.4172 -0.2195
  209SOD    SOD22269   3.220   4.194  10.877  0.0790 -0.0372  0.0954
  210SOD    SOD22270   6.704   4.111  12.662 -0.0881  1.0248 -0.1086
  211SOD    SOD22271   5.612   6.276  13.532  0.3401 -0.1635  0.2771
  212SOD    SOD22272   3.299   6.669  12.217  0.1190 -0.3515 -0.3264
  213SOD    SOD22273   1.465   0.040  16.896 -0.0174  0.0961  0.1814
  214SOD    SOD22274   1.253   4.426   5.736  0.6476  0.2435 -0.8886
  215SOD    SOD22275   3.550   3.449   4.722  0.1903  0.2400  0.6216
  216SOD    SOD22276   1.285   3.494  13.939  0.2965 -0.1986 -0.3893
  217SOD    SOD22277   4.379   4.008  15.146  0.1309 -0.4318  0.4756
  218SOD    SOD22278   1.093   0.075  11.267 -0.0396 -0.0338  0.1018
  219SOD    SOD22279   2.459   3.600  11.884 -0.1523  0.1626 -0.8603
  220SOD    SOD22280   3.285   1.896  15.869  0.4756  0.0819  0.2139
  221SOD    SOD22281   3.479   3.916  12.488 -0.5612  0.0254  0.0690
  222SOD    SOD22282   2.223   2.898  14.674  0.1054  0.0668  0.4319
  223SOD    SOD22283   3.590   1.588  12.937  0.1025  0.5178  0.1535
  224SOD    SOD22284   2.099   1.758  11.780 -0.3279  0.5549 -0.3733
  225SOD    SOD22285   1.362   6.084  11.811 -0.0005  0.0282  0.4168
  226SOD    SOD22286   5.984   6.599  11.388  0.4659  0.0240  0.1278
  227SOD    SOD22287   6.652   1.682  12.140 -0.2007  0.0776  0.6321
  228SOD    SOD22288   6.230   2.519   5.259 -0.1955 -0.3594 -0.2852
  229SOD    SOD22289   2.178   2.023  15.103  0.3315  0.2433  0.3673
  230SOD    SOD22290   2.234   1.695   1.572 -1.0069  0.2049 -0.2315
  231SOD    SOD22291   4.998   5.857   3.869  0.2570 -0.3187 -0.1995
  232SOD    SOD22292   4.078   4.166   4.550 -0.1066  0.4472  0.3987
  233SOD    SOD22293   1.842   5.799   6.494  0.0963 -0.2544  0.1925
  234SOD    SOD22294   6.267   0.300  14.673 -0.0584  0.2912 -0.2041
  235SOD    SOD22295   5.586   5.208   3.919  0.1721  0.6409 -0.4578
  236SOD    SOD22296   4.249   5.932  13.067  0.2336  0.1419 -0.0907
  237SOD    SOD22297   0.756   6.291   1.067  0.0750  0.1157  0.0047
  238SOD    SOD22298   1.008   0.939  12.673  0.1434 -0.3683  0.0898
  239SOD    SOD22299   3.299   2.825   3.006 -0.2204 -0.3964  0.5338
  240SOD    SOD22300   0.470   3.150  11.600  0.2930 -0.1199  0.0977
  241SOD    SOD22301   2.512   3.506   5.618  0.1753  0.0569 -0.1609
  242SOD    SOD22302   0.190   4.257  16.029  0.1955  0.0086  0.2650
  243SOD    SOD22303   2.797   1.787   5.656 -0.1747  0.2236  0.2793
  244SOD    SOD22304   2.024   6.611   5.819  0.4972  0.2492  0.1200
  245SOD    SOD22305   2.015   1.415   4.699  0.4648 -0.4576  0.2338
  246SOD    SOD22306   3.607   0.219   4.765  0.5225 -0.2153 -0.0085
  247SOD    SOD22307   4.218   2.342   0.617 -0.1251 -0.3810  0.1868
  248SOD    SOD22308   0.931   4.673  10.908 -0.3774 -0.2323 -0.0802
  249SOD    SOD22309   0.695   0.594   6.408 -0.2518 -0.3644 -0.2515
  250SOD    SOD22310   5.308   1.806  11.386 -0.1011 -0.3086 -0.0817
  251SOD    SOD22311   0.786   1.132  17.074  0.5537  0.6669  0.1245
  252SOD    SOD22312   2.741   2.436  11.378 -0.3399  0.3953  0.5108
  253SOD    SOD22313   1.858   2.202   5.966 -0.1438  0.1824 -0.0913
  254SOD    SOD22314   2.717   5.824  12.854 -0.4132 -0.7440 -0.2430
  255SOD    SOD22315   5.212   2.823  13.441 -0.0851  0.4855  0.3593
  256SOD    SOD22316   4.939   0.663   6.670 -0.0772  0.4627 -0.2397
  257SOD    SOD22317   4.192   0.934  16.446  0.0509 -0.7866 -0.0471
  258SOD    SOD22318   1.029   5.775   1.108 -0.2573 -0.1000  0.3328
  259SOD    SOD22319   0.357   4.160  11.572 -0.5199 -0.2310  0.1449
  260SOD    SOD22320   0.397   6.314  12.829  0.3793 -0.4106  0.1469
  261SOD    SOD22321   0.608   0.888  14.147  0.4110  0.1198  0.4262
  262SOD    SOD22322   4.081   2.595   0.196  0.4835 -0.0968 -0.2507
  263SOD    SOD22323   1.040   1.757   5.727 -0.6821 -0.4445 -0.2357
  264SOD    SOD22324   5.806   2.970   0.160 -0.1610  0.3017  0.2407
  265SOD    SOD22325   3.361   4.548   0.635  0.3425 -0.2274 -0.1159
  266SOD    SOD22326   3.007   4.439  14.512  0.2532 -0.1266  0.3145
  267SOD    SOD22327   5.585   5.721  11.413 -0.0976 -0.3345  0.0084
  268SOD    SOD22328   2.973   0.355   6.183 -0.2218 -0.4148  0.3232
  269SOD    SOD22329   3.551   4.996  13.585  0.3905  0.4647  0.2832
  270CLA    CLA22330   3.897   6.676  14.273 -0.1539 -0.2788  0.0600
  271CLA    CLA22331   3.360   3.519  12.626 -0.0345  0.5074  0.4065
  272CLA    CLA22332   1.883   3.240  16.477  0.7246 -0.1517  0.2798
  273CLA    CLA22333   3.233   2.105   2.499 -0.0433  0.0503 -0.1138
  274CLA    CLA22334   2.126   0.549   3.788  0.4006 -0.1234  0.0481
  275CLA    CLA22335   1.489   0.998   0.370  0.1774  0.4738 -0.3380
  276CLA    CLA22336   0.631   2.675  14.404  0.3649 -0.3246 -0.0754
  277CLA    CLA22337   2.657   2.596  16.700 -0.2145 -0.2490  0.2341
  278CLA    CLA22338   1.497   5.266   1.418  0.1088 -0.1365 -0.1024
  279CLA    CLA22339   0.889   0.297  15.319 -0.0954 -0.0279 -0.4198
  280CLA    CLA22340   5.593   4.820  12.792 -0.3364 -0.1350 -0.0211
  281CLA    CLA22341   1.457   2.848  14.951  0.3924 -0.1783 -0.0947
  282CLA    CLA22342   0.019   0.702   0.368  0.1887  0.1560  0.2178
  283CLA    CLA22343   3.156   0.320   5.147 -0.2017  0.0383  0.0185
  284CLA    CLA22344   0.389   6.197   4.019  0.1120  0.4465  0.1585
  285CLA    CLA22345   0.785   6.352  14.048  0.1944  0.0309 -0.0785
  286CLA    CLA22346   4.436   6.727   3.569  0.1407 -0.3475  0.2426
  287CLA    CLA22347   1.548   2.739  13.190 -0.3554  0.2833  0.4695
  288CLA    CLA22348   0.045   4.717  11.530 -0.3286 -0.2836  0.7794
  289CLA    CLA22349   4.454   0.858  14.580 -0.2363 -0.0958 -0.2694
  290CLA    CLA22350   2.772   2.954  14.718  0.3954 -0.0139 -0.0851
  291CLA    CLA22351   2.685   5.935  14.051 -0.3401  0.2153 -0.3574
  292CLA    CLA22352   4.264   1.300   5.412  0.0599  0.3356 -0.3051
  293CLA    CLA22353   1.799   0.049  13.683 -0.0853  0.1347 -0.1537
  294CLA    CLA22354   1.013   5.055  16.966  0.0513 -0.0750 -0.2040
  295CLA    CLA22355   2.216   4.271  14.609  0.2572  0.1998  0.1381
  296CLA    CLA22356   2.516   5.990  16.821 -0.1927 -0.3070 -0.2168
  297CLA    CLA22357   1.318   0.504  11.817  0.1246  0.4324 -0.3853
  298CLA    CLA22358   3.157   3.603   1.442 -0.2758 -0.1830 -0.3090
  299CLA    CLA22359   4.346   2.022  12.013 -0.0341 -0.0876  0.1581
  300CLA    CLA22360   1.006   0.905   0.208 -0.4073 -0.4614 -0.4821
  301CLA    CLA22361   5.041   6.241   3.284 -0.0852  0.2958  0.0109
  302CLA    CLA22362   6.227   4.031  12.602 -0.1087  0.2877  0.3673
  303CLA    CLA22363   1.562   1.658  13.179  0.1340 -0.3269 -0.1205
  304CLA    CLA22364   0.549   3.490  11.700  0.7655  0.2863 -0.1224
  305CLA    CLA22365   5.983   5.194  13.312 -0.1192 -0.1725  0.4078
  306CLA    CLA22366   0.726   4.763   1.104 -0.0654  0.1705  0.1403
  307CLA    CLA22367   1.584   2.225   4.967  0.2043  0.4556  0.0704
  308CLA    CLA22368   1.478   0.756  12.774 -0.1944  0.2042  0.0930
  309CLA    CLA22369   5.761   1.410   3.795 -0.1518  0.2877  0.0357
  310CLA    CLA22370   3.616   1.400  13.449 -0.1348  0.3758 -0.0898
  311CLA    CLA22371   3.221   3.735  13.745  0.6286 -0.3188  0.3418
  312CLA    CLA22372   5.022   6.638  13.382  0.3607 -0.1687  0.0508
  313CLA    CLA22373   3.664   1.162   0.359 -0.1260 -0.3536 -0.1857
  314CLA    CLA22374   4.541   4.430  15.804  0.1714 -0.1804 -0.2575
  315CLA    CLA22375   5.778   0.412  14.596  0.6946 -0.3704  0.0198
  316CLA    CLA22376   4.538   5.311   5.887  0.1225  0.2517 -0.0932
  317CLA    CLA22377   2.066   3.106   4.424  0.3342  0.2492 -0.1505
  318CLA    CLA22378   5.277   5.565   5.010 -0.0380 -0.0175 -0.2034
  319CLA    CLA22379   4.273   2.082   2.108  0.1450  0.2526 -0.1691
  320CLA    CLA22380   0.233   0.742  15.117 -0.2696  0.2543 -0.5202
  321CLA    CLA22381   0.047   2.161  15.699 -0.1495 -0.7671 -0.6176
  322CLA    CLA22382   1.152   4.902  11.023  0.5353 -0.0575  0.1417
  323TIP3   OH222383   2.201   4.316   0.983 -0.2662  0.2872  0.6118
  323TIP3    H122384   2.200   4.290   1.075 -2.6758  0.7979  0.8070
  323TIP3    H222385   2.224   4.409   0.984 -2.4045  0.8762  0.9805
  324TIP3   OH222386   2.996   5.711   3.514 -0.9067 -0.1962  0.0189
  324TIP3    H122387   2.971   5.679   3.600 -0.9703  0.2520  0.1653
  324TIP3    H222388   3.091   5.698   3.510 -0.9301 -0.3946  0.0774
  325TIP3   OH222389   6.023   0.136  17.164  0.3465 -0.6096  0.3728
  325TIP3    H122390   6.011   0.190  17.086 -0.1115 -0.9322  0.2151
  325TIP3    H222391   5.938   0.140  17.209  0.3385 -1.1212  0.4076
  326TIP3   OH222392   4.311   6.442   2.061 -0.2044  0.5411  0.0895
  326TIP3    H122393   4.370   6.515   2.040  1.8557 -0.9574  0.3511
  326TIP3    H222394   4.333   6.419   2.152  0.3166 -1.3858 -0.4832
  327TIP3   OH222395   5.859   3.663  12.691 -0.0267 -0.8739  0.2266
  327TIP3    H122396   5.770   3.629  12.701 -0.3460  0.1988  1.4872
  327TIP3    H222397   5.867   3.683  12.598 -0.9033 -1.5271 -0.0005
  328TIP3   OH222398   3.654   5.119   6.408 -0.1491 -0.6478 -0.1879
  328TIP3    H122399   3.740   5.139   6.445 -0.8890  2.8245 -0.0953
  328TIP3    H222400   3.652   5.165   6.325 -1.2963 -2.2081 -1.0810
  329TIP3   OH222401   3.187   5.351   1.375 -0.0837  0.0800 -0.1555
  329TIP3    H122402   3.274   5.316   1.390  0.2948  1.2046  0.4505
  329TIP3    H222403   3.150   5.297   1.306  1.1216 -0.3722 -0.4668
  330TIP3   OH222404   3.173   0.931  15.197  0.4384 -0.2238  0.9106
  330TIP3    H122405   3.111   0.981  15.251  1.2849 -0.9236  2.6002
  330TIP3    H222406   3.120   0.862  15.157  0.1362 -1.0268  2.6062
  331TIP3   OH222407   5.380   2.814  16.734 -0.0598 -0.1527  0.2234
  331TIP3    H122408   5.365   2.746  16.800  0.6120 -0.9713 -0.4364
  331TIP3    H222409   5.308   2.803  16.672  0.9898 -1.4638 -0.8266
  332TIP3   OH222410   0.289   4.082  15.436  0.2424  0.0502  0.0734
  332TIP3    H122411   0.240   4.034  15.503  0.6702  1.9427  1.8039
  332TIP3    H222412   0.361   4.023  15.413  0.4421 -0.4074  1.7325
  333TIP3   OH222413   1.183   1.102   5.313  0.0631 -0.4622  0.9495
  333TIP3    H122414   1.220   1.042   5.379  2.1458 -1.1914 -0.7549
  333TIP3    H222415   1.248   1.172   5.306 -0.5761  0.0744  0.3077
  334TIP3   OH222416   5.133   2.288   4.023  0.0283  0.0173 -0.1885
  334TIP3    H122417   5.185   2.244   4.090  0.2806  0.3251 -0.1809
  334TIP3    H222418   5.171   2.259   3.940  0.6717  0.7854 -0.1748
  335TIP3   OH222419   5.596   4.061  17.173  0.2966  0.4655  0.3968
  335TIP3    H122420   5.589   4.140  17.119 -1.6168 -0.1598 -0.3673
  335TIP3    H222421   5.663   4.081  17.237  1.3726  1.9180 -1.1090
  336TIP3   OH222422   0.866   0.647   4.899  0.4560 -0.3577  0.0096
  336TIP3    H122423   0.802   0.717   4.890  0.7268 -0.0654  0.3221
  336TIP3    H222424   0.917   0.670   4.977  2.5651  0.7366 -1.6007
  337TIP3   OH222425   0.473   6.608   0.673 -0.1213 -0.0516  0.1706
  337TIP3    H122426   0.415   6.559   0.616  1.6537  0.2100 -1.9998
  337TIP3    H222427   0.431   6.694   0.682 -1.2049 -0.6158  0.6013
  338TIP3   OH222428   5.464   3.938  15.212 -0.0502 -0.1761  0.4368
  338TIP3    H122429   5.548   3.967  15.178  0.3450 -1.0885  0.6134
  338TIP3    H222430   5.425   4.017  15.249  0.1658  0.5188 -0.7616
  339TIP3   OH222431   5.470   0.912   0.317  0.5438  0.0845 -0.0560
  339TIP3    H122432   5.503   0.886   0.403 -1.8605  1.7991  1.5295
  339TIP3    H222433   5.526   0.985   0.290 -0.6165  1.7531  1.7313
  340TIP3   OH222434   5.765   5.196   0.000 -0.3242  0.7432 -0.1678
  340TIP3    H122435   5.802   5.187   0.088 -1.6041  2.6057  0.6184
  340TIP3    H222436   5.810   5.129  -0.051 -0.5478 -1.3608  2.1885
  341TIP3   OH222437   1.289   1.742  16.036 -0.3418  0.1047 -0.4685
  341TIP3    H122438   1.337   1.793  16.101  2.7034 -0.7091 -1.9183
  341TIP3    H222439   1.232   1.686  16.088  0.4863  0.8980  1.3948
  342TIP3   OH222440   2.763   2.685  12.014 -0.0109 -0.4482 -0.4659
  342TIP3    H122441   2.859   2.688  12.021  0.0510  3.0289 -1.2418
  342TIP3    H222442   2.732   2.724  12.095 -0.5690  1.9272 -1.7481
  343TIP3   OH222443   2.621   4.788   0.330  0.3817  0.5706 -0.1571
  343TIP3    H122444   2.661   4.703   0.313 -0.7310 -0.4337  1.8329
  343TIP3    H222445   2.538   4.786   0.281  0.1854  0.3578  0.1840
  344TIP3   OH222446   5.606   1.965   5.713 -0.4901  0.6465  0.8266
  344TIP3    H122447   5.568   1.893   5.662 -2.9160  0.2268  3.0109
  344TIP3    H222448   5.678   1.924   5.760 -0.3151  0.2583  0.2434
  345TIP3   OH222449   2.625   3.517   2.508 -0.5525 -0.3621  0.9162
  345TIP3    H122450   2.708   3.549   2.542  0.9243 -2.6498 -0.2479
  345TIP3    H222451   2.594   3.455   2.575  0.7598 -2.4604 -0.2802
  346TIP3   OH222452   5.710   1.831   2.608 -0.7694 -0.0277  0.1672
  346TIP3    H122453   5.710   1.810   2.515  0.3563 -0.8987  0.3343
  346TIP3    H222454   5.798   1.867   2.624 -0.6367 -0.7055  1.0485
  347TIP3   OH222455   3.654   5.110  17.026 -0.4490  0.1026 -0.2984
  347TIP3    H122456   3.701   5.094  16.944  1.9438  1.0024  0.8213
  347TIP3    H222457   3.634   5.023  17.060  0.8117 -0.3228 -0.6117
  348TIP3   OH222458   0.125   1.689  14.718  0.2871  0.7154 -0.5563
  348TIP3    H122459   0.037   1.718  14.696  0.6474  0.8163 -1.9281
  348TIP3    H222460   0.131   1.702  14.813 -0.6287  2.1696 -0.6644
  349TIP3   OH222461   1.091   6.190  16.912  0.1782 -0.9040 -0.4792
  349TIP3    H122462   1.032   6.121  16.940 -1.0453  0.2696 -0.0241
  349TIP3    H222463   1.044   6.271  16.932  1.7981  0.0778 -0.4425
  350TIP3   OH222464   3.737   6.741  11.839  0.3791  0.4733  0.1217
  350TIP3    H122465   3.678   6.797  11.889  2.5374  3.6480 -0.6074
  350TIP3    H222466   3.813   6.729  11.896  0.4044 -0.9401 -0.1607
  351TIP3   OH222467   0.006   2.121   2.763  0.1475  0.0029 -0.1990
  351TIP3    H122468   0.087   2.158   2.798 -0.1024  0.7642 -0.3941
  351TIP3    H222469  -0.062   2.147   2.826 -0.0978  0.2574 -0.5592
  352TIP3   OH222470   4.273   6.302   2.316 -0.0949 -0.0733  0.0520
  352TIP3    H122471   4.219   6.270   2.388  0.7976  1.0606  1.2701
  352TIP3    H222472   4.295   6.223   2.266 -1.0816 -0.8245  0.7478
  353TIP3   OH222473   4.538   5.994   2.095  0.0534 -0.2373 -0.4814
  353TIP3    H122474   4.560   6.034   2.011  0.2021  2.6322  0.8071
  353TIP3    H222475   4.443   6.004   2.102 -0.0846 -1.3313 -0.6972
  354TIP3   OH222476   6.124   3.226   5.166  0.0123 -0.2133 -0.4674
  354TIP3    H122477   6.060   3.179   5.112 -1.3546 -0.2258  1.0729
  354TIP3    H222478   6.071   3.284   5.221  1.3605  0.0627  0.5957
  355TIP3   OH222479   2.919   6.139   1.489 -0.1598  0.2543  0.5327
  355TIP3    H122480   2.897   6.092   1.408  1.6571 -0.2622  0.2992
  355TIP3    H222481   2.989   6.087   1.528  0.5368  1.7136  1.2988
  356TIP3   OH222482   0.724   6.362   5.665 -0.4263 -0.2104 -0.0124
  356TIP3    H122483   0.755   6.276   5.696 -0.7855 -0.5811 -0.6527
  356TIP3    H222484   0.803   6.407   5.635 -0.3403 -0.6618 -0.4791
  357TIP3   OH222485   4.592   6.381   5.787 -0.1707 -0.2212 -0.6131
  357TIP3    H122486   4.622   6.333   5.863  1.8522  0.0697 -1.1734
  357TIP3    H222487   4.559   6.464   5.822 -1.3981 -0.9911  0.1172
  358TIP3   OH222488   0.496   3.923   0.079 -0.2751  0.3124 -0.3545
  358TIP3    H122489   0.529   3.943   0.167  1.3739 -0.9038 -0.6467
  358TIP3    H222490   0.444   4.000   0.055 -2.8181 -0.2904  2.5872
  359TIP3   OH222491   3.926   3.221   3.930  0.3908 -0.2739 -0.0023
  359TIP3    H122492   3.850   3.264   3.968 -0.4625 -0.7137 -1.1402
  359TIP3    H222493   3.992   3.222   3.999 -0.0001  1.7627  0.3997
  360TIP3   OH222494   4.149   1.942   4.759 -0.3926  0.3620  0.2221
  360TIP3    H122495   4.086   1.998   4.805 -1.2555  2.4642 -3.1940
  360TIP3    H222496   4.095   1.882   4.707  0.4476  0.3815 -0.7079
  361TIP3   OH222497   4.885   1.575   0.045 -0.0724  0.0411  0.0164
  361TIP3    H122498   4.887   1.658   0.093 -1.7146  0.5200 -0.6351
  361TIP3    H222499   4.938   1.592  -0.033 -1.4778  0.9797 -0.7797
  362TIP3   OH222500   0.470   6.483  13.847  0.3921  0.0163  0.2896
  362TIP3    H122501   0.482   6.574  13.875  0.6952  0.1010 -0.1058
  362TIP3    H222502   0.547   6.464  13.793  0.3413 -0.4827  0.3850
  363TIP3   OH222503   4.485   4.384  13.559 -0.1075  0.1636  0.4864
  363TIP3    H122504   4.485   4.440  13.481 -2.1260  0.9908  1.0246
  363TIP3    H222505   4.429   4.311  13.536 -0.3247  0.1638  1.0034
  364TIP3   OH222506   5.863   0.686  12.788 -0.8164  0.5468  0.0004
  364TIP3    H122507   5.910   0.669  12.706 -0.4971  0.9514  0.0966
  364TIP3    H222508   5.845   0.780  12.787 -1.0905  0.5004  0.2495
  365TIP3   OH222509   3.335   2.439  16.861  0.5519 -0.7648  0.0242
  365TIP3    H122510   3.299   2.484  16.937  0.3033  0.0901 -0.5858
  365TIP3    H222511   3.373   2.358  16.896 -0.6700 -0.9832  0.8726
  366TIP3   OH222512   3.936   6.705  12.018 -0.5396 -0.0933 -0.3973
  366TIP3    H122513   4.012   6.699  11.959 -0.3186 -0.0987 -0.1131
  366TIP3    H222514   3.971   6.743  12.098 -0.5428 -1.3888  0.2409
  367TIP3   OH222515   4.465   3.159   5.821 -0.2743 -0.1382 -0.3905
  367TIP3    H122516   4.514   3.098   5.876  0.9137  1.9199  1.0116
  367TIP3    H222517   4.433   3.225   5.883 -0.5122  1.2728 -1.9511
  368TIP3   OH222518   1.510   6.433  16.157  0.0500 -0.5193  0.0503
  368TIP3    H122519   1.492   6.524  16.133 -1.3335 -1.1068 -1.3422
  368TIP3    H222520   1.581   6.438  16.221  0.3212  1.4987 -0.3515
  369TIP3   OH222521   0.495   2.105  11.612  0.2821  0.3710 -0.2978
  369TIP3    H122522   0.460   2.087  11.525  1.0906 -1.7600 -0.2513
  369TIP3    H222523   0.425   2.078  11.672  0.7143 -0.7133 -0.2635
  370TIP3   OH222524   5.084   4.567   3.756  0.0032 -0.1672 -0.1219
  370TIP3    H122525   5.118   4.486   3.793  1.7878  0.8716  0.6135
  370TIP3    H222526   5.072   4.548   3.663 -1.5226 -1.8442  0.3618
  371TIP3   OH222527   2.713   6.357  16.287  0.3310 -0.4641  0.2108
  371TIP3    H122528   2.753   6.276  16.254  2.3618  0.4022  0.3980
  371TIP3    H222529   2.716   6.417  16.213  1.0838  0.1841  0.7547
  372TIP3   OH222530   1.573   4.325   6.659 -0.1322 -0.6666 -0.0733
  372TIP3    H122531   1.530   4.265   6.720 -0.9074 -0.7440 -0.6860
  372TIP3    H222532   1.650   4.277   6.628  0.4616 -0.4962  1.0851
  373TIP3   OH222533   3.772   0.166   4.915 -0.7348 -0.4953  0.6880
  373TIP3    H122534   3.850   0.126   4.876 -1.2944 -0.9719  0.0418
  373TIP3    H222535   3.790   0.166   5.009  0.5080  0.4046  0.4722
  374TIP3   OH222536   6.319   5.188  15.641 -0.2016 -0.4554  0.7905
  374TIP3    H122537   6.241   5.154  15.597  0.0680  1.0062 -0.9410
  374TIP3    H222538   6.370   5.229  15.571  0.8378  0.9537  2.2976
  375TIP3   OH222539   4.945   0.472   4.546  0.8120 -0.1828  0.3575
  375TIP3    H122540   5.034   0.488   4.515  1.0149 -0.2422  0.8849
  375TIP3    H222541   4.953   0.395   4.603 -0.0796 -2.0177 -1.8684
  376TIP3   OH222542   1.124   6.152   5.006  0.2910  0.1189  0.0386
  376TIP3    H122543   1.102   6.155   4.913 -1.6681 -0.6874  0.4180
  376TIP3    H222544   1.091   6.235   5.041  1.4411  0.6287 -0.0281
  377TIP3   OH222545   1.930   0.787  12.752 -0.2419  0.2532 -0.4735
  377TIP3    H122546   1.892   0.816  12.835 -1.7048  1.4255 -1.5138
  377TIP3    H222547   2.025   0.788  12.768 -0.4932  0.0318  1.2954
  378TIP3   OH222548   2.203   5.366  15.044 -0.1566  0.4264 -0.5491
  378TIP3    H122549   2.221   5.295  15.105  1.4188  0.5298 -0.8625
  378TIP3    H222550   2.254   5.345  14.966 -1.0385  1.0184 -1.3107
  379TIP3   OH222551   4.194   1.093  14.198 -0.5009 -0.1442  0.0801
  379TIP3    H122552   4.222   1.002  14.199 -0.3169 -0.0901  0.0200
  379TIP3    H222553   4.145   1.105  14.280 -2.8496 -0.9976 -1.1311
  380TIP3   OH222554   6.026   2.134   5.946  0.2227 -0.4983  0.2882
  380TIP3    H122555   5.960   2.086   5.995 -0.7885  0.5841  0.0373
  380TIP3    H222556   5.998   2.226   5.952 -1.2300 -0.4232 -4.0387
  381TIP3   OH222557   1.056   3.254   1.857  0.1166 -0.0330  0.3627
  381TIP3    H122558   1.080   3.200   1.781 -1.4983 -0.4466  0.1245
  381TIP3    H222559   0.978   3.301   1.830  0.0905  0.5731  1.4411
  382TIP3   OH222560   2.211   4.821   2.059  0.5905 -0.6305  0.2968
  382TIP3    H122561   2.256   4.745   2.097  0.7783  0.3359  2.1172
  382TIP3    H222562   2.130   4.828   2.109 -0.7324 -1.1756 -1.6565
  383TIP3   OH222563   0.028   0.962   4.904 -0.0494  0.0583 -0.0337
  383TIP3    H122564  -0.049   1.010   4.934 -0.6674 -0.1063 -1.3118
  383TIP3    H222565   0.022   0.877   4.948  0.5463  0.7575  1.4899
  384TIP3   OH222566   4.937   2.235  12.484  0.6387 -0.0183  0.4505
  384TIP3    H122567   4.918   2.251  12.577  2.6039 -0.7568  1.0244
  384TIP3    H222568   4.950   2.323  12.448  0.3452  0.2479  0.9687
  385TIP3   OH222569   2.946   1.819   3.984  0.2734 -0.3875 -0.1002
  385TIP3    H122570   2.969   1.803   3.892  0.6301 -0.6658  0.0363
  385TIP3    H222571   2.865   1.771   3.997 -1.2959  1.8443 -1.0132
  386TIP3   OH222572   3.340   0.708  14.278 -0.1116 -0.8030 -0.6695
  386TIP3    H122573   3.292   0.638  14.233 -2.0182  0.1376 -0.2012
  386TIP3    H222574   3.427   0.706  14.239 -0.9072 -1.7458 -2.5253
  387TIP3   OH222575   3.236   5.207  12.242  0.4704 -0.1263 -0.2778
  387TIP3    H122576   3.263   5.259  12.318  1.4103  0.7489 -1.1960
  387TIP3    H222577   3.151   5.171  12.267  1.3024 -0.8863  1.6979
  388TIP3   OH222578   1.007   6.049  15.412  0.3576 -0.4867  0.2558
  388TIP3    H122579   1.031   6.092  15.493 -0.5136 -0.5389  0.5546
  388TIP3    H222580   0.912   6.042  15.416 -0.1329  2.6027 -2.2845
  389TIP3   OH222581   5.139   2.825  14.047 -0.2151 -0.4451  0.0039
  389TIP3    H122582   5.235   2.822  14.044 -0.0934  1.3246  1.1415
  389TIP3    H222583   5.113   2.733  14.039  1.5523 -0.9486 -0.5262
  390TIP3   OH222584   0.712   0.204  14.994 -0.0459  0.5093  0.6290
  390TIP3    H122585   0.656   0.134  14.961 -0.2233  1.3824 -1.0414
  390TIP3    H222586   0.675   0.227  15.079 -1.3193  0.0664  0.2180
  391TIP3   OH222587   3.615   1.602  13.225 -0.4628 -0.0322 -0.3275
  391TIP3    H122588   3.646   1.678  13.275 -1.1255  1.3260 -1.8512
  391TIP3    H222589   3.602   1.534  13.290  0.1779  1.1597  1.1171
  392TIP3   OH222590   4.696   4.532  13.657  0.4609  0.8441 -0.1769
  392TIP3    H122591   4.730   4.444  13.671 -1.1799  0.2457  0.2326
  392TIP3    H222592   4.605   4.519  13.632 -0.1234  2.4591  0.9577
  393TIP3   OH222593   5.143   2.707  14.466  0.1377  0.4823  0.1736
  393TIP3    H122594   5.049   2.694  14.451 -0.0141  2.0358 -0.4389
  393TIP3    H222595   5.185   2.658  14.395 -0.4660  4.5180 -3.3406
  394TIP3   OH222596   2.742   5.799   3.664  0.0332 -0.1669  0.0271
  394TIP3    H122597   2.706   5.802   3.575  0.1516 -0.5922 -0.0350
  394TIP3    H222598   2.780   5.712   3.672  3.7948  1.1714 -1.0310
  395TIP3   OH222599   6.754   2.410  10.285  0.4618  0.4380  0.0856
  395TIP3    H122600   6.750   2.497  10.325  0.3720  0.6406 -0.3637
  395TIP3    H222601   6.846   2.385  10.292  0.2603 -0.0099  1.4352
  396TIP3   OH222602   6.713   6.252   5.876 -0.0351  0.4637 -0.0314
  396TIP3    H122603   6.698   6.333   5.828 -2.1619  0.1486  0.0026
  396TIP3    H222604   6.670   6.185   5.823  2.0622 -0.7848 -0.2955
  397TIP3   OH222605   0.063   5.620   2.509  0.0233  0.5458 -0.5404
  397TIP3    H122606   0.130   5.654   2.449  0.2516  0.1804 -0.4968
  397TIP3    H222607   0.033   5.697   2.557 -0.6095  0.9477 -1.5583
  398TIP3   OH222608   1.246   0.130   2.528  0.2576 -0.5521  0.4491
  398TIP3    H122609   1.226   0.196   2.461  2.4176  0.4032  0.6443
  398TIP3    H222610   1.242   0.178   2.611 -0.9649 -1.3811  0.8829
  399TIP3   OH222611   5.559   0.759   1.413 -0.1769 -0.1243 -0.1208
  399TIP3    H122612   5.643   0.741   1.373 -0.1575 -0.4537  0.0686
  399TIP3    H222613   5.578   0.769   1.507 -0.7323 -3.1449  0.4157
  400TIP3   OH222614   6.602   4.932  16.157  0.6018  0.0917 -0.3258
  400TIP3    H122615   6.594   4.994  16.085 -0.3968  0.5119  0.1344
  400TIP3    H222616   6.602   4.986  16.236 -0.8349 -0.5072  0.1155
  401TIP3   OH222617   4.162   6.679  14.092 -0.0310  0.3976  0.4340
  401TIP3    H122618   4.171   6.756  14.036 -1.2052 -0.1289 -0.5482
  401TIP3    H222619   4.076   6.688  14.132 -0.1885 -0.3973  0.2964
  402TIP3   OH222620   6.668   2.620  12.906 -0.0709  0.0367  0.1732
  402TIP3    H122621   6.648   2.527  12.897 -1.0279  0.2267  0.2349
  402TIP3    H222622   6.658   2.638  13.000  1.5367 -0.1041  0.3910
  403TIP3   OH222623   5.375   3.912   1.158 -0.0134  0.1278 -0.4606
  403TIP3    H122624   5.454   3.934   1.207 -0.1023  1.4494 -0.8829
  403TIP3    H222625   5.304   3.922   1.222  0.1476 -1.3873  0.0135
  404TIP3   OH222626   1.334   5.221   3.583 -0.2979  0.4114  0.5081
  404TIP3    H122627   1.372   5.151   3.636 -0.4644 -0.6992 -0.7754
  404TIP3    H222628   1.349   5.193   3.492 -1.2333  1.5695 -0.0370
  405TIP3   OH222629   2.505   5.526   4.488  0.2428 -0.1863  0.2606
  405TIP3    H122630   2.562   5.581   4.541  1.5688  0.0754 -1.3641
  405TIP3    H222631   2.425   5.516   4.541  0.5455  2.0283  1.2385
  406TIP3   OH222632   6.424   6.558   0.871  0.4348 -0.2301  0.0107
  406TIP3    H122633   6.348   6.588   0.821  0.7881 -0.3549 -0.6142
  406TIP3    H222634   6.424   6.612   0.950 -1.1033 -1.1520  0.7020
  407TIP3   OH222635   6.593   2.930   0.318 -1.1543 -0.4642  0.5173
  407TIP3    H122636   6.591   2.941   0.223  1.2005 -1.4412  0.2796
  407TIP3    H222637   6.515   2.975   0.350 -1.0517  1.4422 -1.7232
  408TIP3   OH222638   6.100   5.996  13.451  0.0047 -0.2615  0.2156
  408TIP3    H122639   6.020   5.966  13.409 -0.6606  0.6847  0.7510
  408TIP3    H222640   6.070   6.039  13.531  0.7441  2.6972 -0.9444
  409TIP3   OH222641   4.218   2.857  12.512 -0.4348  0.0922 -0.0328
  409TIP3    H122642   4.139   2.806  12.492 -0.4279  0.6577 -1.6476
  409TIP3    H222643   4.285   2.821  12.453  0.5556 -0.3994  1.3321
  410TIP3   OH222644   6.176   1.353   4.677  0.2440 -0.1167 -0.2639
  410TIP3    H122645   6.180   1.436   4.629  1.0050  0.8070  1.3312
  410TIP3    H222646   6.228   1.292   4.624 -1.7373 -0.1200 -2.3572
  411TIP3   OH222647   3.623   4.380  15.678 -0.5316 -0.0702  0.3567
  411TIP3    H122648   3.668   4.299  15.706  1.1520  0.5120 -0.5008
  411TIP3    H222649   3.637   4.441  15.751  2.1366  0.8157 -0.7561
  412TIP3   OH222650   6.242   4.410   3.087  0.0730 -0.2134  0.1954
  412TIP3    H122651   6.225   4.335   3.030 -0.0375 -0.1941  0.2023
  412TIP3    H222652   6.296   4.468   3.035 -1.8431  0.8408 -0.7214
  413TIP3   OH222653   2.171   4.481  15.591 -0.0109  0.7070 -0.0737
  413TIP3    H122654   2.229   4.554  15.611 -0.3621  0.1856  3.5153
  413TIP3    H222655   2.228   4.404  15.591 -0.1505  0.6035 -0.2045
  414TIP3   OH222656   5.758   1.844   5.070  0.4092  0.2692  0.6033
  414TIP3    H122657   5.838   1.816   5.115  0.4370 -0.9922 -0.1781
  414TIP3    H222658   5.688   1.793   5.110  0.5315 -1.4353 -1.2010
  415TIP3   OH222659   3.636   2.275  15.238 -0.4692 -0.5172  0.7591
  415TIP3    H122660   3.620   2.283  15.332  0.9057 -0.9482  1.0533
  415TIP3    H222661   3.693   2.198  15.230 -1.6341 -1.2865 -0.5679
  416TIP3   OH222662   4.215   4.815   4.675 -0.5554 -0.2686  0.0767
  416TIP3    H122663   4.187   4.738   4.626  0.1016  0.0239 -0.7869
  416TIP3    H222664   4.311   4.812   4.672 -0.5127  0.9761 -0.6334
  417TIP3   OH222665   4.543   6.428   3.299  0.4620 -0.4179 -0.4086
  417TIP3    H122666   4.508   6.390   3.218  0.7966 -0.4502 -0.5413
  417TIP3    H222667   4.466   6.442   3.355  0.0537  0.8614 -1.2423
  418TIP3   OH222668   0.303   2.555  14.650 -0.2221  0.3147  0.6581
  418TIP3    H122669   0.318   2.649  14.635 -2.9725  0.5764 -1.2616
  418TIP3    H222670   0.362   2.533  14.722  3.4815  2.5489 -1.3377
  419TIP3   OH222671   2.303   6.757  12.498 -0.2979 -0.6368 -0.2947
  419TIP3    H122672   2.263   6.776  12.583 -0.3411  1.7709 -0.7549
  419TIP3    H222673   2.349   6.838  12.476 -0.5152 -1.0969 -2.6658
  420TIP3   OH222674   6.280   6.396   0.597 -0.1896  0.1911  0.3373
  420TIP3    H122675   6.223   6.457   0.645 -0.6120 -0.1284  0.2396
  420TIP3    H222676   6.296   6.325   0.659 -0.5920 -0.1365  0.0664
  421TIP3   OH222677   2.787   1.989  11.398 -0.2297 -0.0974 -0.1084
  421TIP3    H122678   2.882   1.981  11.397  0.0413  1.8628  1.8771
  421TIP3    H222679   2.755   1.900  11.381  1.9142 -0.7312 -1.1370
  422TIP3   OH222680   3.401   6.472  12.617  0.0731 -0.9517  0.2541
  422TIP3    H122681   3.313   6.474  12.654 -0.0923 -0.6803 -0.1438
  422TIP3    H222682   3.448   6.408  12.671 -0.0350 -0.2637  1.1953
  423TIP3   OH222683   1.811   5.992   3.644 -0.4421 -0.1322  0.1477
  423TIP3    H122684   1.740   5.979   3.581 -0.1561 -0.0235 -0.2053
  423TIP3    H222685   1.829   6.086   3.639  1.5969 -0.5387 -1.8515
  424TIP3   OH222686   3.039   4.201  14.581  0.0598  0.2780 -0.1958
  424TIP3    H122687   3.085   4.144  14.519 -0.5441 -1.0927  0.5703
  424TIP3    H222688   3.085   4.188  14.664 -1.3814 -0.7688  0.4839
  425TIP3   OH222689   3.043   3.138   1.520  0.3416 -0.1162  0.1630
  425TIP3    H122690   3.082   3.204   1.464 -2.7972  1.0971 -0.8071
  425TIP3    H222691   3.012   3.070   1.460 -1.0892  0.1165  0.6009
  426TIP3   OH222692   0.337   5.626   5.031  0.2885 -0.5218 -0.3219
  426TIP3    H122693   0.287   5.704   5.006 -0.2016 -0.5604  0.4734
  426TIP3    H222694   0.299   5.600   5.115  1.9169 -0.3258  0.5114
  427TIP3   OH222695   4.809   3.149  12.779 -0.4030  0.9064  0.2413
  427TIP3    H122696   4.874   3.177  12.843 -0.6116 -0.7620  1.2460
  427TIP3    H222697   4.811   3.216  12.711  2.1332  1.0699  0.3826
  428TIP3   OH222698   3.095   3.724   5.965  0.2385 -0.0413  0.3347
  428TIP3    H122699   3.054   3.641   5.941  2.2957 -1.3103  0.9215
  428TIP3    H222700   3.052   3.749   6.047  0.4323 -1.1723  0.7935
  429TIP3   OH222701   3.028   2.829   1.971 -0.7965 -0.0309  0.0021
  429TIP3    H122702   3.000   2.814   2.061 -1.9331  0.8691 -0.1798
  429TIP3    H222703   3.103   2.888   1.980  0.7279 -1.9181  0.4522
  430TIP3   OH222704   0.228   6.205  16.725 -0.2039  0.0813  0.1367
  430TIP3    H122705   0.207   6.183  16.634 -1.6991 -1.8667  0.8604
  430TIP3    H222706   0.263   6.123  16.761  0.0234  0.7222  1.4034
  431TIP3   OH222707   2.430   5.036   2.165 -0.2572 -0.3940 -0.5999
  431TIP3    H122708   2.436   4.944   2.140 -1.1529 -0.6079 -0.0638
  431TIP3    H222709   2.346   5.065   2.129  0.8124  0.7221 -2.3338
  432TIP3   OH222710   5.284   0.704   3.010 -0.0783 -0.3127  0.1057
  432TIP3    H122711   5.232   0.781   3.031  0.5929  0.1627  0.0721
  432TIP3    H222712   5.304   0.664   3.095 -2.4377 -1.8412  0.0174
  433TIP3   OH222713   0.328   1.564  10.856  0.1387 -0.0074 -0.2372
  433TIP3    H122714   0.419   1.537  10.862  0.3250  0.7547  0.5883
  433TIP3    H222715   0.279   1.482  10.845  1.1169 -0.2424 -3.7843
  434TIP3   OH222716   2.611   0.554   1.364  0.0862 -0.3797 -1.0207
  434TIP3    H122717   2.613   0.516   1.277  0.5096  0.2897 -1.3151
  434TIP3    H222718   2.683   0.618   1.364 -0.3232  0.0997 -0.4052
  435TIP3   OH222719   1.911   0.298  14.821  0.0594  0.1209  0.1632
  435TIP3    H122720   1.820   0.326  14.823 -0.1995 -0.5901 -1.0164
  435TIP3    H222721   1.947   0.340  14.742  0.9660  1.0028  1.0191
  436TIP3   OH222722   6.504   4.122  13.747 -0.5686  0.2465  0.1284
  436TIP3    H122723   6.469   4.110  13.835  0.0669  1.0080  0.4986
  436TIP3    H222724   6.432   4.161  13.698 -0.4354  1.2793  0.7322
  437TIP3   OH222725   0.771   5.809   3.160 -0.0753 -0.4439 -0.8758
  437TIP3    H122726   0.809   5.789   3.074  0.6020  0.8237 -0.9034
  437TIP3    H222727   0.684   5.844   3.140 -1.4891 -3.5968 -0.7990
  438TIP3   OH222728   0.507   1.599  15.879  0.4553 -0.2291  0.5154
  438TIP3    H122729   0.428   1.585  15.932  0.0148 -1.9531 -0.5063
  438TIP3    H222730   0.562   1.657  15.932 -1.2483  0.5655  1.4940
  439TIP3   OH222731   1.473   5.809   4.983  0.5193  0.0410 -0.3803
  439TIP3    H122732   1.471   5.844   4.894  0.8584 -1.9297 -1.1926
  439TIP3    H222733   1.540   5.741   4.981 -1.0271 -1.6081  0.7624
  440TIP3   OH222734   6.325   6.495   6.262  0.6109 -0.0727 -0.1754
  440TIP3    H122735   6.291   6.577   6.226  0.8930 -0.9885 -2.7150
  440TIP3    H222736   6.416   6.515   6.285 -0.3068  1.2569  2.7602
  441TIP3   OH222737   4.790   2.358   0.784 -0.4378 -0.3637 -0.1837
  441TIP3    H122738   4.867   2.389   0.831 -0.5272  0.7206 -0.7289
  441TIP3    H222739   4.722   2.421   0.805 -0.7794 -0.4901 -0.8718
  442TIP3   OH222740   5.826   4.750  11.460  0.1305 -0.2803 -0.2880
  442TIP3    H122741   5.792   4.705  11.537  0.7962  1.9765  1.4498
  442TIP3    H222742   5.765   4.727  11.389 -0.9252 -1.8390  1.0713
  443TIP3   OH222743   4.058   6.578   0.395 -0.6972 -0.1476 -0.1090
  443TIP3    H122744   4.110   6.516   0.447 -1.1612 -0.1680  0.3406
  443TIP3    H222745   4.099   6.576   0.308  1.3600  1.3814  0.7460
  444TIP3   OH222746   6.143   1.038  11.319 -0.1779 -0.0626 -0.4163
  444TIP3    H122747   6.172   0.953  11.285  0.9101  0.4903 -0.9363
  444TIP3    H222748   6.141   1.095  11.242 -2.6126 -0.0137 -0.3947
  445TIP3   OH222749   1.230   0.883  12.944  0.5813 -0.0970 -0.7038
  445TIP3    H122750   1.257   0.929  13.024 -0.7973 -0.0536 -0.2284
  445TIP3    H222751   1.309   0.841  12.913  0.7236 -2.1038  2.0107
  446TIP3   OH222752   6.697   6.436  14.239  0.2254 -0.8313  0.4952
  446TIP3    H122753   6.735   6.431  14.327  0.7196 -2.5550  0.2361
  446TIP3    H222754   6.713   6.349  14.202  2.5138  0.6131 -2.3296
  447TIP3   OH222755   1.555   3.467   5.985  0.2364 -0.3188 -0.3196
  447TIP3    H122756   1.514   3.511   5.910  0.1086 -2.6203 -1.7066
  447TIP3    H222757   1.495   3.397   6.007 -0.5013  1.1968  3.0681
  448TIP3   OH222758   6.133   3.557  15.997  0.3350  0.5365  0.1303
  448TIP3    H122759   6.168   3.607  16.071 -0.2211  2.8108 -1.0539
  448TIP3    H222760   6.211   3.525  15.951  0.6870 -1.0734  1.7139
  449TIP3   OH222761   2.566   5.468  14.978 -0.8744  0.8311  0.1375
  449TIP3    H122762   2.518   5.409  15.037 -0.7791  1.0332  0.4203
  449TIP3    H222763   2.657   5.460  15.006 -0.6443 -0.0481 -0.8241
  450TIP3   OH222764   0.178   4.092   0.273 -0.2270 -0.5793 -0.1050
  450TIP3    H122765   0.202   4.091   0.366 -1.1605 -2.5740  0.1612
  450TIP3    H222766   0.087   4.063   0.272 -0.4594  0.1080 -1.6159
  451TIP3   OH222767   6.065   1.898  13.910  0.3099  0.4933 -0.0157
  451TIP3    H122768   6.087   1.923  13.820  1.5482  1.1406  0.4554
  451TIP3    H222769   5.980   1.939  13.926  0.3861  0.9179 -0.6706
  452TIP3   OH222770   1.190   3.817   0.862  0.2659  0.6044  0.0294
  452TIP3    H122771   1.259   3.869   0.903  0.2601  0.5974  0.0480
  452TIP3    H222772   1.209   3.821   0.769  0.5794  0.1957  0.0718
  453TIP3   OH222773   6.256   6.177   1.823  0.2822  0.8145 -0.2623
  453TIP3    H122774   6.254   6.098   1.769  3.1369 -2.1275  3.3374
  453TIP3    H222775   6.335   6.223   1.795  1.7140 -0.6636  1.0868
  454TIP3   OH222776   5.503   0.635  14.763  0.0555 -0.4903  0.1064
  454TIP3    H122777   5.533   0.708  14.709 -1.3569 -0.9010 -1.3073
  454TIP3    H222778   5.583   0.584  14.780  1.1050  1.4188  1.3133
  455TIP3   OH222779   6.176   2.608   4.137  0.4626 -0.0463 -0.3809
  455TIP3    H122780   6.144   2.629   4.049  2.9037 -0.4435 -1.4372
  455TIP3    H222781   6.243   2.674   4.155  0.6803 -0.5602  0.7723
  456TIP3   OH222782   3.523   0.147   2.000  0.0296 -0.0213  0.0878
  456TIP3    H122783   3.553   0.086   2.068  1.1297 -1.2816 -1.4393
  456TIP3    H222784   3.492   0.090   1.930  0.2207  1.1943 -1.0110
  457TIP3   OH222785   0.715   6.776   2.771  0.0927  0.1090 -0.2288
  457TIP3    H122786   0.727   6.730   2.854  2.9605  0.6930 -0.2199
  457TIP3    H222787   0.668   6.856   2.795 -0.1192 -0.2554  0.6279
  458TIP3   OH222788   6.483   1.115  14.214  0.1441 -0.1511 -0.3101
  458TIP3    H122789   6.438   1.190  14.177  1.2616  0.7420  0.0736
  458TIP3    H222790   6.434   1.093  14.293 -0.0448  0.3359 -0.2923
  459TIP3   OH222791   2.217   3.328   1.277  0.6199  0.0426  0.0972
  459TIP3    H122792   2.194   3.397   1.339 -1.3442 -0.2964 -0.1902
  459TIP3    H222793   2.276   3.370   1.215 -1.5131  1.8889 -0.8085
  460TIP3   OH222794   2.814   5.164  12.868 -0.0898 -0.1256  0.2938
  460TIP3    H122795   2.846   5.250  12.896 -0.2401  0.0361 -0.0174
  460TIP3    H222796   2.820   5.109  12.945  2.5019 -0.5683 -0.1414
  461TIP3   OH222797   3.488   1.675   0.154  0.7449  0.5173  0.3098
  461TIP3    H122798   3.544   1.729   0.098  2.3070  1.0341  2.2382
  461TIP3    H222799   3.523   1.586   0.143  0.3323  0.4329 -0.3504
  462TIP3   OH222800   5.897   3.997  14.049 -0.3651 -0.0789 -0.3336
  462TIP3    H122801   5.902   4.073  14.107 -0.8633 -0.5582  0.3541
  462TIP3    H222802   5.804   3.992  14.025 -0.3736 -0.5975 -0.1959
  463TIP3   OH222803   3.814   2.672   6.173 -0.2041  0.3772 -0.2078
  463TIP3    H122804   3.835   2.666   6.266  2.1180  0.7309 -0.6479
  463TIP3    H222805   3.852   2.593   6.135  1.1431  1.4630 -1.2031
  464TIP3   OH222806   4.139   2.139   0.175  0.5424 -0.2007  0.1752
  464TIP3    H122807   4.147   2.049   0.207  2.3666 -0.3010 -0.4474
  464TIP3    H222808   4.114   2.129   0.083 -2.8350  0.0530  0.9389
  465TIP3   OH222809   6.047   3.589   4.476 -0.2323 -0.4293  0.1390
  465TIP3    H122810   6.114   3.657   4.467 -1.1863  0.6469  0.8807
  465TIP3    H222811   6.058   3.556   4.565 -0.0641 -0.9566 -0.0706
  466TIP3   OH222812   3.047   4.592   2.576  0.3139  0.4550 -0.1090
  466TIP3    H122813   3.008   4.659   2.520 -3.1695 -0.5273  0.8956
  466TIP3    H222814   2.993   4.592   2.655  2.8484 -0.6646  1.7638
  467TIP3   OH222815   4.948   5.365  14.599  0.7564  0.1960 -0.1742
  467TIP3    H122816   5.039   5.370  14.569 -0.0600  0.0740 -2.9603
  467TIP3    H222817   4.896   5.393  14.523 -1.5618 -0.2863  1.1418
  468TIP3   OH222818   4.611   6.149  13.940 -0.3308 -0.0196  0.3887
  468TIP3    H122819   4.648   6.182  14.022  0.9382  2.1668 -0.9616
  468TIP3    H222820   4.540   6.210  13.920  0.5263  0.5767 -0.9931
  469TIP3   OH222821   4.380   1.993  13.035  0.4165 -0.7136  0.5421
  469TIP3    H122822   4.395   1.942  13.115  0.2239 -1.3577  0.1731
  469TIP3    H222823   4.378   1.927  12.965 -0.1723 -0.2323  0.1005
  470TIP3   OH222824   3.333   4.796  11.917  0.2956 -0.0850 -0.6482
  470TIP3    H122825   3.366   4.840  11.839 -0.5399  1.9864  0.1070
  470TIP3    H222826   3.410   4.789  11.975  0.2834  1.1933 -0.4482
  471TIP3   OH222827   1.838   5.362   0.536 -0.0471  0.0329 -0.5258
  471TIP3    H122828   1.908   5.397   0.590 -0.5065 -1.4031  1.1036
  471TIP3    H222829   1.762   5.360   0.594 -0.2461 -2.7780 -0.7508
  472TIP3   OH222830   4.251   3.746  15.388  0.3819 -0.3442  0.2352
  472TIP3    H122831   4.233   3.803  15.463 -2.2584 -1.2663  0.3784
  472TIP3    H222832   4.215   3.793  15.313  0.2384 -0.8026  0.0170
  473TIP3   OH222833   5.588   4.639   0.926 -0.4940  0.0578 -0.1218
  473TIP3    H122834   5.495   4.626   0.944 -0.4542 -0.1016 -0.0239
  473TIP3    H222835   5.633   4.596   1.000 -0.3456  0.2612 -0.0908
  474TIP3   OH222836   5.044   4.340   0.965 -0.2978 -0.1085 -0.0851
  474TIP3    H122837   5.023   4.303   0.879 -1.6567  0.5731 -0.0800
  474TIP3    H222838   4.958   4.349   1.008  0.2557  0.6563  0.8856
  475TIP3   OH222839   3.874   3.000   1.433  0.2274 -0.4598 -0.1341
  475TIP3    H122840   3.937   2.962   1.495 -0.1141 -1.4439 -0.3718
  475TIP3    H222841   3.896   3.093   1.431  0.6364 -0.5153  1.0005
  476TIP3   OH222842   4.224   2.629   3.355  0.3755  0.8015 -0.6220
  476TIP3    H122843   4.148   2.684   3.340 -0.0841 -0.1715 -2.0491
  476TIP3    H222844   4.190   2.550   3.395  1.1387  1.8050  2.2497
  477TIP3   OH222845   6.697   4.812  16.453  0.3664  1.0759  0.7842
  477TIP3    H122846   6.761   4.811  16.524 -0.0656  2.8539  1.2504
  477TIP3    H222847   6.622   4.762  16.488  1.0396 -0.0735  0.6453
  478TIP3   OH222848   0.287   6.769  15.548 -0.8497  0.2008 -0.0345
  478TIP3    H122849   0.283   6.864  15.553  2.3123  0.3885  1.2167
  478TIP3    H222850   0.329   6.743  15.630 -1.5464 -2.2922 -0.3887
  479TIP3   OH222851   4.438   1.409   5.208 -0.2454  0.5205 -0.1447
  479TIP3    H122852   4.396   1.358   5.277 -0.2734  1.3626  0.4752
  479TIP3    H222853   4.401   1.497   5.218  1.1637  1.1153 -0.0002
  480TIP3   OH222854   2.688   2.356   6.736 -0.4237 -0.1177  0.2830
  480TIP3    H122855   2.643   2.377   6.818 -1.7351 -3.6603  0.6504
  480TIP3    H222856   2.688   2.260   6.732 -0.2972 -0.1509 -3.7928
  481TIP3   OH222857   4.494   4.481   6.446  0.1411 -0.2607 -0.0870
  481TIP3    H122858   4.447   4.432   6.379  1.3604 -0.8671 -0.5353
  481TIP3    H222859   4.500   4.570   6.412  1.6368 -0.7782 -1.3269
  482TIP3   OH222860   1.105   5.789   3.029 -0.4341 -0.1968 -0.1688
  482TIP3    H122861   1.145   5.703   3.044  0.8954  0.6807  1.9265
  482TIP3    H222862   1.025   5.771   2.980 -1.0514 -2.8343  1.5866
  483TIP3   OH222863   4.503   0.797  15.488  0.5190 -0.1349  0.2142
  483TIP3    H122864   4.472   0.816  15.400  1.3626 -1.3103 -0.3574
  483TIP3    H222865   4.573   0.733  15.476 -0.3733 -1.5173  1.8324
  484TIP3   OH222866   2.711   6.583   3.764  0.1229  0.5866  0.3902
  484TIP3    H122867   2.679   6.656   3.711 -0.0905 -0.8989 -1.6605
  484TIP3    H222868   2.633   6.531   3.783  0.2444  0.9444  1.9762
  485TIP3   OH222869   0.032   6.374   6.840 -0.5187 -0.0124 -0.8153
  485TIP3    H122870  -0.054   6.351   6.806 -1.7067  1.6953  0.8291
  485TIP3    H222871   0.091   6.309   6.802 -2.2265 -0.2511 -3.3221
  486TIP3   OH222872   4.092   0.510   5.766 -0.2773  0.1918 -0.0577
  486TIP3    H122873   4.048   0.476   5.688  0.0809  0.6539 -0.4680
  486TIP3    H222874   4.085   0.605   5.757  1.2623  0.2864 -0.3992
  487TIP3   OH222875   3.469   1.931   2.425  0.5659  0.5674 -0.0227
  487TIP3    H122876   3.392   1.977   2.457  0.1204 -0.9657  1.2695
  487TIP3    H222877   3.477   1.956   2.333 -2.8233 -0.9048 -0.8528
  488TIP3   OH222878   3.042   0.977   5.671 -0.1429  0.6764 -0.2208
  488TIP3    H122879   3.107   0.912   5.645  0.0474  0.3090  1.0716
  488TIP3    H222880   2.958   0.935   5.655 -0.0266 -0.2716  1.3659
  489TIP3   OH222881   5.764   5.827  15.401 -0.2821  0.0981 -0.4016
  489TIP3    H122882   5.761   5.758  15.467  1.4852  0.9801  0.6781
  489TIP3    H222883   5.673   5.852  15.388 -0.8400 -1.5686  0.1066
  490TIP3   OH222884   0.427   5.401  12.759 -0.6846  0.4305  1.1007
  490TIP3    H122885   0.340   5.363  12.750  0.4803 -2.6025  1.1211
  490TIP3    H222886   0.470   5.346  12.825  1.3875  1.4933  0.7251
  491TIP3   OH222887   6.426   2.334   4.540  0.5005  0.0821 -0.1911
  491TIP3    H122888   6.374   2.369   4.467 -0.5201  0.7226  0.8042
  491TIP3    H222889   6.464   2.254   4.506 -0.0676  0.2927 -1.3909
  492TIP3   OH222890   5.871   2.807  11.886 -0.2347 -0.5110 -0.4923
  492TIP3    H122891   5.944   2.749  11.863  1.7043  1.2600  0.7945
  492TIP3    H222892   5.853   2.788  11.978 -1.9641 -1.4203 -0.9653
  493TIP3   OH222893   1.994   3.699  14.985 -0.6345  0.6213 -0.0604
  493TIP3    H122894   2.026   3.715  15.074 -0.6457 -1.0930  0.2810
  493TIP3    H222895   1.922   3.637  14.996 -0.8641  0.6534 -1.2488
  494TIP3   OH222896   4.050   3.061   0.240 -0.4226  0.3254 -0.0947
  494TIP3    H122897   4.121   3.120   0.217  0.8470 -1.1751 -0.1590
  494TIP3    H222898   4.028   3.015   0.159  0.8021 -1.5370  0.5557
  495TIP3   OH222899   2.020   4.063   3.859  0.1608  0.0413 -0.0149
  495TIP3    H122900   1.957   3.991   3.855  0.1006  0.0579  0.5917
  495TIP3    H222901   2.041   4.081   3.767 -0.9847  0.2738 -0.2506
  496TIP3   OH222902   0.366   2.309  17.002 -0.7428 -0.3090  0.4822
  496TIP3    H122903   0.403   2.251  16.937 -0.4706  0.7533 -0.3363
  496TIP3    H222904   0.332   2.383  16.952 -0.1986  0.7084  1.5525
  497TIP3   OH222905   6.551   6.134  13.214  0.5504 -0.1424  0.8802
  497TIP3    H122906   6.580   6.188  13.288 -2.3775 -1.1304  2.9517
  497TIP3    H222907   6.583   6.046  13.235  1.6587 -0.0381 -0.2750
  498TIP3   OH222908   1.770   0.265  13.006  0.0322 -0.3965  0.4997
  498TIP3    H122909   1.791   0.328  13.075  0.4229  0.4476 -0.3766
  498TIP3    H222910   1.681   0.235  13.028  0.3629 -0.5731  1.6723
  499TIP3   OH222911   1.776   6.188   3.414  0.5240 -0.1716 -0.0087
  499TIP3    H122912   1.848   6.230   3.462  2.3118 -1.8820 -1.0274
  499TIP3    H222913   1.801   6.197   3.322  0.5061 -2.5271 -0.2967
  500TIP3   OH222914   4.863   1.950   4.873  0.4670 -0.0298  0.7390
  500TIP3    H122915   4.887   2.013   4.804 -3.5963  0.0015 -0.9130
  500TIP3    H222916   4.874   1.865   4.831 -0.6972 -0.0605  0.4531
  501TIP3   OH222917   6.126   5.545   0.923 -0.1924 -0.2749  0.4247
  501TIP3    H122918   6.113   5.544   0.828 -0.8427  2.3700  0.4297
  501TIP3    H222919   6.210   5.588   0.935  1.1524 -2.8659  1.0414
  502TIP3   OH222920   2.789   4.390   3.464  0.1645  0.3808  0.3901
  502TIP3    H122921   2.838   4.392   3.547 -1.7616 -0.2499  1.6117
  502TIP3    H222922   2.735   4.469   3.466 -2.3742 -1.2518  1.4222
  503TIP3   OH222923   4.553   6.644  15.403  0.1760  0.4153 -0.2550
  503TIP3    H122924   4.627   6.606  15.356 -0.5711 -0.2375 -0.9175
  503TIP3    H222925   4.520   6.712  15.345 -2.0889 -1.8016 -1.7471
  504TIP3   OH222926   3.181   2.886  15.855 -0.2375  0.0506 -0.2161
  504TIP3    H122927   3.096   2.862  15.817  0.7120 -1.0571 -1.7956
  504TIP3    H222928   3.177   2.855  15.945 -1.7122  0.5608 -0.0819
  505TIP3   OH222929   4.440   0.233  14.420 -0.0756 -0.2182  0.6417
  505TIP3    H122930   4.413   0.219  14.329 -1.0304  0.4354  0.8086
  505TIP3    H222931   4.464   0.325  14.425 -2.0101  0.2912  1.5026
  506TIP3   OH222932   0.060   1.830   3.275 -0.0700 -0.0222  0.3798
  506TIP3    H122933   0.010   1.823   3.356  0.7439 -2.2277  0.7624
  506TIP3    H222934   0.150   1.808   3.301 -0.1557 -3.0586 -1.4053
  507TIP3   OH222935   1.980   1.279  10.976 -0.3168 -0.0882 -0.6090
  507TIP3    H122936   1.914   1.341  10.945  0.7789  0.6298 -1.6104
  507TIP3    H222937   2.004   1.230  10.897  0.2009 -0.4645 -0.2144
  508TIP3   OH222938   6.320   6.120   1.395 -0.1282 -0.4688  0.6256
  508TIP3    H122939   6.363   6.184   1.450 -2.3067  1.0181  0.7364
  508TIP3    H222940   6.370   6.039   1.407  3.0318  1.2662  0.0775
  509TIP3   OH222941   3.252   0.668  15.672 -0.3334  0.0697  0.6972
  509TIP3    H122942   3.305   0.595  15.638 -0.2544  0.1617  0.6235
  509TIP3    H222943   3.165   0.653  15.635 -0.3734 -0.1154  0.8665
  510TIP3   OH222944   1.191   5.206  16.329  0.4438  0.0227 -0.5110
  510TIP3    H122945   1.239   5.139  16.280  0.5115 -0.3478  0.0511
  510TIP3    H222946   1.119   5.159  16.371  0.5654  0.2687 -0.0079
  511TIP3   OH222947   1.905   2.480   3.824 -0.0230  0.0982  0.3202
  511TIP3    H122948   1.944   2.542   3.887  1.7725 -1.7429  1.1491
  511TIP3    H222949   1.870   2.410   3.878 -2.4095  0.4991 -0.5826
  512TIP3   OH222950   3.694   4.523   6.032 -0.1097  0.2120  0.1752
  512TIP3    H122951   3.695   4.504   6.126 -3.7040 -1.2646  0.0852
  512TIP3    H222952   3.742   4.450   5.992  1.3123  0.7723  0.8266
  513TIP3   OH222953   2.802   2.518  15.099 -0.2470  0.0613 -0.0132
  513TIP3    H122954   2.786   2.613  15.101 -2.0981 -0.1785 -1.2416
  513TIP3    H222955   2.824   2.496  15.190  1.2141  1.7887  0.1105
  514TIP3   OH222956   5.919   1.993   4.464 -0.1040  0.2517 -0.2712
  514TIP3    H122957   5.987   2.060   4.451  0.1538 -0.0944 -0.7022
  514TIP3    H222958   5.918   1.980   4.559  0.3914  0.3030 -0.2541
  515TIP3   OH222959   5.961   5.565   5.533 -0.3566  0.1520  0.2610
  515TIP3    H122960   5.950   5.658   5.513  0.4412 -0.4627 -4.1154
  515TIP3    H222961   5.875   5.536   5.565 -1.3094  1.9641 -0.5471
  516TIP3   OH222962   3.526   2.342   3.159  0.1460 -0.3599  0.1047
  516TIP3    H122963   3.584   2.267   3.149  0.9217  0.2299  0.0071
  516TIP3    H222964   3.585   2.413   3.186 -0.5841  0.1833  0.2905
  517TIP3   OH222965   5.718   4.444  12.421 -0.4140  0.1036 -0.4959
  517TIP3    H122966   5.717   4.358  12.463  0.7713 -0.4294 -1.5098
  517TIP3    H222967   5.629   4.454  12.387  0.0380 -1.8487 -2.5011
  518TIP3   OH222968   4.766   1.197  13.260 -0.5181 -1.0203 -0.2009
  518TIP3    H122969   4.750   1.231  13.173 -0.8109  0.6321  0.4686
  518TIP3    H222970   4.740   1.105  13.255 -0.8286 -0.8663 -1.7563
  519TIP3   OH222971   3.483   3.400  17.186  0.5889  0.5716  0.2536
  519TIP3    H122972   3.497   3.348  17.265  1.9110  0.9219  0.2744
  519TIP3    H222973   3.475   3.336  17.116  0.5320  0.2925  0.5138
  520TIP3   OH222974   1.642   2.518  13.393 -0.0091  0.7420  0.1542
  520TIP3    H122975   1.624   2.603  13.353 -0.7988  0.7580  0.5306
  520TIP3    H222976   1.677   2.540  13.480  1.7508  0.7098 -0.4943
  521TIP3   OH222977   6.670   0.180  12.300 -0.4676  0.3358 -0.2279
  521TIP3    H122978   6.668   0.196  12.205 -0.9238 -1.4086 -0.5662
  521TIP3    H222979   6.762   0.185  12.323 -0.2712  0.1192 -0.9173
  522TIP3   OH222980   3.498   3.330   4.950 -0.5983  0.0334  0.0302
  522TIP3    H122981   3.482   3.335   5.044 -1.1352  1.2996 -0.1066
  522TIP3    H222982   3.559   3.257   4.939  0.8673  0.9724  1.5351
  523TIP3   OH222983   6.432   2.548  14.998  0.3887  0.3657 -0.5778
  523TIP3    H122984   6.467   2.522  15.083  2.0780 -0.9643 -1.6413
  523TIP3    H222985   6.500   2.603  14.960  0.4886 -0.6118 -1.8489
  524TIP3   OH222986   2.624   6.423   3.408  0.2125 -0.2371  0.5492
  524TIP3    H122987   2.558   6.493   3.405  0.5428  0.0426 -0.3590
  524TIP3    H222988   2.699   6.463   3.452 -0.8755 -1.1540  3.5037
  525TIP3   OH222989   5.915   2.446   1.418  0.3228  0.6989  0.5087
  525TIP3    H122990   5.963   2.363   1.415  0.0844  0.5305  1.1646
  525TIP3    H222991   5.969   2.503   1.473 -0.9104  0.0347  2.5115
  526TIP3   OH222992   3.450   0.813   1.300  0.1569  0.7062  0.0578
  526TIP3    H122993   3.490   0.796   1.385  0.6044 -0.3173 -0.3313
  526TIP3    H222994   3.359   0.784   1.310  0.3252  0.1670  0.0675
  527TIP3   OH222995   3.791   0.150   0.658 -0.6249  0.6026  0.1003
  527TIP3    H122996   3.721   0.104   0.612  0.0984 -0.1898 -0.2411
  527TIP3    H222997   3.805   0.230   0.607 -0.3676  0.1116 -0.6022
  528TIP3   OH222998   3.355   4.669  11.566  0.2905  0.2068  0.2422
  528TIP3    H122999   3.337   4.675  11.473 -0.6621  0.3809  0.4237
  528TIP3    H223000   3.413   4.743  11.584  0.1962  0.3802 -0.1500
  529TIP3   OH223001   0.236   0.212   1.728  0.7571 -0.0877 -0.4892
  529TIP3    H123002   0.196   0.130   1.699  1.4980 -0.0912 -1.5494
  529TIP3    H223003   0.311   0.224   1.670  1.2675  0.8149  0.3260
  530TIP3   OH223004   1.418   4.409   6.222  0.2950  0.0449  0.1236
  530TIP3    H123005   1.324   4.427   6.217  0.2013 -0.6523 -1.2203
  530TIP3    H223006   1.442   4.427   6.313 -1.4656 -1.3426  0.9125
  531TIP3   OH223007   1.890   0.604  13.062  0.1515  0.3061  0.3421
  531TIP3    H123008   1.903   0.629  13.154  0.0092 -0.2918  0.5293
  531TIP3    H223009   1.831   0.670  13.027  0.4291  0.6988  0.6063
  532TIP3   OH223010   2.536   2.869   1.002  0.9341 -0.0801  0.2682
  532TIP3    H123011   2.442   2.860   0.991  0.9387  0.5365 -0.2983
  532TIP3    H223012   2.574   2.798   0.950  0.7788 -0.6698  0.9358
  533TIP3   OH223013   1.107   5.835   6.349  0.0371  0.4333  0.0195
  533TIP3    H123014   1.060   5.804   6.427  2.5435 -0.2284  1.3797
  533TIP3    H223015   1.061   5.795   6.275 -1.6087 -0.0133  1.2300
  534TIP3   OH223016   1.952   3.181   0.905  0.0816 -0.7922  0.4076
  534TIP3    H123017   1.965   3.276   0.903  1.3847 -0.9709 -0.4672
  534TIP3    H223018   2.025   3.148   0.957  0.1176 -1.3846 -0.0122
  535TIP3   OH223019   0.576   6.639  14.608  0.5795 -0.1404  0.2456
  535TIP3    H123020   0.619   6.559  14.638 -0.1494 -0.6814 -0.1351
  535TIP3    H223021   0.495   6.609  14.568  0.6882  0.7242 -0.6463
  536TIP3   OH223022   4.689   0.621  16.085 -0.0067 -0.0631  0.2353
  536TIP3    H123023   4.613   0.645  16.033 -0.2062 -1.1555 -0.0106
  536TIP3    H223024   4.764   0.658  16.038 -0.3189  0.3700  0.0742
  537TIP3   OH223025   4.458   1.171  15.545  0.4111 -0.2612  0.4746
  537TIP3    H123026   4.486   1.090  15.588 -1.9710 -1.7717 -0.6219
  537TIP3    H223027   4.473   1.155  15.452  0.2000  0.6903  0.2721
  538TIP3   OH223028   0.923   2.936   5.734  0.0455  0.0705  0.6945
  538TIP3    H123029   1.005   2.893   5.708 -1.0157 -0.1580 -2.7418
  538TIP3    H223030   0.882   2.874   5.795 -0.1757 -2.6737 -2.0132
  539TIP3   OH223031   5.375   1.764   0.944  0.5691  0.3861 -0.5551
  539TIP3    H123032   5.464   1.787   0.970  0.4872 -0.2502  0.3180
  539TIP3    H223033   5.359   1.678   0.983 -0.6887  0.8114 -0.0571
  540TIP3   OH223034   0.795   4.616  15.715 -0.7089 -0.1431  0.2923
  540TIP3    H123035   0.818   4.577  15.630  0.0960  1.0164 -0.0443
  540TIP3    H223036   0.859   4.578  15.776 -0.8988 -0.5122  0.2641
  541TIP3   OH223037   5.996   0.683   3.664  1.0094 -0.0296 -1.1482
  541TIP3    H123038   5.947   0.765   3.675 -1.6435 -1.6945  0.6920
  541TIP3    H223039   6.087   0.710   3.656  0.3756  3.0353  0.5252
  542TIP3   OH223040   6.520   1.775  13.669  0.1516  0.2837 -0.2552
  542TIP3    H123041   6.452   1.767  13.602  0.1344 -0.1891 -0.1838
  542TIP3    H223042   6.512   1.696  13.721  2.7997 -1.4300 -2.1498
  543TIP3   OH223043   0.187   1.492  15.776 -0.4184 -1.1361 -0.1541
  543TIP3    H123044   0.107   1.440  15.786 -0.3441 -1.3031 -0.4186
  543TIP3    H223045   0.253   1.445  15.827 -1.2708  0.8292  3.0769
  544TIP3   OH223046   3.253   2.600  12.108  0.4963 -0.0165  0.1150
  544TIP3    H123047   3.281   2.669  12.167  1.4142  1.0820 -1.5344
  544TIP3    H223048   3.333   2.568  12.067  0.2548 -2.9220  1.6563
  545TIP3   OH223049   5.714   3.577  13.037  0.3127 -0.2949 -0.0982
  545TIP3    H123050   5.793   3.532  13.009  2.4048  2.1172  1.4561
  545TIP3    H223051   5.737   3.670  13.032 -1.4398  0.4335  3.0337
  546TIP3   OH223052   3.322   5.165   0.387  0.7361 -0.1101  0.3397
  546TIP3    H123053   3.384   5.127   0.449  1.3532 -0.5068 -0.5119
  546TIP3    H223054   3.377   5.211   0.323  0.1713 -0.6743 -0.5645
  547TIP3   OH223055   4.094   6.596  16.116 -0.3039  0.2968  0.6184
  547TIP3    H123056   4.093   6.604  16.212  1.7124 -1.3462  0.8472
  547TIP3    H223057   4.065   6.507  16.100 -1.2367  0.7628 -0.3727
  548TIP3   OH223058   3.676   6.590   5.497 -0.2382  0.1925  0.3470
  548TIP3    H123059   3.740   6.528   5.531 -1.5501 -0.0874  2.5522
  548TIP3    H223060   3.638   6.547   5.421  0.0118 -1.0203  0.8798
  549TIP3   OH223061   2.358   4.005  12.412 -0.2303 -0.4640  0.2017
  549TIP3    H123062   2.356   3.921  12.457  0.0406 -0.9003 -0.5700
  549TIP3    H223063   2.268   4.038  12.417 -0.3252 -0.7769  0.5465
  550TIP3   OH223064   4.714   5.368   3.883  0.2064 -0.0122  0.1126
  550TIP3    H123065   4.697   5.316   3.962  0.9017  0.8186  0.8224
  550TIP3    H223066   4.656   5.329   3.817 -1.4530  0.1777  1.3809
  551TIP3   OH223067   2.995   3.007  12.131  0.4812 -0.1386  0.0688
  551TIP3    H123068   2.904   3.019  12.101  0.7770  0.6618 -0.5471
  551TIP3    H223069   2.999   3.057  12.213 -0.0235 -1.4132  0.9111
  552TIP3   OH223070   5.450   2.338  12.490 -0.1067 -0.3126 -0.2192
  552TIP3    H123071   5.497   2.388  12.557 -0.7817  3.2739 -2.1424
  552TIP3    H223072   5.358   2.350  12.512 -0.2938 -0.5894 -0.8443
  553TIP3   OH223073   5.017   2.766   0.560 -0.3329 -0.2082  0.2021
  553TIP3    H123074   4.997   2.780   0.653 -1.7756  0.5854 -0.2034
  553TIP3    H223075   5.068   2.843   0.535 -1.1298  0.2530 -0.0011
  554TIP3   OH223076   5.430   0.547   5.353  0.4251  0.0874 -0.6879
  554TIP3    H123077   5.372   0.602   5.405 -1.2199 -0.6530 -1.6648
  554TIP3    H223078   5.485   0.610   5.305 -0.1696  0.8319 -0.4093
  555TIP3   OH223079   0.082   4.580  11.157 -0.2457 -0.2221  0.1765
  555TIP3    H123080   0.177   4.566  11.157 -0.2021  0.0754  0.0697
  555TIP3    H223081   0.057   4.567  11.249  0.1159  1.1304  0.4893
  556TIP3   OH223082   2.212   3.625  11.510  0.5030 -0.7663 -0.2062
  556TIP3    H123083   2.133   3.638  11.562  0.4773 -0.9318 -0.2056
  556TIP3    H223084   2.202   3.686  11.436  1.3453  0.7742  0.8811
  557TIP3   OH223085   4.817   2.713  12.692  0.4094  0.6213  0.5070
  557TIP3    H123086   4.863   2.721  12.608 -2.0355  2.2578 -0.8062
  557TIP3    H223087   4.765   2.634  12.684  0.7363  0.3709  0.8075
  558TIP3   OH223088   3.770   5.075  15.626  0.3719 -0.0426 -0.3775
  558TIP3    H123089   3.808   5.014  15.563  0.7328  0.9000 -1.0840
  558TIP3    H223090   3.806   5.160  15.603  2.2271  0.0615  2.4013
  559TIP3   OH223091   2.182   3.344   2.056  0.0638 -0.6686  0.2135
  559TIP3    H123092   2.118   3.321   1.989  0.9033 -1.8647 -0.2176
  559TIP3    H223093   2.201   3.262   2.101  1.1572 -0.3112  0.4463
  560TIP3   OH223094   4.226   0.921  13.830 -0.7209 -0.0867  0.1050
  560TIP3    H123095   4.223   0.894  13.922 -1.7951  1.5892  0.6172
  560TIP3    H223096   4.187   0.848  13.782  1.7208 -1.8870  0.6826
  561TIP3   OH223097   6.242   2.024   4.510  0.1348  0.4927  0.3271
  561TIP3    H123098   6.261   1.981   4.426  0.8804  0.7390  0.3565
  561TIP3    H223099   6.199   2.105   4.486  0.7530  0.7760  0.1484
  562TIP3   OH223100   6.228   3.370   4.666 -0.1640 -0.3474 -0.5462
  562TIP3    H123101   6.150   3.368   4.721 -0.2051  0.6060 -0.5480
  562TIP3    H223102   6.256   3.462   4.667 -0.3477 -0.2241 -2.3599
  563TIP3   OH223103   6.249   3.986   1.290 -0.1882 -0.5229  0.0306
  563TIP3    H123104   6.169   3.935   1.299 -0.0891 -0.9228 -1.2284
  563TIP3    H223105   6.222   4.076   1.305 -1.4583 -0.2963 -3.0711
  564TIP3   OH223106   2.814   2.973   2.205  0.7398 -0.0464 -0.7995
  564TIP3    H123107   2.829   3.011   2.118 -0.0879 -0.6352 -1.2120
  564TIP3    H223108   2.719   2.961   2.210  0.7918 -0.1371  0.1428
  565TIP3   OH223109   2.086   0.585   3.494  1.0174  0.0479 -0.3188
  565TIP3    H123110   2.023   0.650   3.525 -1.2656 -2.3601  0.3907
  565TIP3    H223111   2.124   0.548   3.574 -1.4865 -2.9494 -0.3704
  566TIP3   OH223112   2.070   4.820  11.147  0.5027  0.6849  0.7260
  566TIP3    H123113   2.043   4.776  11.066 -0.1532 -0.4715  1.5337
  566TIP3    H223114   2.153   4.779  11.170 -0.4733 -0.7447  1.8809
  567TIP3   OH223115   3.499   0.333   4.952  0.0022  0.1802  0.7636
  567TIP3    H123116   3.530   0.405   5.006  0.1937  0.3058  0.4869
  567TIP3    H223117   3.423   0.298   4.999  0.6789 -0.2635  1.5573
  568TIP3   OH223118   3.547   2.481  15.055  0.6268  0.1469  0.0436
  568TIP3    H123119   3.627   2.515  15.016 -0.0999 -0.5491 -2.2231
  568TIP3    H223120   3.575   2.403  15.104  1.2989 -0.5026 -1.3005
  569TIP3   OH223121   0.856   5.114   5.090  0.0174  0.7828 -0.3160
  569TIP3    H123122   0.929   5.155   5.044  0.0004  1.9527  0.6548
  569TIP3    H223123   0.823   5.182   5.148  1.3984 -1.1887  3.0849
  570TIP3   OH223124   4.793   1.570  15.688 -0.0932  0.4981  0.1490
  570TIP3    H123125   4.735   1.521  15.629 -0.1818  1.0687 -0.2561
  570TIP3    H223126   4.838   1.631  15.630  0.1081  0.8019  0.6229
  571TIP3   OH223127   0.950   5.467  11.856 -0.7760 -0.6154  0.2055
  571TIP3    H123128   0.960   5.415  11.777 -0.7707  1.3197 -1.1561
  571TIP3    H223129   0.856   5.466  11.874 -0.6554 -1.9968  0.9005
  572TIP3   OH223130   5.938   4.206  15.165 -0.1313 -0.0287 -0.3008
  572TIP3    H123131   5.931   4.203  15.260  0.9120 -0.0343 -0.2105
  572TIP3    H223132   5.987   4.286  15.146  1.2739 -0.9389 -0.6976
  573TIP3   OH223133   6.698   6.016  14.353 -0.0244 -0.7877 -0.0613
  573TIP3    H123134   6.761   5.964  14.403  0.0581 -0.0579  0.6246
  573TIP3    H223135   6.638   6.051  14.419  1.3055  1.9087 -0.1385
  574TIP3   OH223136   4.004   6.100  14.217 -0.5064  0.2279 -0.0871
  574TIP3    H123137   3.928   6.051  14.185  0.7245 -1.4106 -0.6522
  574TIP3    H223138   4.054   6.121  14.139 -0.3093  1.1954  0.2908
  575TIP3   OH223139   0.492   4.136   2.709  0.6151  0.2558  0.1129
  575TIP3    H123140   0.530   4.133   2.797  1.8304 -1.2496 -0.4039
  575TIP3    H223141   0.474   4.229   2.694  1.9253  0.7507  1.3296
  576TIP3   OH223142   2.617   2.506  14.017 -0.5682 -0.6235  0.7923
  576TIP3    H123143   2.604   2.415  14.043 -0.5043 -0.7367  0.4335
  576TIP3    H223144   2.614   2.555  14.099 -1.1083 -0.8916  0.9402
  577TIP3   OH223145   5.636   2.523   0.325 -0.2196 -0.2233 -0.2604
  577TIP3    H123146   5.676   2.504   0.410  0.0940  0.5973 -0.2136
  577TIP3    H223147   5.552   2.562   0.346 -0.5303 -0.8355 -0.3453
  578TIP3   OH223148   4.572   1.211   1.619  0.1726  0.2406  0.5144
  578TIP3    H123149   4.501   1.256   1.573  0.1788 -1.0799 -0.8502
  578TIP3    H223150   4.529   1.167   1.692  0.0609  1.8074  1.4338
  579TIP3   OH223151   6.239   1.819  16.427  0.0927  0.3213 -0.3489
  579TIP3    H123152   6.173   1.869  16.380 -0.0997  0.1127 -0.3020
  579TIP3    H223153   6.249   1.739  16.377 -1.3898 -0.7020  0.8829
  580TIP3   OH223154   1.153   4.803   3.793 -0.2352 -0.0450  0.6314
  580TIP3    H123155   1.107   4.866   3.737 -0.9784 -0.3435  0.9022
  580TIP3    H223156   1.088   4.737   3.814  0.2289 -0.2999  1.2951
  581TIP3   OH223157   0.457   2.151   0.150  0.3509  0.2186  0.1881
  581TIP3    H123158   0.507   2.113   0.222 -0.6420 -0.8751  0.3229
  581TIP3    H223159   0.376   2.101   0.147 -0.0895  0.9452 -1.0169
  582TIP3   OH223160   2.455   2.891  14.627 -0.1795  0.3680  0.0776
  582TIP3    H123161   2.522   2.890  14.696 -0.5158  0.3602  0.4074
  582TIP3    H223162   2.483   2.961  14.568  0.2984  0.1458  0.0343
  583TIP3   OH223163   6.678   5.765   1.446  0.1831  0.1622 -0.5304
  583TIP3    H123164   6.676   5.678   1.405  1.7270  0.0288 -0.3957
  583TIP3    H223165   6.696   5.747   1.538  2.3441  0.6473 -0.8030
  584TIP3   OH223166   2.920   4.992   2.255 -0.2228  0.2688  0.0420
  584TIP3    H123167   2.841   5.042   2.237 -0.1389  0.2469 -0.3888
  584TIP3    H223168   2.965   4.986   2.171  0.6850  1.0596  0.4541
  585TIP3   OH223169   6.631   0.863  11.234  0.2534  0.0629  0.2372
  585TIP3    H123170   6.655   0.834  11.322 -0.6556 -0.6507  0.2670
  585TIP3    H223171   6.619   0.958  11.242  1.6792  0.2463  0.5127
  586TIP3   OH223172   1.815   1.808  11.748  0.0252 -0.5927 -1.0382
  586TIP3    H123173   1.803   1.883  11.807  1.8163 -0.5930 -0.6320
  586TIP3    H223174   1.743   1.749  11.770  0.3664 -0.3677  0.8112
  587TIP3   OH223175   0.560   0.224  17.023 -0.3776 -0.0970 -0.4212
  587TIP3    H123176   0.614   0.301  17.041 -0.1943  0.1258 -1.8007
  587TIP3    H223177   0.529   0.196  17.109  0.2927  0.9737  0.1969
  588TIP3   OH223178   3.203   2.119   2.184 -0.0114 -0.4215 -0.2469
  588TIP3    H123179   3.203   2.125   2.279 -1.0828 -0.6733 -0.2222
  588TIP3    H223180   3.292   2.091   2.162  0.1942 -0.5417  0.6896
  589TIP3   OH223181   0.663   6.061   2.805  0.2544  0.5950  0.2944
  589TIP3    H123182   0.667   6.103   2.719  0.3107  0.4533  0.2282
  589TIP3    H223183   0.575   6.080   2.837 -0.7804 -1.7187 -0.9839
  590TIP3   OH223184   6.748   3.961  11.095 -0.2490  0.0531  0.0203
  590TIP3    H123185   6.779   3.914  11.018 -0.5724 -0.6540  0.3153
  590TIP3    H223186   6.827   3.976  11.147 -0.2335 -0.8088  0.2658
  591TIP3   OH223187   4.008   2.364   0.563  0.3522 -0.2587  0.0187
  591TIP3    H123188   3.969   2.444   0.599  1.9298  1.1248 -1.1776
  591TIP3    H223189   3.934   2.314   0.529 -0.6519  0.8625  0.4844
  592TIP3   OH223190   5.913   3.626   1.021 -0.1491 -0.0692 -0.0857
  592TIP3    H123191   5.969   3.701   1.040 -2.3427  2.3567 -2.2974
  592TIP3    H223192   5.879   3.599   1.106  4.1468 -1.7181  1.3787
  593TIP3   OH223193   3.579   6.143  13.507 -0.0147  0.1148 -0.6470
  593TIP3    H123194   3.516   6.128  13.577  0.4151  1.7430  0.1332
  593TIP3    H223195   3.650   6.082  13.525  0.8791  1.6429  1.3906
  594TIP3   OH223196   4.002   5.756   4.508  0.2298 -0.6232  0.2238
  594TIP3    H123197   4.025   5.749   4.415 -2.2720 -1.0443 -0.4387
  594TIP3    H223198   3.929   5.694   4.519  1.5438 -1.8433  2.8975
  595TIP3   OH223199   2.923   2.736   1.364 -0.2953 -0.2129 -0.2508
  595TIP3    H123200   2.997   2.780   1.322 -0.3083  0.5387  0.4863
  595TIP3    H223201   2.848   2.793   1.345 -0.6762 -0.8889 -0.8625
  596TIP3   OH223202   3.366   2.815  15.664  0.2062 -0.3394 -0.0801
  596TIP3    H123203   3.423   2.891  15.655 -1.6903  1.0947 -0.6741
  596TIP3    H223204   3.322   2.829  15.748 -1.8715  0.5203 -1.2482
  597TIP3   OH223205   2.886   6.571   5.893 -0.1917  0.2303  0.8471
  597TIP3    H123206   2.950   6.537   5.831 -1.2490 -0.3669  0.0552
  597TIP3    H223207   2.939   6.611   5.963  1.0224  1.4925 -0.7239
  598TIP3   OH223208   2.774   2.372   4.804 -0.3531  0.2462 -0.7148
  598TIP3    H123209   2.854   2.401   4.762 -0.6482  0.4739 -1.1250
  598TIP3    H223210   2.742   2.450   4.850 -0.3248  0.1461 -0.5215
  599TIP3   OH223211   3.372   5.118  13.686  0.1819  0.0726  0.5783
  599TIP3    H123212   3.388   5.212  13.689 -2.4330  0.8055 -2.6155
  599TIP3    H223213   3.278   5.109  13.700  0.5365 -2.2734  2.1220
  600TIP3   OH223214   4.740   0.943  15.203 -0.5119  0.1219  0.1390
  600TIP3    H123215   4.822   0.895  15.199 -0.5138  0.1281  0.0187
  600TIP3    H223216   4.686   0.904  15.134 -0.5044  0.3118  0.0234
  601TIP3   OH223217   4.493   2.181  14.386  0.2430 -0.1095 -0.1302
  601TIP3    H123218   4.502   2.103  14.332  0.5274 -0.4837  0.4542
  601TIP3    H223219   4.474   2.148  14.474  0.9015  0.4566  0.2377
  602TIP3   OH223220   0.283   6.753  13.688 -0.7783 -0.3615  0.0968
  602TIP3    H123221   0.258   6.746  13.780 -2.1311  0.5443 -0.1857
  602TIP3    H223222   0.339   6.676  13.673  0.0081 -0.1748  1.8210
  603TIP3   OH223223   1.564   0.060  13.234  0.1410  0.5944 -0.0350
  603TIP3    H123224   1.536  -0.029  13.212  2.7252 -0.2813 -0.1611
  603TIP3    H223225   1.555   0.109  13.153 -0.7386  0.2909 -0.1245
  604TIP3   OH223226   4.104   3.348  15.166  0.2078 -0.6016 -0.1237
  604TIP3    H123227   4.132   3.404  15.238 -0.9621 -0.5024  0.2770
  604TIP3    H223228   4.030   3.394  15.127  1.0695 -0.4555 -1.6704
  605TIP3   OH223229   0.502   1.390   2.179 -0.1073 -0.2566  0.1592
  605TIP3    H123230   0.540   1.324   2.237 -0.8397 -2.0971 -1.3438
  605TIP3    H223231   0.506   1.351   2.092  0.8592  2.3787 -1.0843
  606TIP3   OH223232   6.644   5.679  11.403  0.0987  0.0910 -0.6471
  606TIP3    H123233   6.614   5.744  11.340  1.4007  3.0536  1.5349
  606TIP3    H223234   6.740   5.689  11.403  0.1368  0.4627  1.9208
  607TIP3   OH223235   3.498   3.623  16.391 -0.1379  0.1186  0.2155
  607TIP3    H123236   3.467   3.639  16.301  0.9688  0.2481 -0.1557
  607TIP3    H223237   3.458   3.539  16.415  0.4911 -0.5094 -0.8494
  608TIP3   OH223238   5.558   2.567  12.038 -0.1453  0.0507  0.4882
  608TIP3    H123239   5.631   2.516  12.003 -0.1852  0.9854 -1.0517
  608TIP3    H223240   5.526   2.619  11.964 -0.1304  2.2959  1.9316
  609TIP3   OH223241   0.660   1.123  11.490  0.0295 -0.2815  0.0898
  609TIP3    H123242   0.631   1.052  11.433 -0.9001 -0.2102  0.4678
  609TIP3    H223243   0.719   1.175  11.434 -1.5511  0.2962 -1.1060
  610TIP3   OH223244   5.481   0.199  14.856 -0.7203 -0.1399  0.0026
  610TIP3    H123245   5.493   0.158  14.942 -1.7410 -1.1333 -0.3010
  610TIP3    H223246   5.544   0.155  14.799  0.3321  0.8907  0.3327
  611TIP3   OH223247   1.080   2.697   4.063 -0.1700 -0.0542 -0.1876
  611TIP3    H123248   1.037   2.771   4.106 -0.8815 -0.1253 -0.7398
  611TIP3    H223249   1.045   2.620   4.107 -1.1847 -0.1422 -1.1121
  612TIP3   OH223250   6.624   3.390   1.313 -0.0511  0.0142  0.9420
  612TIP3    H123251   6.695   3.344   1.268 -0.9407 -1.6426  1.1655
  612TIP3    H223252   6.593   3.454   1.249  1.0505  0.1796  0.5348
  613TIP3   OH223253   0.108   5.039  11.483  0.1633  0.0542 -0.1014
  613TIP3    H123254   0.034   5.073  11.532  0.2175 -0.0709  0.0690
  613TIP3    H223255   0.115   4.947  11.510 -0.1990 -0.1893 -0.8213
  614TIP3   OH223256   0.603   0.057   5.300  0.1783  0.2348 -0.3933
  614TIP3    H123257   0.681   0.106   5.275  1.7380 -2.3725 -0.9595
  614TIP3    H223258   0.531   0.105   5.259  1.7217  1.3697 -1.9343
  615TIP3   OH223259   5.888   0.149  10.620 -0.3101 -0.6597  0.2198
  615TIP3    H123260   5.823   0.212  10.650  0.5079  0.5303 -0.4235
  615TIP3    H223261   5.880   0.149  10.524  0.2153 -0.9511  0.1705
  616TIP3   OH223262   5.239   3.840   2.561 -0.8152 -0.0321  0.6310
  616TIP3    H123263   5.309   3.878   2.614 -0.5201  0.7823 -0.3399
  616TIP3    H223264   5.272   3.753   2.537 -0.7211 -0.1911  1.2981
  617TIP3   OH223265   6.280   6.229  13.721 -0.1314 -0.1793  0.2149
  617TIP3    H123266   6.218   6.269  13.782 -2.0570 -3.1491  0.4305
  617TIP3    H223267   6.275   6.135  13.739  2.9197 -0.7614 -1.2593
  618TIP3   OH223268   0.032   6.280   0.401 -0.2647 -0.1239  0.4658
  618TIP3    H123269   0.096   6.310   0.465 -1.0022 -0.6093  1.4735
  618TIP3    H223270  -0.001   6.198   0.438 -1.2879  0.0022 -0.1383
  619TIP3   OH223271   1.684   5.642   5.241 -0.7364  0.6289 -0.0573
  619TIP3    H123272   1.639   5.726   5.229  0.2721  0.9760 -1.6551
  619TIP3    H223273   1.777   5.664   5.238 -0.4576 -0.5884 -0.7711
  620TIP3   OH223274   2.133   5.882  13.596 -0.0536  0.1894  0.0648
  620TIP3    H123275   2.161   5.947  13.531  2.4841  0.9837  1.8273
  620TIP3    H223276   2.060   5.924  13.642 -1.4796 -0.1440 -1.7628
  621TIP3   OH223277   4.787   0.274  16.269 -0.7275  0.2914  0.3585
  621TIP3    H123278   4.714   0.326  16.302 -0.8750 -0.5244  1.3693
  621TIP3    H223279   4.751   0.228  16.193 -1.0421  0.4798  0.3894
  622TIP3   OH223280   4.480   1.728  13.521 -0.1030  0.2274  0.5848
  622TIP3    H123281   4.540   1.654  13.534  0.4166  0.8806  2.1937
  622TIP3    H223282   4.421   1.724  13.596 -1.1321  0.4865 -0.1955
  623TIP3   OH223283   6.489   0.836  14.186 -0.3646  0.2221 -0.0525
  623TIP3    H123284   6.426   0.904  14.162 -1.6729 -1.1059 -0.5815
  623TIP3    H223285   6.477   0.825  14.281 -0.3701  0.5254 -0.0176
  624TIP3   OH223286   0.436   4.788   4.045 -0.7768 -0.0718  0.3611
  624TIP3    H123287   0.371   4.854   4.068 -0.6936  0.4076 -0.7157
  624TIP3    H223288   0.448   4.798   3.950  0.6984 -0.2959  0.5004
  625TIP3   OH223289   0.719   0.415   1.361  0.0006  0.0403 -0.0985
  625TIP3    H123290   0.724   0.320   1.372  0.5012  0.1920  1.1627
  625TIP3    H223291   0.794   0.436   1.305 -2.4039 -0.7180 -3.9511
  626TIP3   OH223292   5.150   5.833  13.172 -0.1922 -0.1628 -0.5009
  626TIP3    H123293   5.132   5.855  13.264 -0.9263  0.9898 -0.9050
  626TIP3    H223294   5.246   5.830  13.167 -0.1280 -2.2522  0.7327
  627TIP3   OH223295   2.641   6.626  14.972  0.3283  0.3170  0.1091
  627TIP3    H123296   2.662   6.657  14.884 -2.3153  3.3760  0.3864
  627TIP3    H223297   2.708   6.666  15.028  1.2211 -0.5426 -0.3126
  628TIP3   OH223298   0.678   5.644  12.050 -0.3600 -0.1456  0.1089
  628TIP3    H123299   0.670   5.609  11.961 -1.7095  0.1643  0.0766
  628TIP3    H223300   0.714   5.572  12.101  0.2224 -0.4039 -0.6464
  629TIP3   OH223301   6.560   3.322   0.976 -0.6524 -0.1285  0.2948
  629TIP3    H123302   6.644   3.292   1.011 -0.3346  0.5295  0.1120
  629TIP3    H223303   6.546   3.269   0.898  1.0145  1.6736 -1.3324
  630TIP3   OH223304   1.894   4.253   4.586 -0.1319 -0.2211 -0.1460
  630TIP3    H123305   1.815   4.204   4.612  1.1072 -1.4527  1.4849
  630TIP3    H223306   1.957   4.185   4.561  0.1302  0.7830 -2.4994
  631TIP3   OH223307   6.634   1.835  13.311  0.1091  0.0623  0.3036
  631TIP3    H123308   6.702   1.798  13.255 -1.1726 -0.5093 -0.9124
  631TIP3    H223309   6.634   1.929  13.290  0.2275 -0.0054 -0.0067
  632TIP3   OH223310   0.246   1.104   3.284 -0.8553  0.0700 -0.1431
  632TIP3    H123311   0.324   1.160   3.287 -1.0777  0.3416  1.1643
  632TIP3    H223312   0.267   1.032   3.345 -2.2201  0.9711  1.4652
  633TIP3   OH223313   1.334   0.001   3.797 -0.1755  0.6446 -0.3652
  633TIP3    H123314   1.408  -0.036   3.749 -0.6438  0.6426 -1.1143
  633TIP3    H223315   1.258  -0.017   3.740 -1.1702 -1.6106  1.5101
  634TIP3   OH223316   2.226   3.316  16.054  0.2214 -0.5633  0.1539
  634TIP3    H123317   2.260   3.238  16.098 -0.7410 -0.0272  1.9398
  634TIP3    H223318   2.140   3.331  16.094  0.3972  1.4334 -0.1160
  635TIP3   OH223319   5.723   1.910  12.318 -0.4811  0.1323 -0.1187
  635TIP3    H123320   5.760   1.974  12.257 -1.6845  1.1993  0.2276
  635TIP3    H223321   5.794   1.848  12.334  0.6094  1.1822 -0.7316
  636TIP3   OH223322   6.383   2.418  12.537 -0.2944  0.0338  0.1417
  636TIP3    H123323   6.390   2.376  12.451 -0.6879 -0.6834  0.4467
  636TIP3    H223324   6.389   2.511  12.519  0.9281 -0.1503 -0.5271
  637TIP3   OH223325   4.240   0.240   0.289 -0.6877  0.4169 -0.0182
  637TIP3    H123326   4.325   0.283   0.298 -0.3626 -0.4030  0.9084
  637TIP3    H223327   4.176   0.308   0.312 -0.2355  0.6943  0.4194
  638TIP3   OH223328   4.738   1.142   1.952  0.4731  1.1554 -0.3739
  638TIP3    H123329   4.649   1.143   1.918  0.4247  1.4745 -0.2405
  638TIP3    H223330   4.740   1.065   2.010  0.2405  1.2305 -0.2627
  639TIP3   OH223331   1.038   1.561  13.648  0.1447 -0.0256 -0.1897
  639TIP3    H123332   1.037   1.655  13.664 -1.4423 -0.0143 -0.1907
  639TIP3    H223333   1.052   1.522  13.734 -1.0054  0.1989  0.1232
  640TIP3   OH223334   4.163   4.549   1.802 -0.0446 -0.0513 -0.3515
  640TIP3    H123335   4.128   4.632   1.833  0.5337  0.2266 -0.4268
  640TIP3    H223336   4.117   4.483   1.854  1.4342  0.4207  1.6665
  641TIP3   OH223337   1.078   0.556  13.621  0.0816  0.0228  0.2875
  641TIP3    H123338   1.028   0.627  13.580 -0.0809 -0.1418  0.2000
  641TIP3    H223339   1.140   0.528  13.554 -0.8119 -0.8768 -0.1795
  642TIP3   OH223340   5.390   3.121   1.481  0.3094  0.3026  0.3138
  642TIP3    H123341   5.417   3.065   1.554 -2.2498 -1.5982 -0.0263
  642TIP3    H223342   5.380   3.060   1.407 -3.4443  0.9058  0.1263
  643TIP3   OH223343   2.264   3.658  13.635 -0.3377 -0.3133 -0.0186
  643TIP3    H123344   2.322   3.658  13.558  0.0943 -2.6627  0.2201
  643TIP3    H223345   2.273   3.569  13.671 -0.9727  0.5385  2.4194
  644TIP3   OH223346   3.431   2.044  17.199  0.1739  0.2967 -0.2770
  644TIP3    H123347   3.354   2.041  17.142 -0.1760 -0.2116  0.2071
  644TIP3    H223348   3.504   2.065  17.141 -0.0746 -0.7876 -1.0155
  645TIP3   OH223349   2.705   5.555   1.431 -0.2066  0.5676 -0.0149
  645TIP3    H123350   2.784   5.582   1.384  0.5138 -1.1339  0.1473
  645TIP3    H223351   2.633   5.589   1.377  0.6182 -0.0818 -1.6012
  646TIP3   OH223352   0.248   5.774   4.488  0.5492  0.3479 -0.4832
  646TIP3    H123353   0.293   5.844   4.535 -1.5483  1.6656 -0.2734
  646TIP3    H223354   0.183   5.820   4.435 -0.9482 -1.4258 -0.2672
  647TIP3   OH223355   5.954   3.158  16.416  0.3882 -0.0854  0.6757
  647TIP3    H123356   5.907   3.190  16.492  2.3612  0.7625  1.6248
  647TIP3    H223357   5.957   3.232  16.356 -1.0776 -0.7218 -0.2188
  648TIP3   OH223358   4.048   5.823  15.333  0.2023  0.5327  0.0013
  648TIP3    H123359   4.029   5.904  15.381  0.1421 -0.1774  1.2144
  648TIP3    H223360   4.057   5.851  15.242  2.0740  2.2213  0.6286
  649TIP3   OH223361   2.818   6.379   1.833 -0.4324  0.3627 -0.1531
  649TIP3    H123362   2.898   6.385   1.781 -0.6584  0.7628 -0.4575
  649TIP3    H223363   2.754   6.341   1.773 -0.2931 -0.6140  0.2974
  650TIP3   OH223364   0.715   4.565  15.002 -0.3241  0.1380 -0.3987
  650TIP3    H123365   0.772   4.600  14.934 -1.8631 -1.7564 -2.8246
  650TIP3    H223366   0.627   4.580  14.970 -1.0911 -1.7048  0.7027
  651TIP3   OH223367   5.287   1.220   5.994  0.2493 -0.5052  0.1674
  651TIP3    H123368   5.327   1.227   6.081  1.2320 -1.8839 -0.1395
  651TIP3    H223369   5.353   1.177   5.941 -0.6971 -0.5198 -1.0336
  652TIP3   OH223370   1.549   6.140   4.930 -0.6491 -0.2521 -0.3844
  652TIP3    H123371   1.605   6.063   4.923  1.4999  0.9421  1.9363
  652TIP3    H223372   1.504   6.129   5.013 -0.3775  0.9009 -0.0615
  653TIP3   OH223373   2.365   4.609   4.062  0.3036  0.2312 -0.0697
  653TIP3    H123374   2.380   4.518   4.087 -1.9120 -0.3621 -0.6859
  653TIP3    H223375   2.359   4.656   4.145 -0.6110 -0.5715  0.3386
  654TIP3   OH223376   3.980   0.773  13.834  1.2482  0.1442  0.5830
  654TIP3    H123377   3.893   0.812  13.839  0.0310 -2.2147 -0.6816
  654TIP3    H223378   3.994   0.733  13.920  0.8693  0.0809  0.6150
  655TIP3   OH223379   5.828   5.248   2.906  0.5970 -0.0061 -0.0362
  655TIP3    H123380   5.754   5.212   2.955  0.0782  0.0088 -0.7854
  655TIP3    H223381   5.900   5.249   2.968  0.4422 -1.6713  0.2045
  656TIP3   OH223382   0.888   0.911   1.669  0.1104  0.0733 -0.1286
  656TIP3    H123383   0.796   0.893   1.653 -0.5234  2.7947  0.0662
  656TIP3    H223384   0.934   0.872   1.594 -1.2730 -0.4144 -0.7460
  657TIP3   OH223385   5.916   4.312   0.464  0.1165  0.0984  0.6016
  657TIP3    H123386   5.856   4.280   0.531  0.0664 -1.0348  0.0343
  657TIP3    H223387   5.863   4.318   0.384  0.4074  0.5021  0.4312
  658TIP3   OH223388   5.634   6.770   3.049 -0.2434  0.2178  0.2889
  658TIP3    H123389   5.626   6.676   3.029 -0.0908  0.1604  0.5089
  658TIP3    H223390   5.604   6.813   2.968  0.4420 -0.0185 -0.0997
  659TIP3   OH223391   2.215   1.948  10.692 -0.0225  0.2217  0.2933
  659TIP3    H123392   2.140   1.969  10.747  0.7197 -1.4114  2.0596
  659TIP3    H223393   2.177   1.916  10.610 -1.1640  2.7017 -0.2242
  660TIP3   OH223394   2.659   6.046  12.949 -0.0067 -1.0818 -0.1762
  660TIP3    H123395   2.624   6.106  12.883 -0.4917 -2.4768 -1.2169
  660TIP3    H223396   2.591   6.043  13.017  0.0740 -0.3798 -0.0557
  661TIP3   OH223397   5.613   4.622  15.397 -0.6148 -0.1272  0.0573
  661TIP3    H123398   5.540   4.630  15.336 -0.6412  0.6252  0.1756
  661TIP3    H223399   5.597   4.541  15.444 -0.7558 -0.5551 -0.7204
  662TIP3   OH223400   1.857   0.077   0.820  0.9149 -0.0898 -0.9752
  662TIP3    H123401   1.941   0.113   0.848 -0.2697  4.1720 -2.1379
  662TIP3    H223402   1.807   0.068   0.901  2.2100 -2.2670 -0.3237
  663TIP3   OH223403   5.593   1.569   4.305  0.2084  0.1054 -0.2731
  663TIP3    H123404   5.632   1.651   4.335  0.7554 -0.1800 -0.1963
  663TIP3    H223405   5.648   1.543   4.231  0.0006 -0.1650 -0.3310
  664TIP3   OH223406   0.775   2.372  15.857 -0.4553  0.2350  0.0822
  664TIP3    H123407   0.743   2.461  15.870 -1.6775 -0.3612  1.3387
  664TIP3    H223408   0.774   2.360  15.762 -2.7933  0.7019 -0.0012
  665TIP3   OH223409   2.771   0.048  12.775 -0.5595 -0.5203  0.2373
  665TIP3    H123410   2.697   0.008  12.820 -0.1346 -2.1393 -0.4580
  665TIP3    H223411   2.823   0.087  12.845 -1.7305  0.1387  0.7824
  666TIP3   OH223412   5.767   5.590  12.732 -0.3409 -0.5429 -0.3862
  666TIP3    H123413   5.678   5.580  12.699 -0.3932 -1.3232 -0.0178
  666TIP3    H223414   5.820   5.533  12.676 -0.3198 -1.3082  0.3858
  667TIP3   OH223415   3.709   5.204   3.227 -0.1821 -0.1293  0.0296
  667TIP3    H123416   3.666   5.251   3.156  0.6985 -0.0557 -0.4689
  667TIP3    H223417   3.788   5.254   3.245  0.3391 -0.9385  0.0656
  668TIP3   OH223418   3.607   1.212  13.079 -1.2472 -0.6437 -0.1455
  668TIP3    H123419   3.625   1.118  13.086  1.8789 -0.0877  0.7024
  668TIP3    H223420   3.557   1.233  13.158 -2.7809 -1.6837 -0.7871
  669TIP3   OH223421   4.924   2.120  13.845  0.4561 -0.4136 -0.3086
  669TIP3    H123422   4.911   2.128  13.940 -0.0318 -0.9971 -0.3144
  669TIP3    H223423   5.018   2.106  13.835  0.3840 -1.3789  0.1821
  670TIP3   OH223424   2.763   1.280   4.585 -0.4214 -0.4951  0.3818
  670TIP3    H123425   2.701   1.221   4.629 -0.2712 -0.2556  0.9227
  670TIP3    H223426   2.776   1.352   4.647  1.6676 -1.3341  1.0281
  671TIP3   OH223427   1.809   5.159   2.977  0.3243 -0.2577  0.0492
  671TIP3    H123428   1.746   5.124   3.040  0.5225  0.0088  0.3993
  671TIP3    H223429   1.797   5.106   2.898  0.1186 -0.6346  0.3333
  672TIP3   OH223430   6.203   3.131  13.183 -0.1520 -0.3636 -0.4604
  672TIP3    H123431   6.234   3.077  13.256 -0.3382 -0.5223 -0.4984
  672TIP3    H223432   6.270   3.199  13.174 -0.7847  0.4475  0.7112
  673TIP3   OH223433   4.106   1.543  13.034  0.7906 -0.7850  0.2088
  673TIP3    H123434   4.185   1.557  13.086  1.0730 -0.4508 -0.3007
  673TIP3    H223435   4.093   1.448  13.035  0.2050 -0.7239  1.7221
  674TIP3   OH223436   2.020   4.143  12.568  0.2841  0.0082  0.6317
  674TIP3    H123437   2.074   4.210  12.610  2.9284 -1.2244 -0.5541
  674TIP3    H223438   1.978   4.097  12.640  1.7133  0.3508  1.7266
  675TIP3   OH223439   4.945   1.161  11.666  0.9422  0.4568 -0.5182
  675TIP3    H123440   5.014   1.211  11.622 -0.1662  1.1789 -1.4766
  675TIP3    H223441   4.896   1.120  11.595  0.0365  0.4110  0.1218
  676TIP3   OH223442   4.947   4.862  13.260 -0.2716  0.1418  0.2720
  676TIP3    H123443   4.975   4.919  13.332 -0.5926  0.6654 -0.0099
  676TIP3    H223444   5.028   4.823  13.228 -0.2040 -0.7401  1.4402
  677TIP3   OH223445   3.514   4.415  11.112 -0.1227 -0.2951 -0.2129
  677TIP3    H123446   3.538   4.433  11.203  0.6528  2.5413 -0.8750
  677TIP3    H223447   3.595   4.387  11.070 -0.3977 -1.2434 -0.1165
  678TIP3   OH223448   4.536   2.099   5.492  0.1845 -0.1441  0.0289
  678TIP3    H123449   4.577   2.132   5.572  1.5835  0.1672 -0.7866
  678TIP3    H223450   4.520   2.178   5.439 -0.2176 -0.3969 -0.2342
  679TIP3   OH223451   5.879   4.868  14.088  0.2524  0.0053  0.5029
  679TIP3    H123452   5.889   4.875  13.993  2.3493 -0.1277  0.6618
  679TIP3    H223453   5.807   4.805  14.100  0.6271 -0.7580 -0.9972
  680TIP3   OH223454   1.526   6.386   0.294 -0.0872 -0.5147 -0.3015
  680TIP3    H123455   1.435   6.358   0.292  0.1129 -1.4541  1.6373
  680TIP3    H223456   1.537   6.437   0.214 -2.3266 -0.3075 -0.5380
  681TIP3   OH223457   4.123   5.543   0.362  0.2765 -0.0434 -0.4580
  681TIP3    H123458   4.048   5.603   0.359  0.4443  0.3975  2.0313
  681TIP3    H223459   4.106   5.480   0.291 -1.8693  0.6940 -0.6805
  682TIP3   OH223460   2.643   3.029   1.689 -1.0006  0.2349 -0.2790
  682TIP3    H123461   2.685   3.113   1.670 -0.4797  0.8408  2.9487
  682TIP3    H223462   2.554   3.038   1.655 -0.3915  1.3015 -1.7112
  683TIP3   OH223463   5.049   1.132  15.203  0.4013  0.2986  0.1812
  683TIP3    H123464   5.114   1.182  15.253 -0.7798 -0.2589  2.3629
  683TIP3    H223465   5.101   1.089  15.135  1.8082  2.4767 -0.2313
  684TIP3   OH223466   5.784   4.404  15.736 -0.3566  0.2109  1.2128
  684TIP3    H123467   5.796   4.310  15.726  0.1001  0.2505  1.3649
  684TIP3    H223468   5.861   4.443  15.694 -1.6796  0.6231 -1.0018
  685TIP3   OH223469   3.761   4.497   3.262 -0.1809 -0.1923  0.6260
  685TIP3    H123470   3.735   4.481   3.171  0.5204  0.5328  0.2836
  685TIP3    H223471   3.837   4.441   3.276  0.3436  0.4571  0.4276
  686TIP3   OH223472   4.494   5.749  10.407 -0.3627  0.7296  0.1505
  686TIP3    H123473   4.423   5.721  10.348  0.6021  0.3950 -0.8834
  686TIP3    H223474   4.558   5.790  10.349  1.1842 -0.7062  0.7684
  687TIP3   OH223475   5.041   4.992  14.609 -0.3851  0.7503  0.2871
  687TIP3    H123476   5.109   5.022  14.668 -1.2491 -2.5479  3.2408
  687TIP3    H223477   5.087   4.943  14.541  0.3001 -0.2605  1.4611
  688TIP3   OH223478   2.473   2.933  16.241  0.2564  0.1724  1.0216
  688TIP3    H123479   2.500   2.996  16.173  0.8200  0.7554  1.7759
  688TIP3    H223480   2.499   2.974  16.323 -1.0203 -0.2230  1.6437
  689TIP3   OH223481   3.693   5.885  16.229  0.1229 -0.0040 -0.0929
  689TIP3    H123482   3.690   5.980  16.230  2.2440  0.1458 -1.5268
  689TIP3    H223483   3.603   5.858  16.242 -0.6376  2.2187 -0.3628
  690TIP3   OH223484   3.714   1.906   5.219  0.3030 -0.4393 -0.0877
  690TIP3    H123485   3.782   1.927   5.283  0.2895  2.8322 -0.9842
  690TIP3    H223486   3.761   1.859   5.150  0.9522 -1.1556  0.8140
  691TIP3   OH223487   4.172   3.075   5.591 -0.4082 -0.3336  0.0915
  691TIP3    H123488   4.236   3.077   5.519  0.2385  1.1302  0.6624
  691TIP3    H223489   4.182   3.160   5.634 -0.0364 -1.5108  2.5430
  692TIP3   OH223490   2.838   2.772   0.150 -0.0418  0.8898 -0.0821
  692TIP3    H123491   2.925   2.770   0.189 -0.0430  2.1725  0.0374
  692TIP3    H223492   2.778   2.774   0.225 -0.1666  0.3598 -0.1634
  693TIP3   OH223493   0.201   0.820   2.799 -0.3120 -0.2546  0.3098
  693TIP3    H123494   0.287   0.846   2.831  0.0816  2.0412 -2.2672
  693TIP3    H223495   0.141   0.884   2.838 -0.7423 -1.1748  1.2125
  694TIP3   OH223496   1.972   1.051  15.183 -0.3117 -0.6953  0.6357
  694TIP3    H123497   1.954   1.145  15.174 -1.4965 -1.0458 -1.3140
  694TIP3    H223498   1.912   1.009  15.121  2.3107 -2.5236 -0.8476
  695TIP3   OH223499   4.970   5.058   3.019  0.4123 -0.4005 -0.7116
  695TIP3    H123500   4.917   5.071   3.098  0.3296  0.8403 -0.9533
  695TIP3    H223501   4.989   4.964   3.018  1.2610 -0.2950  1.3073
  696TIP3   OH223502   1.911   1.559   2.762 -0.1954 -0.2717  0.3557
  696TIP3    H123503   1.876   1.492   2.703  3.3503 -2.0512 -0.0080
  696TIP3    H223504   1.843   1.570   2.829 -1.8007 -2.6961 -0.7322
  697TIP3   OH223505   1.661   4.058   6.869 -0.4600  0.4182  0.0167
  697TIP3    H123506   1.755   4.042   6.872 -0.5866 -0.8537 -1.6043
  697TIP3    H223507   1.621   3.972   6.884 -1.3338  0.6920 -0.6280
  698TIP3   OH223508   3.966   0.554  14.094 -0.0837  0.0533  0.5398
  698TIP3    H123509   3.908   0.535  14.168 -0.3847  0.7986  0.5062
  698TIP3    H223510   3.924   0.511  14.019 -0.3166  0.1563  0.6113
  699TIP3   OH223511   3.305   1.853  12.263 -0.8736  0.1912 -0.2749
  699TIP3    H123512   3.318   1.917  12.192  0.5921  0.5749  0.2922
  699TIP3    H223513   3.249   1.786  12.225 -2.4364  1.7792 -0.9090
  700TIP3   OH223514   2.608   6.408   4.878  0.4400 -0.1396  0.3293
  700TIP3    H123515   2.519   6.410   4.844 -0.3749  0.6844  2.3193
  700TIP3    H223516   2.658   6.465   4.819 -0.3672 -0.5144 -0.7361
  701TIP3   OH223517   6.310   4.286  16.412  0.3988 -0.0510 -0.3084
  701TIP3    H123518   6.360   4.361  16.380  1.4799 -0.0802  1.2284
  701TIP3    H223519   6.250   4.322  16.477  0.9101 -0.4962  0.4252
  702TIP3   OH223520   1.650   6.552  13.776  0.2208 -0.0932 -0.0532
  702TIP3    H123521   1.716   6.609  13.737  0.8274 -0.5347  0.3023
  702TIP3    H223522   1.583   6.611  13.810 -0.6907  0.3189 -2.3191
  703TIP3   OH223523   5.260   1.342  15.562  0.3671 -0.1495 -0.1430
  703TIP3    H123524   5.231   1.257  15.594 -1.5033 -0.0965 -1.5620
  703TIP3    H223525   5.355   1.341  15.574  0.4520 -2.6350 -0.5849
  704TIP3   OH223526   3.850   0.498  14.340 -0.4852 -0.3586 -0.7068
  704TIP3    H123527   3.940   0.465  14.346 -0.5176 -0.3172  0.0913
  704TIP3    H223528   3.799   0.440  14.397 -0.7019  0.4813 -0.0146
  705TIP3   OH223529   3.953   2.555   2.077 -0.2389  0.2257  0.5164
  705TIP3    H123530   4.029   2.612   2.064 -0.2772  0.3833  0.9813
  705TIP3    H223531   3.989   2.472   2.107 -0.1931  0.0411 -0.0360
  706TIP3   OH223532   6.424   4.092   4.911 -0.2708 -0.6617 -0.2186
  706TIP3    H123533   6.435   4.187   4.907  0.7508 -0.8039 -1.5129
  706TIP3    H223534   6.353   4.079   4.973 -1.4858  1.0361 -1.1535
  707TIP3   OH223535   5.060   5.267   4.017 -0.1672 -0.1316 -0.8576
  707TIP3    H123536   5.077   5.184   3.972 -1.4998 -0.2133 -1.2488
  707TIP3    H223537   4.971   5.291   3.990 -0.5426  0.4395  0.7988
  708TIP3   OH223538   1.287   0.895  10.300 -0.3763  0.1361 -0.2983
  708TIP3    H123539   1.377   0.905  10.270 -0.1289 -0.6828  0.1241
  708TIP3    H223540   1.295   0.858  10.388 -1.1236 -2.1215 -1.1113
  709TIP3   OH223541   4.529   3.391  15.141  0.2101  0.1933  0.1655
  709TIP3    H123542   4.447   3.365  15.184  1.7838 -1.2629  2.4465
  709TIP3    H223543   4.503   3.465  15.085 -2.8642 -0.9358 -0.1282
  710TIP3   OH223544   3.961   1.580   0.261 -0.4847  0.1817  0.2676
  710TIP3    H123545   4.032   1.541   0.211  0.9118  2.5349  0.3102
  710TIP3    H223546   3.898   1.609   0.194 -0.6180 -0.3551  0.1480
  711TIP3   OH223547   0.265   3.056  11.151 -0.5324  0.1960  0.1299
  711TIP3    H123548   0.213   2.989  11.107 -2.2808  1.1006  0.7517
  711TIP3    H223549   0.291   3.017  11.234  0.3359 -0.4794 -0.4452
  712TIP3   OH223550   4.180   3.268  14.004  0.1722  1.2618 -0.0259
  712TIP3    H123551   4.242   3.289  14.073 -0.1976  1.6412  0.1988
  712TIP3    H223552   4.174   3.172  14.005  0.8384  1.2134 -0.1345
  713TIP3   OH223553   6.583   0.200  13.778 -0.0579  0.3003  0.0299
  713TIP3    H123554   6.525   0.124  13.773 -1.0605  1.0367  0.1281
  713TIP3    H223555   6.564   0.237  13.864  0.1980  0.8378 -0.1471
  714TIP3   OH223556   5.928   2.272   3.107  0.3935 -0.1781 -0.3313
  714TIP3    H123557   5.942   2.197   3.049 -1.1554 -0.2859 -0.6208
  714TIP3    H223558   5.928   2.235   3.195 -2.4825 -0.9525 -0.5645
  715TIP3   OH223559   3.254   5.685  16.344 -0.4279  0.7533  0.2431
  715TIP3    H123560   3.183   5.685  16.409 -0.0696  0.0975  0.6487
  715TIP3    H223561   3.225   5.623  16.277  0.5884 -1.0676  1.3840
  716TIP3   OH223562   2.006   1.288   1.872  0.0411  0.0699 -0.2415
  716TIP3    H123563   1.944   1.342   1.823  0.9298  1.8625  0.5172
  716TIP3    H223564   1.966   1.277   1.958  0.4806  0.7096  0.0505
  717TIP3   OH223565   2.421   2.094  14.304 -0.5027  0.1465  0.2974
  717TIP3    H123566   2.394   2.174  14.348 -0.5882  0.0870  0.3562
  717TIP3    H223567   2.344   2.068  14.253  0.5654  1.8934 -2.4113
  718TIP3   OH223568   0.528   2.065  15.767  0.2081 -0.1217  0.7471
  718TIP3    H123569   0.522   2.094  15.676 -1.2756 -0.8176  0.5955
  718TIP3    H223570   0.457   2.002  15.777  1.2820 -1.1966  1.9840
  719TIP3   OH223571   3.997   1.974   0.798  0.0985  0.0519 -0.3477
  719TIP3    H123572   4.015   1.985   0.891  0.0413 -2.8061  0.0949
  719TIP3    H223573   3.915   2.020   0.784  0.1964  0.6821  0.9738
  720TIP3   OH223574   0.115   0.736  13.691 -0.0026  0.3730  0.1480
  720TIP3    H123575   0.194   0.781  13.722 -0.8576  1.8022  0.3592
  720TIP3    H223576   0.109   0.658  13.746  0.5738  0.8948  0.9849
  721TIP3   OH223577   5.197   1.892  12.801  0.3482 -0.4227 -0.0462
  721TIP3    H123578   5.241   1.949  12.738  0.5964  0.4358  0.8921
  721TIP3    H223579   5.123   1.856  12.752  0.6427  0.0697 -0.8891
  722TIP3   OH223580   5.729   1.304  15.902 -0.3154 -0.1816 -0.5438
  722TIP3    H123581   5.743   1.271  15.813  0.9961  0.0150 -0.4293
  722TIP3    H223582   5.652   1.256  15.933 -1.3699  0.4188 -2.1018
  723TIP3   OH223583   3.906   0.486  11.957  0.1458 -0.0522 -0.2110
  723TIP3    H123584   3.882   0.578  11.959  1.0740  0.3156 -2.4613
  723TIP3    H223585   4.001   0.486  11.945  0.2344 -1.3227  0.3374
  724TIP3   OH223586   3.802   4.924  14.340  0.4302 -0.0250  0.1305
  724TIP3    H123587   3.743   4.943  14.267  1.5398  1.5317 -0.4375
  724TIP3    H223588   3.885   4.902  14.297  0.2681 -2.4402  0.8991
  725TIP3   OH223589   0.261   4.732  14.757  0.0283 -0.0871 -0.3942
  725TIP3    H123590   0.189   4.795  14.757  0.2757  0.1981 -0.5536
  725TIP3    H223591   0.234   4.665  14.820 -0.4650 -0.0878 -0.6051
  726TIP3   OH223592   0.933   0.742   4.147  0.8344 -0.2415 -0.3465
  726TIP3    H123593   0.959   0.827   4.110  0.6935  0.2624  0.6802
  726TIP3    H223594   1.011   0.711   4.192  0.8485 -0.6082 -0.6213
  727TIP3   OH223595   1.327   6.388   4.852  0.1149  0.6443  0.3800
  727TIP3    H123596   1.307   6.354   4.939  2.6013 -0.7874  0.4901
  727TIP3    H223597   1.422   6.402   4.853  0.3724 -0.2979 -2.3641
  728TIP3   OH223598   1.561   0.796  14.417 -0.3782  0.0613  0.0770
  728TIP3    H123599   1.597   0.778  14.331 -1.0770  0.6222 -0.3465
  728TIP3    H223600   1.466   0.802  14.402 -0.4609  0.6242  0.8026
  729TIP3   OH223601   4.237   0.036  12.435  0.2514 -0.4902  0.0639
  729TIP3    H123602   4.203   0.124  12.450 -0.5696 -0.7283 -0.3736
  729TIP3    H223603   4.274   0.011  12.520  0.5554  0.2919  0.1772
  730TIP3   OH223604   6.062   3.846  17.039  0.1940  0.0582 -0.1768
  730TIP3    H123605   6.018   3.924  17.005 -0.2406  1.0333  2.4180
  730TIP3    H223606   5.997   3.777  17.033 -0.9083  0.9110  1.3546
  731TIP3   OH223607   3.062   0.005  12.585 -0.1181 -0.8064 -0.0967
  731TIP3    H123608   3.116  -0.059  12.630 -2.1454 -0.7956  2.5444
  731TIP3    H223609   3.092   0.090  12.618  0.9096 -0.4785 -1.7377
  732TIP3   OH223610   3.482   1.603   0.687 -0.2127 -0.5246  0.3357
  732TIP3    H123611   3.465   1.539   0.617  2.9056 -2.5885  1.2499
  732TIP3    H223612   3.448   1.562   0.766 -1.0849  0.4738  0.4991
  733TIP3   OH223613   6.019   4.901   0.046 -0.0204  0.7409 -0.4255
  733TIP3    H123614   5.942   4.937   0.091 -0.1021 -0.6151  0.5941
  733TIP3    H223615   6.034   4.817   0.089  0.7737  0.0264 -2.0298
  734TIP3   OH223616   4.597   1.868  13.966 -0.4006 -0.8389 -0.0917
  734TIP3    H123617   4.528   1.931  13.948  1.3541  1.5315  0.9025
  734TIP3    H223618   4.656   1.875  13.890  1.7821  1.7210  1.6631
  735TIP3   OH223619   5.861   5.602   0.056  0.1269 -0.3211 -0.0850
  735TIP3    H123620   5.851   5.660  -0.019 -0.5301  0.1235  0.3282
  735TIP3    H223621   5.777   5.557   0.063 -0.5839  1.1195  1.5623
  736TIP3   OH223622   6.456   1.101   0.170 -0.5946 -1.3357  0.4950
  736TIP3    H123623   6.549   1.100   0.190 -0.5988 -0.0030  0.7263
  736TIP3    H223624   6.420   1.025   0.215  0.2528 -1.3732  1.1317
  737TIP3   OH223625   5.709   1.229   2.604 -0.5120  0.1587 -0.4429
  737TIP3    H123626   5.672   1.156   2.554 -0.7275 -0.5504  0.7036
  737TIP3    H223627   5.784   1.190   2.650 -0.2695  0.8049 -0.2792
  738TIP3   OH223628   1.997   4.270  16.650  0.3084 -0.4203  0.7765
  738TIP3    H123629   2.010   4.319  16.731  0.6111  0.2928  0.3124
  738TIP3    H223630   2.054   4.314  16.587  0.8599 -1.6066  0.4343
  739TIP3   OH223631   3.293   0.959  11.494  0.1796 -0.1604 -0.8592
  739TIP3    H123632   3.357   1.003  11.438 -0.6088  0.6721 -1.1177
  739TIP3    H223633   3.344   0.931  11.570  0.9999 -0.1838 -1.4063
  740TIP3   OH223634   2.287   2.772   3.421  0.1032  0.2040 -0.0916
  740TIP3    H123635   2.337   2.692   3.439 -0.2474  0.1863  0.8560
  740TIP3    H223636   2.227   2.747   3.350  1.5553  0.2827 -1.3830
  741TIP3   OH223637   6.469   0.799  13.643 -0.1650  0.0330 -0.5304
  741TIP3    H123638   6.420   0.779  13.564  0.1806  1.5618 -1.1646
  741TIP3    H223639   6.543   0.852  13.613 -0.0088  0.6106  0.8060
  742TIP3   OH223640   3.927   1.379   1.935  0.2288 -0.0989  0.1924
  742TIP3    H123641   3.882   1.297   1.912 -0.9730  0.7473 -0.5732
  742TIP3    H223642   3.900   1.396   2.025  0.6255 -0.6312  0.4160
  743TIP3   OH223643   5.996   4.674   0.246  0.5345  0.0924 -0.1340
  743TIP3    H123644   5.908   4.636   0.233  0.7885 -0.2838 -0.7814
  743TIP3    H223645   6.054   4.598   0.246  0.7995  0.2774  0.9696
  744TIP3   OH223646   5.163   3.781  13.331  0.2282 -0.0317  0.4058
  744TIP3    H123647   5.183   3.785  13.238  0.2814 -0.4939  0.3969
  744TIP3    H223648   5.235   3.731  13.370  0.5666  0.7384  0.8043
  745TIP3   OH223649   1.509   0.088  14.451 -0.0475  0.2048 -0.4450
  745TIP3    H123650   1.429   0.070  14.499  0.5113  0.0763  0.4527
  745TIP3    H223651   1.482   0.147  14.380 -1.0159 -0.2358 -0.4584
  746TIP3   OH223652   0.643   0.539   6.070 -0.2240  0.0019 -0.4518
  746TIP3    H123653   0.548   0.527   6.064  0.0973 -3.5856 -0.7004
  746TIP3    H223654   0.674   0.461   6.117  2.5509  1.4966  0.3972
  747TIP3   OH223655   0.832   3.625  13.406  0.3391 -0.5220 -0.5419
  747TIP3    H123656   0.871   3.686  13.343  0.3125  0.8768  0.7391
  747TIP3    H223657   0.889   3.630  13.483 -2.0095  1.2727  1.2348
  748TIP3   OH223658   3.446   4.917  16.500 -0.0606  0.3368 -0.3157
  748TIP3    H123659   3.530   4.952  16.471 -0.4298  2.1523  0.6562
  748TIP3    H223660   3.468   4.858  16.572  0.3465  1.9172  0.9277
  749TIP3   OH223661   0.304   0.548   1.484 -0.3511  0.0616 -0.1469
  749TIP3    H123662   0.253   0.615   1.438 -1.5532 -1.3280 -0.9100
  749TIP3    H223663   0.366   0.516   1.419 -0.0150  0.1809  0.1132
  750TIP3   OH223664   0.571   4.153   3.268 -0.0070 -0.2418  0.3834
  750TIP3    H123665   0.659   4.134   3.300  0.4739 -0.3333 -0.9077
  750TIP3    H223666   0.545   4.232   3.315  1.3605  0.6157 -0.2274
  751TIP3   OH223667   5.651   5.666  14.577 -0.0204  0.5327  0.0271
  751TIP3    H123668   5.612   5.724  14.643  1.2699  2.3393 -0.6885
  751TIP3    H223669   5.720   5.620  14.624 -1.0822 -0.4967  0.6165
  752TIP3   OH223670   4.706   3.813  11.914  0.0820  0.1925 -0.0385
  752TIP3    H123671   4.697   3.887  11.853  1.7522  0.9564  0.5569
  752TIP3    H223672   4.651   3.836  11.988  0.4179  0.7660  0.0462
  753TIP3   OH223673   4.380   4.464   2.450 -0.2399  0.4289  0.3334
  753TIP3    H123674   4.472   4.446   2.466 -0.4170 -1.2509 -0.2936
  753TIP3    H223675   4.372   4.559   2.457  1.3420  0.5198  1.3231
  754TIP3   OH223676   3.009   1.890   2.449  0.2007 -0.1973 -0.0123
  754TIP3    H123677   2.973   1.906   2.537  0.7594 -0.0467  0.1913
  754TIP3    H223678   3.095   1.932   2.450 -0.2857  0.8909 -1.0439
  755TIP3   OH223679   1.117   1.311   5.521  0.0548  0.0170 -0.1922
  755TIP3    H123680   1.120   1.247   5.592  2.7152  0.1546 -0.0969
  755TIP3    H223681   1.148   1.264   5.444 -0.7335  0.4516 -0.7891
  756TIP3   OH223682   2.686   4.805   4.154 -0.1311 -0.2622  0.0295
  756TIP3    H123683   2.616   4.864   4.182 -1.4461  0.2971 -3.7687
  756TIP3    H223684   2.673   4.725   4.204 -1.6583  0.8543  1.5063
  757TIP3   OH223685   6.581   3.724  12.634  0.2347 -0.0630 -0.2108
  757TIP3    H123686   6.530   3.702  12.556 -0.2823  1.8419 -0.4672
  757TIP3    H223687   6.546   3.667  12.703 -0.4185 -0.6349 -1.0008
  758TIP3   OH223688   3.933   0.486   2.091  0.5212  0.1759  0.1338
  758TIP3    H123689   3.957   0.418   2.029  0.4110  1.1946 -1.0646
  758TIP3    H223690   3.848   0.518   2.060 -0.3062 -0.3526  1.7311
  759TIP3   OH223691   3.149   4.992  11.993  0.1063  0.2876 -0.8175
  759TIP3    H123692   3.213   4.921  11.984  1.1394  0.8739  1.1936
  759TIP3    H223693   3.172   5.034  12.075 -3.3820  0.0416  0.4709
  760TIP3   OH223694   4.532   0.523   2.011  0.1462 -0.2573 -0.0250
  760TIP3    H123695   4.502   0.589   2.074 -0.8389 -0.1937 -0.5345
  760TIP3    H223696   4.497   0.553   1.927  1.4707 -0.3210 -0.6145
  761TIP3   OH223697   0.524   1.695  16.578 -0.4138 -0.9022 -0.2739
  761TIP3    H123698   0.551   1.627  16.516  0.1194 -1.8796  1.0122
  761TIP3    H223699   0.567   1.673  16.660 -2.0044 -0.2865  0.7874
  762TIP3   OH223700   0.688   3.885   2.417 -0.1598 -0.2022  0.3083
  762TIP3    H123701   0.715   3.839   2.497 -1.5633  0.8544  1.4486
  762TIP3    H223702   0.608   3.932   2.442  0.4839  1.8142 -1.1281
  763TIP3   OH223703   2.958   5.893  11.330  0.3255  0.0333 -0.1912
  763TIP3    H123704   2.994   5.822  11.384  1.4182 -0.0334 -0.9761
  763TIP3    H223705   2.877   5.918  11.375  1.0941 -0.1481  1.3625
  764TIP3   OH223706   1.106   6.697   2.252 -0.0716  0.1670 -0.2045
  764TIP3    H123707   1.188   6.689   2.205  0.7492 -0.2159  1.2205
  764TIP3    H223708   1.130   6.688   2.344 -1.4312  2.0833  0.4099
  765TIP3   OH223709   5.889   2.147   1.879 -0.0346 -0.2119 -0.1406
  765TIP3    H123710   5.860   2.105   1.797  1.3952  1.4617 -1.5757
  765TIP3    H223711   5.826   2.216   1.894 -1.1361 -1.4151  1.0341
  766TIP3   OH223712   4.404   1.710   3.516  0.7178 -0.6947  0.0235
  766TIP3    H123713   4.440   1.644   3.456  0.7181  1.2123 -2.1942
  766TIP3    H223714   4.325   1.741   3.472  0.6034  0.6361  1.1218
  767TIP3   OH223715   1.509   4.692   1.222 -0.2670  0.0029  0.3327
  767TIP3    H123716   1.555   4.609   1.208 -0.2740 -0.7018  3.5510
  767TIP3    H223717   1.577   4.759   1.214  0.8212 -0.7859  2.1623
  768TIP3   OH223718   4.618   4.274   5.090  0.7341  0.0061 -0.9471
  768TIP3    H123719   4.647   4.362   5.069  0.2617  0.5704  0.6453
  768TIP3    H223720   4.660   4.254   5.174  0.6039 -1.1782 -1.1393
  769TIP3   OH223721   0.556   1.984   4.449  0.1112 -0.4129 -0.4996
  769TIP3    H123722   0.552   1.942   4.363  1.0571  0.2925 -0.9011
  769TIP3    H223723   0.535   2.076   4.432  0.5407 -0.2187 -0.0120
  770TIP3   OH223724   5.567   3.393  12.146  0.0972  0.2972 -0.0016
  770TIP3    H123725   5.515   3.471  12.166  2.2642  1.4586  1.5203
  770TIP3    H223726   5.597   3.362  12.232 -1.4218 -2.8498 -0.4553
  771TIP3   OH223727   1.195   2.439  14.295 -0.2045  0.3264 -0.0478
  771TIP3    H123728   1.175   2.533  14.291 -0.3286  0.3477  0.8453
  771TIP3    H223729   1.137   2.399  14.230 -0.1619  0.8697 -0.4213
  772TIP3   OH223730   4.807   2.562   5.775  0.1870  0.6920 -0.2333
  772TIP3    H123731   4.773   2.647   5.748  2.9090  1.0400 -3.1546
  772TIP3    H223732   4.850   2.579   5.858 -2.0629  1.3622  0.8679
  773TIP3   OH223733   1.041   4.847  14.605  0.3290  0.8598 -0.3850
  773TIP3    H123734   1.030   4.935  14.568  1.1500  0.9868 -0.3656
  773TIP3    H223735   1.135   4.840  14.621  0.3473 -0.2039 -0.8354
  774TIP3   OH223736   2.624   6.752  13.120  0.0759 -0.1663 -0.2912
  774TIP3    H123737   2.660   6.664  13.112  0.8493  0.3033 -3.7613
  774TIP3    H223738   2.699   6.810  13.106 -0.6755  1.0414  0.4656
  775TIP3   OH223739   5.495   0.505  15.362  0.1501 -0.6013  0.4581
  775TIP3    H123740   5.441   0.511  15.441 -1.4474 -0.1354 -0.6390
  775TIP3    H223741   5.583   0.529  15.392  0.0184 -2.3333  2.4907
  776TIP3   OH223742   0.931   2.556   1.821 -0.9947  0.2549  0.0888
  776TIP3    H123743   0.852   2.505   1.799 -1.5973  0.7744  0.9739
  776TIP3    H223744   0.898   2.628   1.875  0.3015 -0.6250  2.1984
  777TIP3   OH223745   4.691   3.335   3.820  0.3124  0.1795 -0.3379
  777TIP3    H123746   4.667   3.277   3.891 -0.2514 -0.4233 -1.0111
  777TIP3    H223747   4.681   3.283   3.741 -2.0177  1.6698 -1.1450
  778TIP3   OH223748   1.209   4.910   5.880  0.2327 -0.3049 -0.1699
  778TIP3    H123749   1.274   4.962   5.928 -0.8854  0.4686  0.5489
  778TIP3    H223750   1.126   4.956   5.894 -0.6509 -1.8015 -0.2542
  779TIP3   OH223751   1.366   6.566  11.164  0.0624  0.0097  0.1756
  779TIP3    H123752   1.428   6.553  11.092  0.5916 -1.2584  0.8267
  779TIP3    H223753   1.284   6.529  11.133 -0.4987  1.9327 -0.7938
  780TIP3   OH223754   5.421   1.146  16.680  0.6376  0.1508  0.1552
  780TIP3    H123755   5.434   1.052  16.680 -0.1090  0.0414 -0.0194
  780TIP3    H223756   5.431   1.172  16.589 -1.5630 -0.1233 -0.2003
  781TIP3   OH223757   2.174   5.863  15.819 -0.0048  0.2402 -0.5187
  781TIP3    H123758   2.147   5.787  15.767 -4.3673  1.9052 -1.1230
  781TIP3    H223759   2.168   5.833  15.910  0.5762 -0.7468 -0.7992
  782TIP3   OH223760   4.875   6.414  17.092  0.6789  0.1845 -0.4945
  782TIP3    H123761   4.830   6.329  17.091  2.9783 -1.1308 -0.6497
  782TIP3    H223762   4.814   6.474  17.133 -1.1382 -1.4876 -0.6201
  783TIP3   OH223763   6.352   1.031   0.909  0.6029  0.0907  0.4458
  783TIP3    H123764   6.339   1.119   0.873  1.4444 -0.5941 -1.7280
  783TIP3    H223765   6.338   0.973   0.834 -2.4587 -1.8900  2.3393
  784TIP3   OH223766   2.960   0.821   6.082  0.0581 -0.4928 -0.1742
  784TIP3    H123767   2.891   0.882   6.058  0.0628 -0.7659 -0.8874
  784TIP3    H223768   3.011   0.868   6.149  0.0591  0.2840 -0.7095
  785TIP3   OH223769   0.794   6.023  14.023 -0.0299 -0.4571 -0.4935
  785TIP3    H123770   0.722   6.048  13.965 -1.1143  0.3477  1.1111
  785TIP3    H223771   0.831   6.106  14.053 -0.1105 -0.8180  0.6637
  786TIP3   OH223772   2.018   4.789  15.439 -0.0166 -0.3493  0.1502
  786TIP3    H123773   2.011   4.878  15.403  0.3133 -0.6690 -0.7346
  786TIP3    H223774   2.103   4.757  15.409 -0.1694 -1.0015  0.3901
  787TIP3   OH223775   0.437   2.282  15.286  0.3037  0.3932  0.1621
  787TIP3    H123776   0.481   2.361  15.256  2.2043 -1.0429 -1.0744
  787TIP3    H223777   0.346   2.292  15.256  1.0640  1.0703 -2.1432
  788TIP3   OH223778   0.306   5.397   6.305  0.3586  0.5263 -0.1046
  788TIP3    H123779   0.375   5.335   6.328 -0.5273 -1.1407 -1.7286
  788TIP3    H223780   0.280   5.436   6.389  1.3752 -0.7998  0.8735
  789TIP3   OH223781   3.428   4.244  13.856  0.4839  0.2219 -0.5496
  789TIP3    H123782   3.460   4.172  13.802  0.2260 -1.9474  2.0207
  789TIP3    H223783   3.332   4.237  13.851  0.4199  1.2367 -1.2583
  790TIP3   OH223784   1.230   4.276  13.752  0.3128 -0.1916  0.1830
  790TIP3    H123785   1.273   4.197  13.785 -1.1922 -0.7398  0.9195
  790TIP3    H223786   1.300   4.327  13.712  1.2434 -2.1783 -0.8537
  791TIP3   OH223787   6.181   0.199   0.669  0.0831  0.6595  0.3327
  791TIP3    H123788   6.207   0.214   0.578  1.0860 -1.4444  0.2279
  791TIP3    H223789   6.085   0.201   0.668  0.0562  3.5763 -0.1764
  792TIP3   OH223790   3.549   3.154   3.218  0.1035 -0.4388 -0.1324
  792TIP3    H123791   3.512   3.070   3.245  0.4175 -0.3245  0.6746
  792TIP3    H223792   3.474   3.211   3.207  0.0020 -0.2833  1.2342
  793TIP3   OH223793   0.725   6.108  15.359 -0.1176  0.1124 -0.0549
  793TIP3    H123794   0.653   6.087  15.418  0.5685  1.0147  1.1444
  793TIP3    H223795   0.718   6.202  15.343 -0.3120 -0.1171 -1.4778
  794TIP3   OH223796   6.293   4.783  11.400  0.0738 -0.0841 -0.1221
  794TIP3    H123797   6.274   4.738  11.318 -2.1519  1.6340 -0.6455
  794TIP3    H223798   6.378   4.824  11.386  0.4811 -1.1742 -0.9265
  795TIP3   OH223799   6.314   5.575  12.887 -0.7768  0.2774  0.2452
  795TIP3    H123800   6.240   5.569  12.948  0.3769 -2.9639  1.5582
  795TIP3    H223801   6.350   5.487  12.884  2.6473  1.5358 -0.8711
  796TIP3   OH223802   0.727   3.253  14.951  0.2337  0.4827 -0.8028
  796TIP3    H123803   0.753   3.290  15.035 -0.8786  0.7048 -0.5484
  796TIP3    H223804   0.763   3.164  14.952  0.6156  0.6373 -0.2942
  797TIP3   OH223805   1.615   3.922   0.502 -0.5456  0.0044  0.0517
  797TIP3    H123806   1.533   3.968   0.486 -0.1856  1.1716  1.4011
  797TIP3    H223807   1.600   3.873   0.583  0.4866  1.3144  1.0833
  798TIP3   OH223808   5.648   6.356   4.668 -0.1211 -0.1085 -0.4621
  798TIP3    H123809   5.733   6.317   4.648 -0.4108 -0.7479 -0.4564
  798TIP3    H223810   5.591   6.282   4.687 -0.8283  0.2814 -1.0139
  799TIP3   OH223811   2.203   1.697  13.260 -1.3049  0.1702 -0.3747
  799TIP3    H123812   2.150   1.759  13.210 -0.8845 -0.8693 -2.2094
  799TIP3    H223813   2.281   1.747  13.284 -2.8422  1.6027  2.0387
  800TIP3   OH223814   2.130   3.943   5.051  0.2103  0.1723 -0.1349
  800TIP3    H123815   2.105   3.883   5.121  1.4313  0.3199  0.4550
  800TIP3    H223816   2.223   3.927   5.037  0.8303  2.5389  0.7057
  801TIP3   OH223817   1.609   6.593  14.435 -0.8953 -0.3568 -0.0857
  801TIP3    H123818   1.574   6.680  14.456  1.4331  0.7689 -0.6281
  801TIP3    H223819   1.564   6.534  14.495 -0.4916  1.6186  2.2891
  802TIP3   OH223820   5.539   0.406  13.829 -0.4687 -0.0676  0.4248
  802TIP3    H123821   5.618   0.397  13.883 -0.7810  1.0229  1.0896
  802TIP3    H223822   5.490   0.477  13.870 -0.9948  0.4055 -0.9549
  803TIP3   OH223823   0.925   1.337  14.935 -0.1196  0.4624  0.8343
  803TIP3    H123824   0.844   1.387  14.947 -0.8235 -0.1333 -1.1237
  803TIP3    H223825   0.898   1.245  14.939  0.7281  0.2302  1.7070
  804TIP3   OH223826   6.743   3.575   5.493 -0.1090  0.3310  0.7502
  804TIP3    H123827   6.834   3.600   5.473  0.0824  1.5801  2.7847
  804TIP3    H223828   6.690   3.629   5.434  0.4614  1.2224  1.0161
  805TIP3   OH223829   2.308   1.911  11.192 -0.6817 -0.1130 -0.5029
  805TIP3    H123830   2.336   1.951  11.274  1.0040 -1.4258 -0.3654
  805TIP3    H223831   2.281   1.984  11.137 -0.9775  0.8660  0.8841
  806TIP3   OH223832   0.713   1.095  16.485  0.5710 -0.0464  0.2874
  806TIP3    H123833   0.684   1.057  16.568 -0.0822 -1.5829 -0.6140
  806TIP3    H223834   0.743   1.021  16.433 -1.2906  0.5334 -1.7677
  807TIP3   OH223835   5.492   6.416   0.903 -0.1018 -0.6217  0.3254
  807TIP3    H123836   5.397   6.411   0.906 -0.0491 -3.6826  0.6536
  807TIP3    H223837   5.520   6.381   0.988  1.2814 -1.1155 -0.3086
  808TIP3   OH223838   4.095   6.486   1.914  0.3891  0.5807  0.8115
  808TIP3    H123839   4.114   6.579   1.906  1.4409  0.2138 -2.5537
  808TIP3    H223840   4.160   6.454   1.977  2.0726  1.6966 -0.2479
  809TIP3   OH223841   0.094   1.147   0.317  0.8330  0.2305 -0.2223
  809TIP3    H123842   0.177   1.100   0.325  0.7300  0.2988  1.5791
  809TIP3    H223843   0.092   1.206   0.393  0.1789  1.9389 -1.5053
  810TIP3   OH223844   5.377   2.699   5.867  0.0561 -0.2215  0.0864
  810TIP3    H123845   5.387   2.608   5.897  2.2246 -0.2545 -0.6203
  810TIP3    H223846   5.338   2.691   5.780  0.7334 -0.5155 -0.1943
  811TIP3   OH223847   3.215   3.824  15.874 -0.1755 -0.7048 -0.0064
  811TIP3    H123848   3.157   3.798  15.947  1.5576 -0.4857  1.5181
  811TIP3    H223849   3.205   3.919  15.869 -0.2145 -0.7074  0.0204
  812TIP3   OH223850   2.986   3.535   1.714  0.2116  0.2105  0.4592
  812TIP3    H123851   3.027   3.469   1.771  0.4114 -1.3577 -1.3983
  812TIP3    H223852   3.045   3.540   1.639 -1.0150  0.8165 -0.4760
  813TIP3   OH223853   3.635   1.117   1.179  0.4281  0.6237 -0.1204
  813TIP3    H123854   3.589   1.104   1.096  0.8357  2.2687 -0.6302
  813TIP3    H223855   3.664   1.029   1.204  1.1935  0.2124 -2.2387
  814TIP3   OH223856   0.326   3.532  15.924  0.5110  0.5506 -0.1014
  814TIP3    H123857   0.331   3.437  15.916  1.6159  0.6647 -1.0501
  814TIP3    H223858   0.279   3.547  16.006 -1.4280 -0.7918 -0.8825
  815TIP3   OH223859   2.627   1.496  14.101  0.2364 -0.1214  0.2845
  815TIP3    H123860   2.565   1.494  14.029 -0.7645  1.8133  1.0301
  815TIP3    H223861   2.712   1.511  14.060 -0.1641 -0.1179 -0.5600
  816TIP3   OH223862   0.206   0.488  13.938 -0.2900  0.0973  0.1001
  816TIP3    H123863   0.280   0.426  13.933  0.2693  0.7637  0.0349
  816TIP3    H223864   0.141   0.451  13.878  0.7340  0.4716 -1.3199
  817TIP3   OH223865   3.550   6.651  15.603  0.1769 -0.0070  0.8581
  817TIP3    H123866   3.485   6.583  15.593 -0.3543  0.5655  0.3698
  817TIP3    H223867   3.631   6.613  15.570  0.2263 -0.9016  1.9388
  818TIP3   OH223868   2.891   2.880   1.670  0.4836  0.3419 -0.0197
  818TIP3    H123869   2.837   2.807   1.640  0.7850  1.2411 -3.0317
  818TIP3    H223870   2.829   2.951   1.685  0.2836 -0.2250  2.1174
  819TIP3   OH223871   6.419   0.206   1.817 -0.4014 -0.4726 -0.0915
  819TIP3    H123872   6.380   0.211   1.905 -2.5701 -1.1652 -0.9531
  819TIP3    H223873   6.386   0.123   1.781  1.4157 -0.7792 -1.1416
  820TIP3   OH223874   0.214   6.770   2.503  0.4815  0.0858 -0.1149
  820TIP3    H123875   0.270   6.825   2.448  1.0447 -1.6330 -1.3672
  820TIP3    H223876   0.138   6.750   2.448  0.4129 -0.5831  0.2072
  821TIP3   OH223877   2.381   2.281  16.215 -0.0478  0.1852 -0.4848
  821TIP3    H123878   2.344   2.287  16.127 -1.6034 -2.1494 -0.0886
  821TIP3    H223879   2.311   2.311  16.273 -0.2474 -1.3155  0.1019
  822TIP3   OH223880   5.112   1.934  13.271  0.0181  0.3197  0.1090
  822TIP3    H123881   5.164   1.895  13.341 -1.3135 -0.6148  0.6204
  822TIP3    H223882   5.082   2.018  13.308  1.0242  0.8204 -0.1547
  823TIP3   OH223883   1.301   5.788   3.751  0.4085  0.0309 -0.1925
  823TIP3    H123884   1.220   5.804   3.801  1.9224  2.5970  1.6677
  823TIP3    H223885   1.284   5.825   3.665 -0.2759  0.9089  0.3029
  824TIP3   OH223886   5.063   2.591  13.460 -0.0303  0.5939 -0.8218
  824TIP3    H123887   5.038   2.583  13.552 -1.9052  1.1887 -1.2293
  824TIP3    H223888   5.099   2.506  13.437 -1.4685 -0.2458 -0.0714
  825TIP3   OH223889   2.495   2.769   2.499 -0.3441  0.4225 -0.1514
  825TIP3    H123890   2.562   2.731   2.555 -0.1493  1.0071  0.0193
  825TIP3    H223891   2.488   2.860   2.527 -0.4101  0.6647 -0.9156
  826TIP3   OH223892   1.809   1.161  17.108 -0.4692 -0.1791 -0.4610
  826TIP3    H123893   1.745   1.231  17.093  1.9056  2.3060  0.2166
  826TIP3    H223894   1.797   1.137  17.200 -0.4703  0.2377 -0.3503
  827TIP3   OH223895   2.616   3.068  16.449 -0.3949  0.2077  0.0806
  827TIP3    H123896   2.615   3.007  16.523  0.0998 -1.2711 -1.0749
  827TIP3    H223897   2.704   3.105  16.449  0.2403 -1.2301 -0.8543
  828TIP3   OH223898   4.482   5.855   3.913  0.1100 -0.7975  0.0261
  828TIP3    H123899   4.474   5.759   3.912  0.5679 -1.0131  3.7370
  828TIP3    H223900   4.436   5.882   3.993 -0.6525  2.2228 -1.2950
  829TIP3   OH223901   0.237   4.038  11.158 -0.3088 -0.7888 -0.1323
  829TIP3    H123902   0.311   3.977  11.158  0.0209 -0.3909 -0.2620
  829TIP3    H223903   0.264   4.109  11.216 -0.8729 -0.9754  0.3726
  830TIP3   OH223904   6.228   4.981   1.625 -0.0619 -0.0023  0.4123
  830TIP3    H123905   6.275   5.016   1.700 -0.0115  0.3693  0.2056
  830TIP3    H223906   6.138   5.014   1.635 -0.5409 -1.4560  1.3104
  831TIP3   OH223907   1.907   3.747   4.314  0.3164  0.0937  0.0965
  831TIP3    H123908   1.857   3.778   4.238 -0.7752 -1.0385  0.3349
  831TIP3    H223909   1.940   3.828   4.355 -0.0832  0.7769 -0.8909
  832TIP3   OH223910   1.660   4.999  16.944  0.1869  0.2529  0.0047
  832TIP3    H123911   1.742   5.031  16.980 -0.0616  0.8155  0.0707
  832TIP3    H223912   1.674   4.994  16.850 -0.6133  3.1160 -0.3462
  833TIP3   OH223913   4.402   1.729  11.878 -0.1875  0.1505  0.1956
  833TIP3    H123914   4.451   1.684  11.947  1.4431 -0.2568 -1.1745
  833TIP3    H223915   4.391   1.818  11.910  0.4773 -0.0559  1.0134
  834TIP3   OH223916   6.332   0.725  15.966 -0.0171  0.0004 -0.0815
  834TIP3    H123917   6.308   0.766  15.882 -0.1657 -1.6603 -0.9074
  834TIP3    H223918   6.322   0.631  15.949  1.2194 -0.4314  1.4267
  835TIP3   OH223919   4.824   1.588   2.248  0.7677 -0.1451 -0.1352
  835TIP3    H123920   4.919   1.596   2.244  1.0144 -1.7386  1.4263
  835TIP3    H223921   4.806   1.497   2.225 -0.4909  0.3684 -1.3568
  836TIP3   OH223922   2.723   3.424  15.579 -0.6045 -0.2690  0.1611
  836TIP3    H123923   2.678   3.409  15.496 -0.2654 -0.8723  0.0814
  836TIP3    H223924   2.816   3.409  15.559 -0.3679  0.8753  0.3459
  837TIP3   OH223925   0.029   2.601  12.410  0.4755  0.4314  0.6636
  837TIP3    H123926   0.020   2.633  12.499 -0.3379 -1.1032  1.1637
  837TIP3    H223927   0.050   2.679  12.358  2.5848  1.1290  2.4037
  838TIP3   OH223928   6.370   5.469  17.170  0.3350  0.3899  0.4526
  838TIP3    H123929   6.283   5.508  17.158  0.4113  0.9889  1.7169
  838TIP3    H223930   6.390   5.430  17.085 -0.6874  1.2237 -0.2037
  839TIP3   OH223931   5.994   1.941   3.919  0.7983  0.7566 -0.2880
  839TIP3    H123932   6.014   2.009   3.854  0.7304  1.0068 -0.0514
  839TIP3    H223933   5.962   1.867   3.868 -2.4205  2.0402 -0.3929
  840TIP3   OH223934   6.414   0.207   1.095  0.0638 -0.0947  0.7371
  840TIP3    H123935   6.388   0.248   1.013  1.0850 -0.7697  0.0530
  840TIP3    H223936   6.507   0.229   1.104  0.2392 -0.9654  1.1357
  841TIP3   OH223937   1.813   6.346   0.722 -0.1796  0.1238 -0.4390
  841TIP3    H123938   1.787   6.414   0.784 -3.5343 -1.6146  0.3220
  841TIP3    H223939   1.809   6.389   0.637  2.0030  1.8767  0.2314
  842TIP3   OH223940   1.902   5.125  15.635  0.1574 -0.3448  0.2699
  842TIP3    H123941   1.854   5.169  15.705  0.6007  0.2023  0.2404
  842TIP3    H223942   1.910   5.034  15.664 -1.5233 -0.6207 -0.0598
  843TIP3   OH223943   1.826   6.185   5.883 -0.1675 -0.1521  0.3870
  843TIP3    H123944   1.919   6.162   5.890  0.1496  1.3911  2.3840
  843TIP3    H223945   1.780   6.112   5.924 -0.0408 -1.7806 -2.2166
  844TIP3   OH223946   5.813   1.216  16.709  0.0589 -0.0237 -0.9369
  844TIP3    H123947   5.741   1.274  16.733 -0.7258 -1.4346  0.2772
  844TIP3    H223948   5.892   1.264  16.735 -0.5798  0.3995  0.3103
  845TIP3   OH223949   0.692   2.523  12.915 -0.3543 -0.4460  0.1204
  845TIP3    H123950   0.783   2.499  12.902 -0.3386 -0.7678  0.7723
  845TIP3    H223951   0.676   2.593  12.851  0.7896  0.7234  1.0531
  846TIP3   OH223952   2.355   6.361  10.442  0.6136  0.2480  0.1110
  846TIP3    H123953   2.291   6.425  10.410  0.2364 -0.4809 -0.6468
  846TIP3    H223954   2.305   6.304  10.501  1.1472  1.1580  1.4857
  847TIP3   OH223955   5.691   0.066   0.351 -0.4344 -0.0455 -0.1168
  847TIP3    H123956   5.688  -0.020   0.393  0.3855  0.0513  0.1450
  847TIP3    H223957   5.738   0.052   0.269 -0.4534  0.1222 -0.1573
  848TIP3   OH223958   2.180   4.729  16.912  0.6852 -0.6038 -0.2156
  848TIP3    H123959   2.230   4.808  16.933  0.3111  0.0816 -1.7557
  848TIP3    H223960   2.104   4.732  16.971  0.5043  0.3706 -0.4794
  849TIP3   OH223961   4.774   4.906   4.421  0.4140 -0.4768  0.1851
  849TIP3    H123962   4.694   4.925   4.373 -0.7436 -1.6886  1.5466
  849TIP3    H223963   4.844   4.944   4.367 -0.9605 -0.2725 -1.5417
  850TIP3   OH223964   6.594   4.792   0.930  0.0967 -0.1310  0.4947
  850TIP3    H123965   6.681   4.803   0.967  0.3195 -0.4323  0.0636
  850TIP3    H223966   6.582   4.867   0.872 -0.1187  0.1584  0.9054
  851TIP3   OH223967   0.929   3.619  13.068  0.5647  0.4623  0.4656
  851TIP3    H123968   0.911   3.710  13.043  0.6366  0.6785  1.1785
  851TIP3    H223969   1.025   3.615  13.077  0.4521  0.7966  2.1575
  852TIP3   OH223970   3.569   5.560   5.532  0.3650  0.8455  0.5049
  852TIP3    H123971   3.564   5.608   5.615  0.4920  0.7430  0.5712
  852TIP3    H223972   3.650   5.511   5.537  1.6339  2.6664 -0.6650
  853TIP3   OH223973   3.274   2.716   5.495  0.6585 -0.7616  0.3506
  853TIP3    H123974   3.354   2.665   5.506  1.5611  0.5654  0.1107
  853TIP3    H223975   3.276   2.744   5.403  0.5770  0.3254  0.6695
  854TIP3   OH223976   5.653   4.524  12.829 -0.6093  0.4103  0.1983
  854TIP3    H123977   5.722   4.529  12.762  1.0280  1.3659  1.8666
  854TIP3    H223978   5.620   4.614  12.835 -1.7074  0.0498 -0.2515
  855TIP3   OH223979   0.436   5.119   4.774 -0.7049 -0.7196 -0.0308
  855TIP3    H123980   0.521   5.076   4.781 -0.6479 -0.5577  0.2538
  855TIP3    H223981   0.373   5.053   4.803 -0.5390 -0.3007  1.3157
  856TIP3   OH223982   3.828   5.985  12.769 -1.0573  0.2179 -0.3738
  856TIP3    H123983   3.764   5.941  12.713 -2.3860 -0.0197  1.2379
  856TIP3    H223984   3.787   5.987  12.856  1.6823 -1.2163  1.1091
  857TIP3   OH223985   2.562   3.885  12.603  0.0071  0.2709 -0.0959
  857TIP3    H123986   2.554   3.803  12.653  0.3792 -0.0385 -0.5382
  857TIP3    H223987   2.537   3.953  12.666 -2.3922 -0.3271 -0.3160
  858TIP3   OH223988   2.158   3.456  12.117 -0.6430  0.0632  0.5181
  858TIP3    H123989   2.150   3.461  12.021  0.7936  1.5522  0.4371
  858TIP3    H223990   2.072   3.483  12.149 -0.7996  0.6762 -0.3625
  859TIP3   OH223991   1.631   5.572  16.019  0.2904 -0.9745 -0.6622
  859TIP3    H123992   1.619   5.488  16.063  0.2571 -0.0871  1.1290
  859TIP3    H223993   1.569   5.630  16.062  2.5060  0.7436  0.4131
  860TIP3   OH223994   4.992   3.712  10.371  0.6855 -0.3479 -0.7846
  860TIP3    H123995   5.084   3.720  10.347  1.1935 -0.1687  1.0293
  860TIP3    H223996   4.993   3.659  10.451 -0.9261 -1.6257 -1.5535
  861TIP3   OH223997   5.643   6.092  14.474 -0.4463 -0.1178 -0.0959
  861TIP3    H123998   5.665   6.022  14.413  0.6404  0.4153 -0.3323
  861TIP3    H223999   5.573   6.055  14.528  1.5382 -2.2361  1.2490
  862TIP3   OH224000   0.514   0.424  14.554 -0.2298  0.4582 -0.5842
  862TIP3    H124001   0.456   0.365  14.508  0.6798 -0.4767 -0.5595
  862TIP3    H224002   0.541   0.376  14.632  1.8954  0.1478 -1.4243
  863TIP3   OH224003   3.020   5.613   4.811 -0.1070 -0.7357  0.3782
  863TIP3    H124004   3.078   5.678   4.770 -0.6758 -0.3746  0.1375
  863TIP3    H224005   3.050   5.609   4.902  0.5896 -0.8906  0.1486
  864TIP3   OH224006   2.211   2.188   3.708 -0.3522  0.4450 -0.0892
  864TIP3    H124007   2.149   2.186   3.780 -0.1160 -1.0643  0.1002
  864TIP3    H224008   2.173   2.249   3.645 -1.5911  0.2000  0.3972
  865TIP3   OH224009   4.676   1.899  16.984 -0.0229 -0.2682  0.4066
  865TIP3    H124010   4.655   1.964  17.051 -2.1760 -1.5015  1.0079
  865TIP3    H224011   4.702   1.821  17.033  1.3335 -0.2853 -0.2892
  866TIP3   OH224012   2.158   1.068   3.119  0.0164 -0.5164  0.1207
  866TIP3    H124013   2.115   1.030   3.196 -0.0190 -0.7875 -0.0323
  866TIP3    H224014   2.093   1.060   3.049  0.5792 -1.6387 -0.3092
  867TIP3   OH224015   0.105   3.073   2.890  0.6782 -0.2474  0.0047
  867TIP3    H124016   0.063   2.996   2.928  1.5152 -0.3165  0.8333
  867TIP3    H224017   0.043   3.104   2.824  0.0263 -1.2281  0.1304
  868TIP3   OH224018   3.805   2.030   2.714 -0.3863 -0.1868  0.3518
  868TIP3    H124019   3.714   2.002   2.726 -0.2163 -0.6121  0.6720
  868TIP3    H224020   3.824   2.013   2.621 -0.6335 -0.0860  0.2823
  869TIP3   OH224021   5.468   3.903   5.347 -0.4532  0.0934 -0.4732
  869TIP3    H124022   5.465   3.814   5.315  2.7990 -0.5525  0.5895
  869TIP3    H224023   5.450   3.896   5.441  0.1771  0.4630 -0.3119
  870TIP3   OH224024   0.238   3.596  13.231 -0.3327 -0.0061  0.0555
  870TIP3    H124025   0.194   3.559  13.155  0.4508 -0.8029 -0.0260
  870TIP3    H224026   0.327   3.561  13.227 -0.0154  0.6616  0.8430
  871TIP3   OH224027   5.572   3.687   4.145 -1.0737  0.1182  0.5576
  871TIP3    H124028   5.571   3.732   4.229  1.3775  1.6012 -0.1055
  871TIP3    H224029   5.605   3.599   4.165  0.2623  0.7204  1.0694
  872TIP3   OH224030   3.509   4.672   3.084 -0.3613  0.3626  0.3986
  872TIP3    H124031   3.579   4.660   3.021 -0.4769  1.1894  0.0957
  872TIP3    H224032   3.548   4.728   3.152 -0.6149  0.5157  0.4178
  873TIP3   OH224033   5.461   6.559   1.420  0.4900  0.4409  1.1282
  873TIP3    H124034   5.418   6.514   1.347  1.5929  0.9877  0.1073
  873TIP3    H224035   5.492   6.489   1.477  0.1832 -0.0140  0.7429
  874TIP3   OH224036   2.287   2.329  14.923  0.3221 -0.2929  0.3203
  874TIP3    H124037   2.324   2.390  14.986 -1.0662  0.8494  0.0842
  874TIP3    H224038   2.251   2.258  14.977  1.8218 -0.8872  0.6013
  875TIP3   OH224039   0.864   0.321   3.377  0.2647  0.2438  0.2817
  875TIP3    H124040   0.928   0.376   3.421  2.1813 -1.4114 -0.3125
  875TIP3    H224041   0.828   0.376   3.308  2.1378  0.7758 -0.3148
  876TIP3   OH224042   5.230   0.818   0.599  0.4433  0.6784  0.4942
  876TIP3    H124043   5.280   0.880   0.652  2.5150 -1.2915  1.0185
  876TIP3    H224044   5.256   0.732   0.632 -1.1019 -0.5412 -1.2424
  877TIP3   OH224045   6.258   5.729   4.904  0.5404 -0.0323 -0.5061
  877TIP3    H124046   6.333   5.680   4.871  0.2606 -1.3643  0.7394
  877TIP3    H224047   6.192   5.662   4.926 -0.8700  1.0702 -1.1926
  878TIP3   OH224048   6.567   1.778   0.519 -0.7835  0.1061 -0.1520
  878TIP3    H124049   6.562   1.683   0.514  0.4162 -0.0767  1.4193
  878TIP3    H224050   6.477   1.806   0.533 -0.8513 -1.0170  1.9973
  879TIP3   OH224051   1.190   4.973   2.178  0.6673  0.7059 -0.0384
  879TIP3    H124052   1.239   4.925   2.111  0.3273 -0.6643  0.6476
  879TIP3    H224053   1.236   4.954   2.259  0.4495  1.4647  0.2703
  880TIP3   OH224054   2.119   1.239  15.442  0.1577  0.0027  0.4862
  880TIP3    H124055   2.103   1.245  15.348  2.0084 -2.1992 -0.0570
  880TIP3    H224056   2.211   1.264  15.452  0.2601 -0.7236  1.5601
  881TIP3   OH224057   5.891   4.669  11.104  0.0849 -0.1730  0.4617
  881TIP3    H124058   5.801   4.635  11.110 -0.5808  0.7990 -2.3929
  881TIP3    H224059   5.944   4.593  11.081 -0.4903 -0.2961 -0.5223
  882TIP3   OH224060   2.792   5.215  11.404 -0.0657 -0.1418  0.5390
  882TIP3    H124061   2.744   5.187  11.326 -0.3035  0.8797  0.2945
  882TIP3    H224062   2.768   5.152  11.472 -1.0293 -0.1793  0.1757
  883TIP3   OH224063   1.178   5.888  12.427 -0.3556  0.8690 -0.1083
  883TIP3    H124064   1.094   5.879  12.472 -0.2814 -1.1000 -0.3085
  883TIP3    H224065   1.237   5.923  12.495 -0.3827 -1.5134  1.2664
  884TIP3   OH224066   0.164   1.688   1.866  0.7921 -0.0812 -0.1856
  884TIP3    H124067   0.068   1.681   1.870  0.7094  0.3722 -1.0668
  884TIP3    H224068   0.194   1.657   1.951 -0.0419 -1.8800 -0.5102
  885TIP3   OH224069   0.047   0.526  14.631 -0.2296  0.0276  0.4119
  885TIP3    H124070  -0.033   0.568  14.599 -0.0956  0.2105  0.3116
  885TIP3    H224071   0.072   0.578  14.708 -0.2359 -0.0622  0.4753
  886TIP3   OH224072   2.914   0.789   3.615  0.0016 -0.0260 -0.3836
  886TIP3    H124073   3.000   0.757   3.643  0.9382 -0.4736 -3.3324
  886TIP3    H224074   2.912   0.881   3.640 -0.7958 -1.0662  4.0856
  887TIP3   OH224075   6.267   2.452  15.530 -0.4993  0.0877  0.2333
  887TIP3    H124076   6.335   2.439  15.596 -0.1630  0.4144 -0.0517
  887TIP3    H224077   6.257   2.547  15.524  0.4219  0.1168 -1.1595
  888TIP3   OH224078   1.846   2.443   0.265  0.0696 -0.3429 -0.5385
  888TIP3    H124079   1.769   2.501   0.260 -0.6470 -1.3415 -1.6619
  888TIP3    H224080   1.848   2.415   0.357 -0.7115 -0.0316 -0.4145
  889TIP3   OH224081   6.766   3.907   1.273  0.4172 -0.3306  0.0553
  889TIP3    H124082   6.674   3.917   1.248  0.4108 -0.2322  0.1146
  889TIP3    H224083   6.785   3.815   1.260  0.5963 -0.1587 -0.9327
  890TIP3   OH224084   6.431   6.704   1.113  0.5932  0.0385 -0.2377
  890TIP3    H124085   6.446   6.798   1.119 -1.6326  0.4540 -0.3653
  890TIP3    H224086   6.456   6.670   1.199  0.6618  0.8614  0.0749
  891TIP3   OH224087   4.429   2.993  15.518  0.1822 -0.4241  0.3727
  891TIP3    H124088   4.520   2.986  15.490 -0.3274  0.8939 -1.8827
  891TIP3    H224089   4.428   2.959  15.607  3.2344  1.2196  1.1574
  892TIP3   OH224090   0.484   3.532  14.896 -0.5629  0.5251  0.6927
  892TIP3    H124091   0.481   3.578  14.813 -0.4664 -0.3342  0.1979
  892TIP3    H224092   0.574   3.542  14.926 -0.4420  0.3330  0.3967
  893TIP3   OH224093   0.392   4.330   1.670  0.0937  0.0447  0.1693
  893TIP3    H124094   0.455   4.352   1.601 -2.2742 -0.3983 -2.2894
  893TIP3    H224095   0.385   4.234   1.665 -0.5211  0.0639  0.6431
  894TIP3   OH224096   2.528   2.990   5.788 -0.0627 -0.5768  0.0145
  894TIP3    H124097   2.509   3.074   5.832 -0.1035 -0.8136  0.4571
  894TIP3    H224098   2.442   2.949   5.778 -0.1101 -0.2996 -0.7554
  895TIP3   OH224099   0.936   5.769  15.343  0.0484 -0.0536  0.0411
  895TIP3    H124100   0.985   5.850  15.357  0.9902 -0.2136 -1.9788
  895TIP3    H224101   0.909   5.772  15.251 -2.7843 -0.5341  0.7578
  896TIP3   OH224102   6.199   1.850   2.565  0.5533  0.1923 -0.7718
  896TIP3    H124103   6.193   1.793   2.488 -1.3223 -0.4315 -0.2014
  896TIP3    H224104   6.267   1.914   2.541 -1.4414  1.3954 -3.8984
  897TIP3   OH224105   5.896   2.503   2.366 -0.4598  0.4239 -0.2797
  897TIP3    H124106   5.926   2.494   2.275  0.4689  0.1342  0.0461
  897TIP3    H224107   5.976   2.509   2.417 -0.9646  1.9772  0.4013
  898TIP3   OH224108   4.424   0.519   2.680  0.3678  0.0054  0.0041
  898TIP3    H124109   4.428   0.424   2.669 -2.3639 -0.2382  0.3953
  898TIP3    H224110   4.432   0.532   2.775  2.8451  0.4141 -0.1865
  899TIP3   OH224111   0.822   0.595  15.566  0.0924  0.4586  0.4097
  899TIP3    H124112   0.832   0.554  15.480  0.3861  1.2413  0.0589
  899TIP3    H224113   0.900   0.650  15.575 -0.3527  1.0397  0.8060
  900TIP3   OH224114   3.018   2.178   3.750  0.0224 -0.2553 -0.3533
  900TIP3    H124115   2.966   2.181   3.670 -0.4910  0.5215  0.0050
  900TIP3    H224116   2.960   2.140   3.815 -0.1524  0.7247  0.0769
  901TIP3   OH224117   0.272   0.691  12.977  0.0561  0.1581 -0.7364
  901TIP3    H124118   0.360   0.686  12.940  0.1480  2.5107 -1.0322
  901TIP3    H224119   0.223   0.745  12.915 -0.9347  0.8149  0.5543
  902TIP3   OH224120   0.346   2.943  12.422 -0.3526 -0.5641 -0.5933
  902TIP3    H124121   0.313   2.941  12.333 -5.0476 -0.2495  0.8740
  902TIP3    H224122   0.363   3.035  12.440 -1.0568 -0.4136 -0.6824
  903TIP3   OH224123   4.680   5.105  10.674 -0.1866 -0.1677 -0.2518
  903TIP3    H124124   4.618   5.146  10.735  1.5716  0.4837  1.1886
  903TIP3    H224125   4.682   5.013  10.700 -0.3858 -0.1513 -0.1715
  904TIP3   OH224126   4.715   4.679   5.594  0.2784  0.0323  0.3170
  904TIP3    H124127   4.810   4.690   5.581  0.0780  1.1464 -0.2731
  904TIP3    H224128   4.701   4.704   5.685  0.5811 -0.3762  0.4817
  905TIP3   OH224129   0.858   1.954  13.888 -0.1204  0.2577  0.3413
  905TIP3    H124130   0.845   2.046  13.910 -0.1837 -0.1463  2.1639
  905TIP3    H224131   0.772   1.914  13.898 -0.8703  0.4804 -3.5495
  906TIP3   OH224132   4.353   4.293   1.150  0.1408  0.2326  0.0434
  906TIP3    H124133   4.257   4.301   1.146 -0.1110 -1.4389  1.5431
  906TIP3    H224134   4.380   4.363   1.210 -0.1994  0.2969  0.1267
  907TIP3   OH224135   4.761   5.421   1.422  0.0093 -0.1583  0.5283
  907TIP3    H124136   4.689   5.483   1.416  0.3944  0.2289 -4.1785
  907TIP3    H224137   4.833   5.471   1.461 -0.5330  1.5279 -0.5066
  908TIP3   OH224138   0.195   5.667  12.287 -0.0575 -0.3580  0.3779
  908TIP3    H124139   0.290   5.665  12.290 -0.0744 -1.3769  0.4588
  908TIP3    H224140   0.172   5.758  12.308  0.8456 -0.4688  1.9784
  909TIP3   OH224141   1.184   5.018   5.328  0.1675  0.3044 -0.6165
  909TIP3    H124142   1.134   5.081   5.380 -0.5589 -0.7192 -0.0393
  909TIP3    H224143   1.181   5.053   5.239 -0.5798  0.8744 -0.3771
  910TIP3   OH224144   3.858   2.773  12.105  0.0987 -0.2418  0.1515
  910TIP3    H124145   3.863   2.854  12.054 -1.8717  0.3413  0.7991
  910TIP3    H224146   3.949   2.741  12.108  0.6201  0.8820 -1.7559
  911TIP3   OH224147   2.972   5.938  16.856 -0.5445 -0.2485  0.2274
  911TIP3    H124148   2.974   5.854  16.902  1.3984 -1.2555 -1.5399
  911TIP3    H224149   2.901   5.928  16.791  0.0200 -0.7580 -0.3272
  912TIP3   OH224150   4.314   3.183   3.920  0.0802 -0.0619  0.3933
  912TIP3    H124151   4.262   3.260   3.898 -1.2007 -0.9834  0.0337
  912TIP3    H224152   4.253   3.109   3.910  0.8072 -0.9969  2.2498
  913TIP3   OH224153   1.030   1.181   2.905 -0.0971 -0.1442  0.4249
  913TIP3    H124154   1.082   1.232   2.843  1.1241 -0.3070  1.2786
  913TIP3    H224155   1.073   1.194   2.990 -1.1901 -0.6494  1.0909
  914TIP3   OH224156   3.502   2.168   5.011  0.1154 -0.3785 -0.2549
  914TIP3    H124157   3.464   2.097   4.961  2.3916 -2.0077  0.1609
  914TIP3    H224158   3.595   2.166   4.989  0.7487  0.5141  2.0295
  915TIP3   OH224159   3.457   0.305   2.251 -0.5944  0.2118 -0.1005
  915TIP3    H124160   3.486   0.233   2.308  0.9439  0.8012 -0.1038
  915TIP3    H224161   3.476   0.274   2.162 -1.1883  0.0837 -0.1859
  916TIP3   OH224162   2.407   0.704  16.789 -0.5863  0.0586  0.4095
  916TIP3    H124163   2.360   0.761  16.849 -1.2177 -1.1738  1.1291
  916TIP3    H224164   2.363   0.619  16.797  1.0274 -0.8440  0.2348
  917TIP3   OH224165   1.310   6.697   5.369  0.3084  0.5660 -0.0467
  917TIP3    H124166   1.386   6.642   5.390  0.0563  0.5471  0.8815
  917TIP3    H224167   1.338   6.750   5.295  1.0137  0.1158 -0.1124
  918TIP3   OH224168   4.856   5.460  15.475 -0.5227 -0.0317  0.6066
  918TIP3    H124169   4.895   5.495  15.555  1.4336 -0.1847 -0.2160
  918TIP3    H224170   4.909   5.497  15.404 -2.3356  0.2868 -0.6623
  919TIP3   OH224171   3.259   2.422   2.417 -0.2679  0.2548 -0.3372
  919TIP3    H124172   3.348   2.453   2.430  0.5307 -1.6859 -0.9235
  919TIP3    H224173   3.253   2.342   2.469 -1.6444  0.2906 -0.3952
  920TIP3   OH224174   2.134   0.865  12.180 -0.3846 -0.4460 -0.2444
  920TIP3    H124175   2.080   0.883  12.103 -0.7337  0.7213  0.2481
  920TIP3    H224176   2.208   0.814  12.146 -1.0805 -0.8726 -1.1570
  921TIP3   OH224177   3.443   6.543  12.354  0.1413  0.4009 -0.0640
  921TIP3    H124178   3.420   6.508  12.440 -1.0032  1.3721  0.0495
  921TIP3    H224179   3.495   6.474  12.313 -1.6787 -1.2956  0.3077
  922TIP3   OH224180   2.132   3.118   1.519 -0.0972 -0.0589  0.0529
  922TIP3    H124181   2.164   3.028   1.511  1.9096  0.4119  1.7719
  922TIP3    H224182   2.159   3.160   1.437  0.6637 -0.5751  0.0204
  923TIP3   OH224183   5.977   5.571  10.994 -0.6184  0.4460 -0.1456
  923TIP3    H124184   5.916   5.517  10.944  1.4779 -0.8492 -1.4570
  923TIP3    H224185   5.960   5.661  10.965 -0.8800 -0.0598 -1.6442
  924TIP3   OH224186   3.111   0.957   3.916  0.6786 -0.2489 -0.5695
  924TIP3    H124187   3.016   0.970   3.905  0.6536 -0.7511 -0.9316
  924TIP3    H224188   3.146   1.046   3.922  0.0798 -0.0596  0.4925
  925TIP3   OH224189   6.609   3.213  13.109  0.1233  0.1308 -0.3254
  925TIP3    H124190   6.614   3.168  13.194 -1.3064 -0.5481 -0.5679
  925TIP3    H224191   6.523   3.255  13.110  0.5053  0.9523 -1.0510
  926TIP3   OH224192   3.518   5.260  14.935 -0.8245 -0.5989 -0.3141
  926TIP3    H124193   3.441   5.224  14.980 -0.4334 -1.3883 -0.2548
  926TIP3    H224194   3.488   5.277  14.846 -1.8449  1.7731  0.4132
  927TIP3   OH224195   0.958   1.496  12.426  0.4492  0.0667 -0.0442
  927TIP3    H124196   1.042   1.496  12.381  0.8327 -1.2006  0.6433
  927TIP3    H224197   0.957   1.578  12.475  0.9276  0.4635 -0.6817
  928TIP3   OH224198   1.173   2.850  15.128  0.0318  0.5302 -0.1830
  928TIP3    H124199   1.121   2.774  15.151 -0.1696  0.7837  0.2105
  928TIP3    H224200   1.255   2.814  15.094  0.0111  0.1427  0.1739
  929TIP3   OH224201   2.926   4.446  16.198 -0.0085  0.3058  0.1675
  929TIP3    H124202   2.945   4.539  16.182  0.6621  0.2740  0.7031
  929TIP3    H224203   2.894   4.445  16.288 -0.8127  0.1162 -0.1180
  930TIP3   OH224204   4.944   2.149  13.395 -0.4325  0.2456  0.3462
  930TIP3    H124205   4.899   2.186  13.319 -0.0941 -2.0258 -1.0464
  930TIP3    H224206   5.003   2.218  13.424  1.8114  0.2006 -3.4681
  931TIP3   OH224207   2.647   0.729   0.159 -0.1892 -0.6743 -0.1272
  931TIP3    H124208   2.581   0.777   0.109  0.5273 -0.8436 -1.2772
  931TIP3    H224209   2.727   0.738   0.107  1.2003  1.1083  2.1099
  932TIP3   OH224210   5.204   4.828   3.734 -0.4244  1.0852 -0.2685
  932TIP3    H124211   5.290   4.837   3.694 -0.5681  0.0406 -0.8465
  932TIP3    H224212   5.195   4.734   3.751  0.2225  1.5599  3.5748
  933TIP3   OH224213   0.688   4.562   3.432 -0.5809  0.4384  0.0752
  933TIP3    H124214   0.736   4.497   3.482 -2.4312  0.7632  2.4332
  933TIP3    H224215   0.756   4.620   3.397  0.9486 -1.4275 -0.2204
  934TIP3   OH224216   4.472   1.641  16.898 -0.2940  0.0142 -0.4207
  934TIP3    H124217   4.537   1.668  16.964 -0.8012 -0.5241  0.3136
  934TIP3    H224218   4.524   1.620  16.821  0.2404  1.6511 -0.5509
  935TIP3   OH224219   2.872   1.257   5.201 -0.0631 -0.2920  0.2361
  935TIP3    H124220   2.960   1.295   5.197  0.1973 -0.9174 -0.0863
  935TIP3    H224221   2.841   1.262   5.110  0.3831 -1.7840 -0.0248
  936TIP3   OH224222   6.099   5.403   3.423 -0.0415  0.3784  0.1210
  936TIP3    H124223   6.175   5.455   3.397 -0.4781  0.5774 -0.7786
  936TIP3    H224224   6.035   5.417   3.354 -0.4677 -0.7334  0.2682
  937TIP3   OH224225   0.474   5.284  12.479  0.2781 -0.4915 -0.2120
  937TIP3    H124226   0.419   5.290  12.557  0.4534  1.0414 -0.1595
  937TIP3    H224227   0.414   5.300  12.406  0.1203 -1.8929 -0.4065
  938TIP3   OH224228   0.672   0.753   4.343 -0.2664  0.0916 -0.0179
  938TIP3    H124229   0.597   0.720   4.292 -0.0128 -1.9447  0.8599
  938TIP3    H224230   0.641   0.753   4.433  0.5244  0.0444  0.2555
  939TIP3   OH224231   6.777   5.039   1.808  0.2692 -0.0154  0.1047
  939TIP3    H124232   6.698   5.039   1.861 -0.6889 -1.0512 -1.2426
  939TIP3    H224233   6.823   4.959   1.832  0.3705  0.0481  0.1249
  940TIP3   OH224234   4.917   4.587   0.501  0.1277  0.0695  0.3163
  940TIP3    H124235   4.867   4.611   0.423 -0.2954  0.8043  0.7924
  940TIP3    H224236   4.857   4.605   0.574  0.2869 -1.2039  0.7865
  941TIP3   OH224237   4.258   0.350   3.622  0.1164  0.5182 -0.6875
  941TIP3    H124238   4.224   0.284   3.562  1.2030  0.9467 -1.8196
  941TIP3    H224239   4.292   0.300   3.697  3.0974 -0.5245 -2.5541
  942TIP3   OH224240   0.079   6.732  16.474  0.3048  0.0543 -0.3540
  942TIP3    H124241   0.143   6.711  16.542  0.1278 -0.1337 -0.2418
  942TIP3    H224242   0.032   6.649  16.460  0.6636 -0.0395 -1.0537
  943TIP3   OH224243   4.919   4.884   0.813  0.1246 -0.2515 -0.5924
  943TIP3    H124244   5.004   4.846   0.790  0.3512 -0.2748  0.2463
  943TIP3    H224245   4.875   4.815   0.863  0.1769  0.2488  0.1668
  944TIP3   OH224246   6.757   1.833  15.206  0.4228  0.0472  0.7722
  944TIP3    H124247   6.758   1.845  15.301 -0.4112  0.1418  0.7792
  944TIP3    H224248   6.815   1.902  15.173  1.0063 -0.2202  1.2321
  945TIP3   OH224249   2.669   0.548  16.051 -0.1520  0.3704 -0.0636
  945TIP3    H124250   2.732   0.604  16.006 -0.3009  2.2146  1.8921
  945TIP3    H224251   2.583   0.581  16.024 -0.2423  1.3910  1.3254
  946TIP3   OH224252   4.395   5.881  14.773  0.1538  0.1427  0.1170
  946TIP3    H124253   4.326   5.817  14.792  0.6400  0.0011  1.5831
  946TIP3    H224254   4.361   5.964  14.806 -0.7886  0.8637 -2.4563
  947TIP3   OH224255   6.518   2.062   2.082  0.2108 -0.6588  0.6184
  947TIP3    H124256   6.525   2.101   2.169 -0.3505  0.3505  0.2344
  947TIP3    H224257   6.608   2.057   2.050  0.4622 -1.4552  1.4186
  948TIP3   OH224258   1.556   3.543   0.461  0.4217 -0.6224 -0.0629
  948TIP3    H124259   1.555   3.595   0.541 -0.0946  1.7287 -1.5222
  948TIP3    H224260   1.626   3.479   0.475  1.0145  0.3753  1.8590
  949TIP3   OH224261   0.092   3.959  12.592 -0.6127  0.4165 -0.0263
  949TIP3    H124262   0.163   3.971  12.654 -1.7085 -0.5343  1.5079
  949TIP3    H224263   0.124   3.893  12.531 -0.0827  0.1633  0.5184
  950TIP3   OH224264   5.518   1.794  13.751  0.9755 -0.0644  0.1745
  950TIP3    H124265   5.495   1.879  13.789 -0.8828 -0.1284 -0.7037
  950TIP3    H224266   5.603   1.773  13.790  0.0253  0.6849  2.9036
  951TIP3   OH224267   4.857   5.083   4.744  0.8899 -0.2298  0.3375
  951TIP3    H124268   4.762   5.090   4.753  0.8672 -0.7731  0.5691
  951TIP3    H224269   4.881   5.011   4.803  1.3393 -0.6292 -0.3205
  952TIP3   OH224270   3.422   3.414   3.542  0.5041 -0.0344  0.3077
  952TIP3    H124271   3.410   3.421   3.637 -2.4901  0.8763 -0.0512
  952TIP3    H224272   3.452   3.324   3.529  0.0867 -0.4660  2.0421
  953TIP3   OH224273   4.461   0.290  12.498 -0.0171  0.4074 -0.4545
  953TIP3    H124274   4.438   0.260  12.410 -0.3029  0.8822 -0.5455
  953TIP3    H224275   4.541   0.242  12.520  0.1431  0.4083 -1.0342
  954TIP3   OH224276   4.979   4.040  11.895 -0.1837  0.2177 -0.1308
  954TIP3    H124277   5.033   4.114  11.922 -0.0917  0.5564 -1.1779
  954TIP3    H224278   5.030   3.997  11.826 -0.1226 -0.9760  0.6396
  955TIP3   OH224279   5.766   5.845   1.546 -0.4572 -0.2976  0.0974
  955TIP3    H124280   5.812   5.860   1.628 -0.4767 -0.6433  0.1761
  955TIP3    H224281   5.707   5.772   1.565 -1.9124  0.9057  0.3329
  956TIP3   OH224282   4.821   6.055   3.467 -0.1257 -0.4111  0.1283
  956TIP3    H124283   4.757   6.119   3.434  1.1669  0.7047 -0.3343
  956TIP3    H224284   4.903   6.082   3.428  1.0171 -0.6311  2.2405
  957TIP3   OH224285   0.805   3.015  11.800 -0.0036  0.0931 -0.0658
  957TIP3    H124286   0.846   3.100  11.787  0.6999  0.0564  1.6108
  957TIP3    H224287   0.713   3.029  11.779  0.2327  1.0801 -0.4993
  958TIP3   OH224288   1.224   4.899  12.154  0.5434 -0.0724 -0.0802
  958TIP3    H124289   1.291   4.949  12.200  0.6796 -1.3061  1.1088
  958TIP3    H224290   1.214   4.818  12.205 -0.6793 -0.6369 -1.1478
  959TIP3   OH224291   0.450   5.587  15.272  0.4288 -0.2613  0.2985
  959TIP3    H124292   0.504   5.512  15.298  1.8665  0.4899 -0.4202
  959TIP3    H224293   0.500   5.663  15.301  0.6704  0.5064 -1.9456
  960TIP3   OH224294   1.503   5.682  16.312  0.2841 -0.5553  0.5430
  960TIP3    H124295   1.521   5.669  16.405 -0.3358 -1.6153  0.5361
  960TIP3    H224296   1.451   5.605  16.287 -1.5675  0.8347 -0.1320
  961TIP3   OH224297   3.440   2.981  13.564 -0.1712  0.4451 -0.1822
  961TIP3    H124298   3.434   3.068  13.524 -2.0457  0.5772  0.2909
  961TIP3    H224299   3.447   2.921  13.491  0.4140  0.9360 -0.5422
  962TIP3   OH224300   0.487   5.365   5.689  0.2312  0.2976  0.1559
  962TIP3    H124301   0.507   5.458   5.698 -0.5242  0.4389  0.4209
  962TIP3    H224302   0.543   5.322   5.753  0.3766  0.5963  0.2293
  963TIP3   OH224303   2.100   1.789   5.775 -0.1864  0.2313  0.0301
  963TIP3    H124304   2.025   1.836   5.812 -0.6999 -1.3409  1.0917
  963TIP3    H224305   2.135   1.739   5.848  2.4087  1.4702 -0.2624
  964TIP3   OH224306   6.587   6.095  13.868  0.8113  0.5458 -0.3737
  964TIP3    H124307   6.556   6.109  13.957  1.9542 -1.7551  0.4731
  964TIP3    H224308   6.510   6.108  13.813 -0.4500 -0.1362  1.1654
  965TIP3   OH224309   4.722   6.629   4.236  0.2672 -0.7308  0.4443
  965TIP3    H124310   4.696   6.568   4.305 -0.1395 -0.8443  0.1911
  965TIP3    H224311   4.662   6.611   4.164 -0.5166  0.6217  0.7195
  966TIP3   OH224312   5.512   2.953   2.570 -0.6220  0.5958  0.2715
  966TIP3    H124313   5.436   2.963   2.512  0.6793  0.8416 -1.4443
  966TIP3    H224314   5.543   2.864   2.555 -0.0740  0.7743  0.3348
  967TIP3   OH224315   3.286   4.804  14.633 -0.5042  0.3010  0.3343
  967TIP3    H124316   3.330   4.823  14.716  0.7819 -0.3606 -0.1719
  967TIP3    H224317   3.341   4.845  14.566 -0.8763 -0.2004 -0.2934
  968TIP3   OH224318   2.706   4.930   5.676 -0.2484  0.1727  0.2102
  968TIP3    H124319   2.718   5.025   5.668  0.9341  0.0715  0.6432
  968TIP3    H224320   2.646   4.920   5.751 -1.3009  0.6010 -0.5447
  969TIP3   OH224321   4.675   1.997  15.246  0.8708  0.5227 -0.0942
  969TIP3    H124322   4.639   2.086  15.240  0.3246  0.4427  1.5544
  969TIP3    H224323   4.708   1.990  15.335  0.9424 -0.9279 -0.2072
  970TIP3   OH224324   0.906   4.755  12.734  0.0238 -0.4974  0.7062
  970TIP3    H124325   0.933   4.675  12.780  0.8427  0.1603  1.4056
  970TIP3    H224326   0.941   4.744  12.645  0.5906 -0.6849  0.9493
  971TIP3   OH224327   4.257   3.115   5.336  0.3950  0.0830 -0.2907
  971TIP3    H124328   4.330   3.155   5.290 -0.1625  0.7751 -0.5901
  971TIP3    H224329   4.266   3.021   5.318  0.2603  0.3239 -1.7345
  972TIP3   OH224330   2.335   3.807   3.035  0.0628  0.5020  0.3065
  972TIP3    H124331   2.390   3.732   3.057  1.3363  1.0982 -0.7084
  972TIP3    H224332   2.323   3.853   3.118 -0.3857 -0.5793  0.8619
  973TIP3   OH224333   6.263   6.471   5.750  0.1961 -0.0490 -0.6139
  973TIP3    H124334   6.254   6.375   5.754  2.7792 -0.3535  2.3049
  973TIP3    H224335   6.201   6.503   5.815  0.5062  0.0696 -0.3698
  974TIP3   OH224336   3.873   6.040   4.461 -0.6790 -0.1728 -0.1019
  974TIP3    H124337   3.928   6.105   4.416 -1.2068  0.5003  0.2039
  974TIP3    H224338   3.910   5.956   4.435  0.4068  0.2555 -0.0267
  975TIP3   OH224339   3.565   1.270  12.452  0.0625 -0.1850  0.0487
  975TIP3    H124340   3.530   1.192  12.495  0.8074 -1.3942 -1.4639
  975TIP3    H224341   3.577   1.244  12.361  0.9735  1.4915 -0.3437
  976TIP3   OH224342   2.742   5.116  13.879  0.0760 -0.2256  0.6010
  976TIP3    H124343   2.787   5.199  13.895 -0.6025  1.2717 -3.8617
  976TIP3    H224344   2.652   5.132  13.907  0.0152  0.4488  0.0350
  977TIP3   OH224345   2.496   2.469   5.954 -0.2352  0.0458 -0.0509
  977TIP3    H124346   2.540   2.388   5.978  0.0044  0.1238 -0.2224
  977TIP3    H224347   2.496   2.468   5.858  1.4926  1.1615 -0.1058
  978TIP3   OH224348   5.031   4.091   6.317 -0.2008  0.4251  0.6621
  978TIP3    H124349   4.956   4.143   6.347  1.4548  1.2469  3.8555
  978TIP3    H224350   5.087   4.083   6.395  2.2563 -1.5354 -1.1467
  979TIP3   OH224351   6.206   5.771  15.326 -1.3185 -0.0887  0.8492
  979TIP3    H124352   6.173   5.687  15.295 -2.4347  0.1514  1.3188
  979TIP3    H224353   6.128   5.818  15.356 -0.7546  1.2015  0.4009
  980TIP3   OH224354   0.355   6.093   5.527  0.1403 -0.5491  0.1351
  980TIP3    H124355   0.409   6.108   5.449  2.1786  0.5282  1.6476
  980TIP3    H224356   0.377   6.166   5.585 -3.1131  0.0305  0.8294
  981TIP3   OH224357   3.874   2.824   5.185 -0.0250  0.2443  0.0098
  981TIP3    H124358   3.856   2.810   5.091 -1.2068  0.2886  0.2090
  981TIP3    H224359   3.955   2.776   5.201 -0.7048 -1.1889 -0.6765
  982TIP3   OH224360   5.308   4.988   1.183  0.2393 -0.3147  0.1908
  982TIP3    H124361   5.290   4.967   1.091  1.2718  3.7476 -1.1660
  982TIP3    H224362   5.226   4.970   1.228 -2.4190  2.9406 -2.7603
  983TIP3   OH224363   5.843   2.433  16.503  0.0350  0.3926 -0.3032
  983TIP3    H124364   5.765   2.461  16.552  0.4573 -2.3723  2.2066
  983TIP3    H224365   5.911   2.425  16.569  1.6454 -0.1442 -1.9586
  984TIP3   OH224366   4.770   6.417  13.442 -0.1217 -0.2212 -0.3121
  984TIP3    H124367   4.766   6.444  13.534 -1.2013 -0.5225 -0.2577
  984TIP3    H224368   4.850   6.457  13.408 -0.8457  1.6987  0.1740
  985TIP3   OH224369   3.000   6.536  13.888 -0.5184 -0.1734 -0.3909
  985TIP3    H124370   2.941   6.610  13.906  2.7762  2.2189  1.6292
  985TIP3    H224371   3.044   6.520  13.972  1.0433 -2.4417 -1.5608
  986TIP3   OH224372   0.882   4.887  10.692  0.4459 -0.0265 -0.3466
  986TIP3    H124373   0.902   4.808  10.643  1.5897  0.2862 -0.4078
  986TIP3    H224374   0.786   4.890  10.694  0.2811 -2.6904  1.7431
  987TIP3   OH224375   2.324   5.361   4.922 -0.1163  0.1947  0.1023
  987TIP3    H124376   2.254   5.360   4.986 -0.5063 -0.1556 -0.3249
  987TIP3    H224377   2.325   5.273   4.886  0.7999  0.0838  0.3767
  988TIP3   OH224378   2.393   2.703   1.251 -0.4097 -0.1879 -0.1999
  988TIP3    H124379   2.381   2.753   1.170  0.2989 -0.1347 -0.2855
  988TIP3    H224380   2.363   2.615   1.229 -0.2716 -0.1606 -0.5071
  989TIP3   OH224381   2.024   5.577  12.521 -0.2721  0.3602 -0.1423
  989TIP3    H124382   2.033   5.672  12.533  2.9326  0.2507 -0.6824
  989TIP3    H224383   2.114   5.546  12.511 -1.2059 -2.8145  0.3113
  990TIP3   OH224384   6.609   2.308   1.456 -0.4227 -0.0735  0.4988
  990TIP3    H124385   6.651   2.224   1.435 -0.3461  0.3311 -1.0751
  990TIP3    H224386   6.550   2.324   1.382 -0.9269  0.9513  1.1083
  991TIP3   OH224387   4.508   4.082  13.297 -0.3812  0.2526 -0.1564
  991TIP3    H124388   4.412   4.086  13.299 -0.4480  0.3083 -1.9221
  991TIP3    H224389   4.534   4.087  13.389 -1.9972  2.3342  0.2657
  992TIP3   OH224390   4.900   6.415  15.725  0.4380  0.2141  0.4299
  992TIP3    H124391   4.832   6.421  15.792  1.3981  0.0654  1.4311
  992TIP3    H224392   4.851   6.404  15.643 -0.7193 -0.8194  1.2291
  993TIP3   OH224393   6.038   4.265  12.216  0.5204 -0.4531 -0.3837
  993TIP3    H124394   6.006   4.193  12.270  0.6408 -1.6203 -1.7806
  993TIP3    H224395   5.959   4.304  12.178  0.3620  1.0207  1.3538
  994TIP3   OH224396   4.491   5.610   5.183 -0.0494 -0.3586  0.3022
  994TIP3    H124397   4.435   5.666   5.237 -1.3332 -1.8767  0.6270
  994TIP3    H224398   4.481   5.522   5.221  3.9029 -0.4946  1.4409
  995TIP3   OH224399   6.561   5.803   0.129 -0.2047 -0.0391 -0.0324
  995TIP3    H124400   6.524   5.857   0.199 -1.9945 -0.0310 -0.9416
  995TIP3    H224401   6.628   5.859   0.089 -1.7971  1.4660 -0.7494
  996TIP3   OH224402   4.189   2.505  13.523 -0.4984 -0.4410 -0.5121
  996TIP3    H124403   4.272   2.551  13.535  0.1868 -1.5398 -0.9215
  996TIP3    H224404   4.127   2.553  13.578  0.3949  0.3966 -0.2047
  997TIP3   OH224405   1.428   0.822  15.020  0.0194  0.0327 -0.2521
  997TIP3    H124406   1.378   0.886  15.071  1.4523  1.9181 -1.1014
  997TIP3    H224407   1.388   0.823  14.933  0.5856  0.4772 -0.5189
  998TIP3   OH224408   1.253   1.870   3.005 -0.9198 -0.1621 -0.2450
  998TIP3    H124409   1.158   1.868   3.006 -0.9223  0.1319  0.0113
  998TIP3    H224410   1.275   1.952   2.961 -0.8027  2.2400  3.7543
  999TIP3   OH224411   4.079   0.366  16.515 -0.1534 -0.3323  0.1991
  999TIP3    H124412   4.107   0.392  16.427 -0.9275 -1.0640 -0.2790
  999TIP3    H224413   4.120   0.430  16.573  0.3957  0.1417 -0.6900
 1000TIP3   OH224414   6.654   6.010   2.349  0.4952  0.3802 -0.2832
 1000TIP3    H124415   6.584   6.067   2.381  1.2932  0.3700  1.5644
 1000TIP3    H224416   6.683   6.052   2.268  1.8917  3.3756  1.6305
 1001TIP3   OH224417   1.190   1.469  12.297 -0.4212  0.1157  0.2571
 1001TIP3    H124418   1.187   1.459  12.202  1.2861 -1.1797  0.2818
 1001TIP3    H224419   1.213   1.561  12.311  0.8573 -0.0330 -0.6591
 1002TIP3   OH224420   2.627   6.589   1.971 -0.3386 -0.0054 -0.3895
 1002TIP3    H124421   2.597   6.561   1.885  0.8314 -0.0188 -0.8083
 1002TIP3    H224422   2.603   6.682   1.976 -2.6607 -0.5732  0.3073
 1003TIP3   OH224423   6.673   5.207   1.570 -0.6293 -0.3906  0.0572
 1003TIP3    H124424   6.584   5.195   1.603 -0.3206 -1.0919  0.6784
 1003TIP3    H224425   6.727   5.150   1.626  0.0430 -0.9076 -1.0760
 1004TIP3   OH224426   6.707   5.411   2.376  0.2249  0.1569  0.1469
 1004TIP3    H124427   6.614   5.430   2.381  0.4203  1.0643  0.5179
 1004TIP3    H224428   6.748   5.475   2.435  0.9666 -1.1197  1.0695
 1005TIP3   OH224429   1.945   6.107  11.745 -0.4302  0.7876  0.1121
 1005TIP3    H124430   1.853   6.116  11.768 -0.9657  1.8477 -2.1422
 1005TIP3    H224431   1.951   6.142  11.656  1.8818 -0.6211 -0.3727
 1006TIP3   OH224432   2.262   3.089   4.157 -0.2277  0.1567 -0.1732
 1006TIP3    H124433   2.228   3.141   4.085  0.7285 -0.0339 -0.7795
 1006TIP3    H224434   2.195   3.096   4.225 -1.6051 -0.4622 -1.4192
 1007TIP3   OH224435   0.039   2.934  16.410  0.5616  0.0765  0.1353
 1007TIP3    H124436   0.133   2.954  16.410  0.6622 -0.2759  1.6638
 1007TIP3    H224437   0.017   2.924  16.503 -1.0602  0.4628 -0.1812
 1008TIP3   OH224438   0.390   6.040  14.661 -0.4741 -0.2172 -0.3575
 1008TIP3    H124439   0.373   6.111  14.600  1.8718 -0.9225 -1.9677
 1008TIP3    H224440   0.351   6.069  14.744 -1.3676  1.9808 -1.4768
 1009TIP3   OH224441   6.123   1.858   2.932  0.6367 -0.0657  0.3543
 1009TIP3    H124442   6.082   1.776   2.906  1.2889 -0.3831  0.3070
 1009TIP3    H224443   6.144   1.847   3.025 -0.8701  0.7255  0.8129
 1010TIP3   OH224444   4.093   3.681   4.613  0.3650 -0.0298 -0.0547
 1010TIP3    H124445   4.177   3.667   4.657  1.1520  1.1724 -1.0906
 1010TIP3    H224446   4.117   3.722   4.530 -1.2308 -0.1451 -0.5961
 1011TIP3   OH224447   6.114   5.786   5.676 -0.2843  0.1182  0.5800
 1011TIP3    H124448   6.069   5.772   5.759 -1.1718  0.3595  0.1500
 1011TIP3    H224449   6.046   5.818   5.617  0.2535 -0.3991 -0.3448
 1012TIP3   OH224450   0.920   5.546   1.521 -0.2391  0.2117  0.8829
 1012TIP3    H124451   0.903   5.531   1.614  0.0036  0.5667  0.9875
 1012TIP3    H224452   0.849   5.500   1.476  1.1163 -2.2295  1.1225
 1013TIP3   OH224453   4.420   3.958   1.436  0.1240 -0.4138  0.1259
 1013TIP3    H124454   4.494   4.017   1.418  0.9664 -1.7510 -0.9696
 1013TIP3    H224455   4.387   3.934   1.350  0.2510 -2.1039  0.5277
 1014TIP3   OH224456   2.994   2.287  12.264  0.2241 -0.2062  0.0632
 1014TIP3    H124457   2.948   2.317  12.186  0.6829 -0.8308 -0.4620
 1014TIP3    H224458   3.081   2.327  12.258  1.0906 -2.1122 -1.0173
 1015TIP3   OH224459   2.926   3.223  13.210 -0.9701 -0.2748  0.6045
 1015TIP3    H124460   2.871   3.179  13.145  1.4762 -2.0080 -0.4745
 1015TIP3    H224461   2.955   3.152  13.268 -0.3973  0.6883  1.5277
 1016TIP3   OH224462   2.900   2.208   1.415 -0.3430 -0.8625  0.1600
 1016TIP3    H124463   2.991   2.230   1.397 -0.7167 -0.0948 -0.9143
 1016TIP3    H224464   2.897   2.197   1.510  0.9470 -1.3380  0.1688
 1017TIP3   OH224465   0.865   1.348  14.565  0.6270  0.4814 -0.0922
 1017TIP3    H124466   0.822   1.434  14.563 -1.1877 -0.4069 -0.6772
 1017TIP3    H224467   0.794   1.286  14.580  1.6483 -1.0931 -1.4820
 1018TIP3   OH224468   1.648   4.656   3.713  0.0715  0.2056  0.7395
 1018TIP3    H124469   1.554   4.666   3.728 -0.4706  0.0863 -2.0077
 1018TIP3    H224470   1.684   4.744   3.726 -1.1386  1.2338 -2.0619
 1019TIP3   OH224471   0.746   2.641  15.885  0.0677 -0.0805 -0.5701
 1019TIP3    H124472   0.831   2.660  15.845 -0.8931  1.0757 -2.1732
 1019TIP3    H224473   0.727   2.718  15.938  1.0648 -1.3604  1.7801
 1020TIP3   OH224474   5.941   0.752  15.603 -0.1645  0.1766  0.1100
 1020TIP3    H124475   5.982   0.681  15.553  0.9572  0.8291  0.0625
 1020TIP3    H224476   5.891   0.802  15.539 -1.8465 -1.1525  0.3219
 1021TIP3   OH224477   3.172   6.311   1.904  0.0151  0.1438 -0.2765
 1021TIP3    H124478   3.113   6.336   1.975 -1.0748  0.4250 -1.2504
 1021TIP3    H224479   3.204   6.224   1.929  1.2888  1.0633  1.5443
 1022TIP3   OH224480   3.932   6.482  13.206 -0.0976  0.1872  0.0764
 1022TIP3    H124481   3.994   6.432  13.152  0.1473  1.4530 -0.8649
 1022TIP3    H224482   3.981   6.559  13.234  0.5682 -1.4778  4.1562
 1023TIP3   OH224483   5.022   4.900  12.175 -0.0880 -0.4423 -0.2729
 1023TIP3    H124484   4.999   4.913  12.268 -1.7114 -2.6867 -0.2796
 1023TIP3    H224485   5.066   4.815  12.173  1.0441  0.1331 -1.4514
 1024TIP3   OH224486   5.285   3.671  12.585  0.0386 -1.0581  0.0622
 1024TIP3    H124487   5.203   3.637  12.618 -0.8557 -0.9147 -1.8610
 1024TIP3    H224488   5.269   3.764  12.570  1.1730 -0.5990  1.4030
 1025TIP3   OH224489   0.420   2.897   4.185 -0.0383  0.0923  0.2226
 1025TIP3    H124490   0.437   2.805   4.205 -1.5364 -0.0586  0.9530
 1025TIP3    H224491   0.410   2.900   4.090 -0.3769 -0.5720  0.2362
 1026TIP3   OH224492   4.425   6.402  14.156 -0.6441 -0.2389  0.1386
 1026TIP3    H124493   4.350   6.415  14.097 -0.7015 -1.1734 -0.0069
 1026TIP3    H224494   4.436   6.487  14.199  1.2852  1.4884 -3.3238
 1027TIP3   OH224495   0.061   2.783   6.023  0.7927  0.0483 -0.2216
 1027TIP3    H124496   0.049   2.874   6.052  1.1105  0.0122  0.0362
 1027TIP3    H224497   0.079   2.734   6.103 -0.7940 -0.5117 -0.1841
 1028TIP3   OH224498   3.191   1.523  12.872 -0.0261 -0.6036  0.0624
 1028TIP3    H124499   3.274   1.509  12.919 -0.2615 -0.8375  0.4126
 1028TIP3    H224500   3.185   1.618  12.862  1.0702 -0.6540 -1.3913
 1029TIP3   OH224501   4.796   2.138   0.440  0.2849  0.0970  0.2659
 1029TIP3    H124502   4.773   2.114   0.529  1.6336  1.0633  0.9208
 1029TIP3    H224503   4.753   2.222   0.426  0.3881  0.1314  0.1543
 1030TIP3   OH224504   2.096   5.114   3.935 -0.3613 -0.3595  0.3231
 1030TIP3    H124505   2.129   5.153   4.016 -0.0373  1.3471 -0.5921
 1030TIP3    H224506   2.101   5.019   3.951 -0.6142 -0.0709  2.3985
 1031TIP3   OH224507   6.691   2.057  12.576 -0.4405  0.6348 -0.0217
 1031TIP3    H124508   6.635   1.980  12.563  0.5660  0.1799 -2.1773
 1031TIP3    H224509   6.633   2.131  12.559 -0.7852  0.2301 -0.6505
 1032TIP3   OH224510   3.163   6.448  11.881  0.1831 -0.4332  0.0480
 1032TIP3    H124511   3.105   6.405  11.943  0.0896 -1.1484 -0.5105
 1032TIP3    H224512   3.229   6.381  11.860 -0.3292 -0.5489 -1.3136
 1033TIP3   OH224513   1.541   5.148   1.879  0.5863 -0.2444  0.4825
 1033TIP3    H124514   1.609   5.215   1.883  1.6119 -1.1420 -0.6568
 1033TIP3    H224515   1.545   5.104   1.964  1.6388 -0.4503  0.3434
 1034TIP3   OH224516   5.741   0.260   4.573  0.0308  0.0109  0.2812
 1034TIP3    H124517   5.716   0.216   4.654 -1.8165  0.3077 -0.0870
 1034TIP3    H224518   5.808   0.323   4.600 -0.0150 -0.4063  1.4396
 1035TIP3   OH224519   4.613   2.471  12.704 -0.1566  0.2028 -0.0560
 1035TIP3    H124520   4.523   2.468  12.737  0.2035 -0.5388  0.9144
 1035TIP3    H224521   4.616   2.404  12.636  0.4023 -2.0287  2.0035
 1036TIP3   OH224522   5.353   5.721  11.354 -0.5186 -0.6492 -0.0194
 1036TIP3    H124523   5.319   5.720  11.265 -1.5624 -0.8565  0.3605
 1036TIP3    H224524   5.287   5.770  11.404 -1.2884 -2.7215  1.1257
 1037TIP3   OH224525   5.840   6.334   4.359  0.0761  0.4000 -0.0521
 1037TIP3    H124526   5.761   6.387   4.367 -1.5456 -1.7326 -1.0043
 1037TIP3    H224527   5.901   6.389   4.310 -1.6234  1.3070 -1.2406
 1038TIP3   OH224528   2.823   3.639  11.633  0.0944 -0.0603  0.2476
 1038TIP3    H124529   2.871   3.561  11.662 -0.2695  0.0225  1.1228
 1038TIP3    H224530   2.841   3.646  11.540  1.0044 -0.5796  0.3756
 1039TIP3   OH224531   5.576   1.915   3.557  0.5195  0.1875 -0.2966
 1039TIP3    H124532   5.561   1.851   3.626  1.6180 -0.7284 -0.8622
 1039TIP3    H224533   5.600   1.862   3.481  0.5598  1.2339 -1.0257
 1040TIP3   OH224534   4.839   4.967  12.582 -0.1973 -0.6857 -0.3433
 1040TIP3    H124535   4.914   4.929  12.537  0.0585  0.7084 -1.1661
 1040TIP3    H224536   4.876   5.017  12.655 -0.3377 -0.3046 -0.5261
 1041TIP3   OH224537   2.529   3.458  14.610  0.3505 -0.3185 -0.1602
 1041TIP3    H124538   2.500   3.548  14.623 -1.4406 -0.8106 -0.5335
 1041TIP3    H224539   2.583   3.438  14.687 -1.1506  0.3264  1.1005
 1042TIP3   OH224540   3.809   6.080   1.444  0.3976 -0.0878 -0.2085
 1042TIP3    H124541   3.787   6.092   1.537  0.7247  0.2206 -0.1678
 1042TIP3    H224542   3.832   6.168   1.413  0.6487 -0.2474 -0.4848
 1043TIP3   OH224543   3.644   1.557   3.953  0.1140  0.2181 -0.0701
 1043TIP3    H124544   3.717   1.578   3.896  0.2168 -1.2459 -0.5290
 1043TIP3    H224545   3.638   1.630   4.015  0.1669  1.7044 -1.7695
 1044TIP3   OH224546   4.931   3.135   1.603 -0.1489 -0.3015  0.2049
 1044TIP3    H124547   4.952   3.042   1.612 -0.9487 -0.5837 -0.7100
 1044TIP3    H224548   5.003   3.180   1.647  0.1668 -1.3513  0.8031
 1045TIP3   OH224549   4.784   5.649  11.896  0.0600 -0.3048 -0.1627
 1045TIP3    H124550   4.849   5.682  11.834  0.4372 -1.9144 -0.6789
 1045TIP3    H224551   4.802   5.695  11.977  1.0765  0.1432 -0.6306
 1046TIP3   OH224552   1.780   1.726  15.313 -0.4165  0.4592 -0.1667
 1046TIP3    H124553   1.740   1.764  15.391  0.8090  0.9701  0.2451
 1046TIP3    H224554   1.712   1.671  15.274 -1.2035  0.6000  0.9842
 1047TIP3   OH224555   2.581   5.379  12.795  0.5897  0.0139 -0.1222
 1047TIP3    H124556   2.553   5.404  12.707 -0.8739 -2.1319 -0.3299
 1047TIP3    H224557   2.594   5.285  12.790 -1.4881 -0.5191  2.4098
 1048TIP3   OH224558   1.660   3.446  13.649  0.7565  0.0538  0.2355
 1048TIP3    H124559   1.672   3.490  13.733  0.9651  2.1320 -0.8290
 1048TIP3    H224560   1.577   3.480  13.616  0.3825 -1.1876 -0.1725
 1049TIP3   OH224561   6.392   5.733  10.791  0.2642 -0.5896  0.1806
 1049TIP3    H124562   6.462   5.679  10.755  1.3163  1.6318 -1.3097
 1049TIP3    H224563   6.425   5.762  10.876  1.2007  0.3828 -0.4801
 1050TIP3   OH224564   3.450   0.901  13.275 -0.8314  0.4160  0.1311
 1050TIP3    H124565   3.357   0.922  13.279 -0.5242  2.1849 -0.6636
 1050TIP3    H224566   3.492   0.974  13.322  0.3777  2.0355 -3.1966
 1051TIP3   OH224567   3.183   0.245  16.342  0.6268  0.2708  0.2170
 1051TIP3    H124568   3.143   0.170  16.299  0.7044  0.4375 -0.1557
 1051TIP3    H224569   3.199   0.307  16.271  1.7867  0.1045  0.3147
 1052TIP3   OH224570   0.972   1.526   4.246  0.2729  0.0911  0.9358
 1052TIP3    H124571   0.902   1.581   4.279  1.0478  1.0200  1.0677
 1052TIP3    H224572   0.958   1.441   4.289 -1.8888 -0.3714 -0.5121
 1053TIP3   OH224573   3.683   3.762   3.235 -0.6089 -0.0668  0.3561
 1053TIP3    H124574   3.650   3.718   3.314 -0.1137  0.1477  0.6862
 1053TIP3    H224575   3.654   3.705   3.163 -2.5001  0.5775  0.5413
 1054TIP3   OH224576   5.227   0.538   2.276 -0.3041  0.0040 -0.0145
 1054TIP3    H124577   5.163   0.605   2.255  0.8591  0.7298 -1.4082
 1054TIP3    H224578   5.274   0.572   2.352 -2.1572 -0.9962  1.6860
 1055TIP3   OH224579   3.282   3.645  17.003 -1.1146 -0.4949  0.9151
 1055TIP3    H124580   3.200   3.659  16.956 -0.6151  0.7683  0.3861
 1055TIP3    H224581   3.255   3.622  17.092 -2.0395 -0.6313  0.6148
 1056TIP3   OH224582   4.642   5.500  17.104 -0.0833  0.1173 -0.0212
 1056TIP3    H124583   4.628   5.550  17.185  1.4035 -0.3153  0.5414
 1056TIP3    H224584   4.677   5.565  17.043 -0.3788  0.2616 -0.0384
 1057TIP3   OH224585   1.872   6.459  16.690 -0.1233  0.2719 -0.6834
 1057TIP3    H124586   1.921   6.377  16.694  0.3456  0.5557 -0.5475
 1057TIP3    H224587   1.906   6.504  16.613 -0.9766 -0.0310 -1.2562
 1058TIP3   OH224588   6.535   2.053   4.447 -0.3322 -0.1671  0.7297
 1058TIP3    H124589   6.444   2.044   4.477 -0.4353 -3.0651 -0.0874
 1058TIP3    H224590   6.584   1.992   4.502  0.1297 -2.6453 -2.1425
 1059TIP3   OH224591   0.233   1.854   1.488 -0.2053  0.3943 -0.0861
 1059TIP3    H124592   0.207   1.845   1.397 -0.0789  1.3651 -0.2237
 1059TIP3    H224593   0.326   1.877   1.484  0.3443 -1.5445  0.3544
 1060TIP3   OH224594   1.839   5.349  15.110 -0.3270  0.4332  0.2345
 1060TIP3    H124595   1.840   5.289  15.184  1.6374 -0.0799 -0.1524
 1060TIP3    H224596   1.843   5.436  15.149 -0.6897  0.2293  0.7375
 1061TIP3   OH224597   3.638   2.590   3.037  0.1160  0.1725 -0.3341
 1061TIP3    H124598   3.660   2.503   3.004 -1.4467  0.2587 -1.7107
 1061TIP3    H224599   3.718   2.641   3.025  0.9813 -0.9679  0.2634
 1062TIP3   OH224600   5.921   4.852   3.941  0.2741 -0.0440 -0.3087
 1062TIP3    H124601   6.017   4.845   3.942  0.1940 -4.3125 -1.2370
 1062TIP3    H224602   5.893   4.798   4.015 -1.4149  0.4594 -0.5515
 1063TIP3   OH224603   2.453   4.593  17.225  0.5902 -0.2838  0.0326
 1063TIP3    H124604   2.495   4.610  17.141  3.0325 -1.2600  0.9752
 1063TIP3    H224605   2.402   4.513  17.209  3.0747 -1.9960  0.0209
 1064TIP3   OH224606   1.800   2.903  12.430  0.0624 -0.3332 -0.4696
 1064TIP3    H124607   1.889   2.870  12.435 -0.3802 -1.3844  2.0866
 1064TIP3    H224608   1.800   2.980  12.488 -0.5172  0.1141 -1.0504
 1065TIP3   OH224609   1.217   4.722   0.659 -0.1343  0.5033  0.1093
 1065TIP3    H124610   1.252   4.633   0.656 -0.9482  0.1488  0.6689
 1065TIP3    H224611   1.151   4.720   0.729  0.4653  1.7871  0.7538
 1066TIP3   OH224612   1.962   2.777   3.818  0.1878  0.1257  0.1463
 1066TIP3    H124613   2.011   2.731   3.750  0.4731  1.9498 -0.9651
 1066TIP3    H224614   1.879   2.801   3.776 -1.1399 -1.6761  1.5592
 1067TIP3   OH224615   2.680   1.392  17.151  0.2330 -0.0727 -0.2750
 1067TIP3    H124616   2.586   1.405  17.163  0.2332 -0.5073  0.2558
 1067TIP3    H224617   2.690   1.366  17.060 -0.2611 -0.8862 -0.1032
 1068TIP3   OH224618   1.816   5.607   1.349 -0.1389 -0.5995  0.3064
 1068TIP3    H124619   1.759   5.678   1.321  0.1061 -0.5634 -0.1151
 1068TIP3    H224620   1.866   5.643   1.423 -0.9824 -0.7810  0.9809
 1069TIP3   OH224621   5.819   0.313   2.482 -0.5030 -0.4747 -0.5066
 1069TIP3    H124622   5.834   0.255   2.408  0.8491 -2.2394  1.0603
 1069TIP3    H224623   5.893   0.297   2.541 -1.6919  0.5753  1.3920
 1070TIP3   OH224624   2.425   0.748  15.711 -0.3315 -0.0307  0.0941
 1070TIP3    H124625   2.435   0.843  15.701  0.0894 -0.1338 -0.4858
 1070TIP3    H224626   2.360   0.723  15.645  1.5568 -0.5318 -1.6482
 1071TIP3   OH224627   4.994   2.870  13.431  0.4991  0.1447  0.5778
 1071TIP3    H124628   4.940   2.793  13.414 -0.3283  1.0287 -0.9994
 1071TIP3    H224629   4.939   2.928  13.484  0.2795  0.6105 -0.1574
 1072TIP3   OH224630   5.622   4.787  15.639 -0.5266 -0.1487 -0.5384
 1072TIP3    H124631   5.628   4.738  15.557  1.2224  0.4324 -0.7861
 1072TIP3    H224632   5.587   4.872  15.613  0.7337  0.2965 -0.8143
 1073TIP3   OH224633   1.460   3.912  14.059 -0.0295  0.3543 -0.0751
 1073TIP3    H124634   1.527   3.895  14.125  0.7116  0.4511 -0.7823
 1073TIP3    H224635   1.378   3.881  14.098  0.6603 -1.1363  0.2336
 1074TIP3   OH224636   5.047   4.501   1.400 -0.2337  0.0171  0.7529
 1074TIP3    H124637   5.117   4.483   1.463 -0.4292  2.0415  1.6116
 1074TIP3    H224638   5.092   4.505   1.315  0.5609  0.4714  1.1827
 1075TIP3   OH224639   6.005   0.395  11.773 -0.1937 -1.2375  0.3984
 1075TIP3    H124640   5.917   0.430  11.783  0.1874 -0.4541  1.1068
 1075TIP3    H224641   6.045   0.451  11.707  0.3789 -0.3826  1.4457
 1076TIP3   OH224642   2.512   6.023  11.802  0.4257 -0.1339 -0.3519
 1076TIP3    H124643   2.507   6.113  11.834  1.7456 -0.1395 -0.0985
 1076TIP3    H224644   2.421   5.993  11.805 -0.0602  1.2168 -0.5544
 1077TIP3   OH224645   1.662   0.914   3.694 -0.2039 -0.3739 -0.1330
 1077TIP3    H124646   1.603   0.977   3.737  1.7018  0.6968  1.0609
 1077TIP3    H224647   1.676   0.846   3.760  0.4012 -0.2679 -0.1477
 1078TIP3   OH224648   2.812   4.203   4.308 -0.5535 -0.1827  0.1788
 1078TIP3    H124649   2.766   4.124   4.334  0.4096 -0.5907  0.7147
 1078TIP3    H224650   2.856   4.233   4.388  0.7150 -0.2422 -0.4717
 1079TIP3   OH224651   6.734   2.965  16.008  0.6181  0.2346 -0.2363
 1079TIP3    H124652   6.684   2.966  16.090 -1.7649  0.0010 -1.5761
 1079TIP3    H224653   6.736   3.057  15.981  0.4106  0.1772 -0.4533
 1080TIP3   OH224654   4.154   4.338  13.603  0.2721  0.8433 -0.1144
 1080TIP3    H124655   4.189   4.293  13.526  0.5767  0.7095  0.1002
 1080TIP3    H224656   4.181   4.283  13.677 -0.3240  0.7836  0.0609
 1081TIP3   OH224657   4.881   5.796   3.305  0.4444 -0.3473  0.3278
 1081TIP3    H124658   4.935   5.863   3.262  1.4012 -0.7802  0.8121
 1081TIP3    H224659   4.793   5.834   3.308  1.4042  1.9904  2.7335
 1082TIP3   OH224660   1.198   4.876  16.618  0.1268  0.2169 -0.1224
 1082TIP3    H124661   1.208   4.883  16.713  1.1333  0.2366 -0.2249
 1082TIP3    H224662   1.118   4.925  16.599  0.4744  1.0904  0.6059
 1083TIP3   OH224663   6.329   0.765  12.359 -0.6038 -0.0715 -0.1302
 1083TIP3    H124664   6.264   0.699  12.339 -0.7720  0.3753 -1.1315
 1083TIP3    H224665   6.278   0.843  12.383 -0.4158 -0.0919  0.3558
 1084TIP3   OH224666   1.119   5.981  14.752  0.2295 -0.4009  0.1461
 1084TIP3    H124667   1.059   5.921  14.709  0.0293 -0.1064  0.0095
 1084TIP3    H224668   1.079   5.997  14.838 -1.5866  2.2250 -1.0385
 1085TIP3   OH224669   3.684   5.466   4.986  0.5792  0.2512  0.1501
 1085TIP3    H124670   3.757   5.419   4.946 -0.3994 -0.5012 -0.8395
 1085TIP3    H224671   3.692   5.555   4.952  0.7310  0.0362 -0.3992
 1086TIP3   OH224672   6.561   6.131  16.032 -0.6530  0.1234  0.5561
 1086TIP3    H124673   6.489   6.082  15.991 -0.2884 -0.7490  0.9370
 1086TIP3    H224674   6.632   6.068  16.040 -1.0133 -0.0443  3.4081
 1087TIP3   OH224675   0.231   3.389  14.623  0.1615  0.1395  0.3679
 1087TIP3    H124676   0.277   3.323  14.675  2.2337  1.9174  0.9628
 1087TIP3    H224677   0.220   3.463  14.682 -1.2864  0.6824 -0.5306
 1088TIP3   OH224678   2.950   5.328   2.719  0.3347 -0.4466  0.4235
 1088TIP3    H124679   2.970   5.412   2.677  0.1731  0.1287  1.4546
 1088TIP3    H224680   2.985   5.262   2.659  0.4375  0.3506 -0.4214
 1089TIP3   OH224681   3.478   4.401  12.025  0.0798 -0.0679 -0.1327
 1089TIP3    H124682   3.442   4.420  11.939  1.6483  1.2242 -0.5542
 1089TIP3    H224683   3.526   4.480  12.049  0.8810 -0.9362  1.2899
 1090TIP3   OH224684   4.351   5.372   2.925 -0.0989 -0.2001 -0.1447
 1090TIP3    H124685   4.353   5.460   2.886  1.3850 -0.6335 -1.1218
 1090TIP3    H224686   4.317   5.316   2.855  0.4536 -0.6469 -0.0560
 1091TIP3   OH224687   5.920   1.689   6.523 -0.1434  0.0774 -0.5631
 1091TIP3    H124688   5.959   1.602   6.529 -1.3977 -0.4598  0.1032
 1091TIP3    H224689   5.955   1.736   6.599  1.9821  0.7986 -1.9141
 1092TIP3   OH224690   2.599   2.598   2.186 -0.0732  0.1117  0.5371
 1092TIP3    H124691   2.647   2.520   2.160 -0.6029 -0.2046  0.4972
 1092TIP3    H224692   2.533   2.567   2.248  0.0472  0.6019  0.9174
 1093TIP3   OH224693   5.885   6.234   1.636 -0.3660  0.2852 -0.3439
 1093TIP3    H124694   5.929   6.165   1.585  0.2647 -0.0989  0.6935
 1093TIP3    H224695   5.828   6.277   1.573  0.8013  0.1741 -1.5105
 1094TIP3   OH224696   3.959   0.045   2.414  0.3686  0.0920  0.2966
 1094TIP3    H124697   3.937  -0.022   2.349 -0.1325  0.8729 -0.3650
 1094TIP3    H224698   3.919   0.125   2.379  2.2635  1.0796  0.2671
 1095TIP3   OH224699   6.532   1.944  15.029  0.1146  0.1543 -0.1517
 1095TIP3    H124700   6.548   1.861  15.073  0.2855 -0.0359 -0.5634
 1095TIP3    H224701   6.618   1.985  15.023  0.2897 -0.3425 -1.3262
 1096TIP3   OH224702   4.399   4.901  11.918 -0.0311  0.2701  0.2727
 1096TIP3    H124703   4.341   4.892  11.993 -0.2348  1.5607  0.2928
 1096TIP3    H224704   4.445   4.984  11.933 -0.8105  1.0711 -1.5198
 1097TIP3   OH224705   6.232   0.490  12.424  0.4315 -0.4075 -0.1969
 1097TIP3    H124706   6.189   0.406  12.442 -0.8448 -0.1056 -1.6824
 1097TIP3    H224707   6.301   0.469  12.362 -1.3707 -0.1195 -2.4504
 1098TIP3   OH224708   1.954   2.642  11.479  0.8209  0.2544  0.1763
 1098TIP3    H124709   2.049   2.649  11.485  1.0033 -0.2281 -1.6485
 1098TIP3    H224710   1.939   2.578  11.410 -0.8485 -0.4027  1.0793
 1099TIP3   OH224711   2.599   1.003  13.188 -0.2312 -0.1452 -0.5960
 1099TIP3    H124712   2.587   0.920  13.142  0.5523 -0.3133 -0.5148
 1099TIP3    H224713   2.674   0.988  13.246 -0.4543  0.4349 -0.1406
 1100TIP3   OH224714   4.705   1.275   0.671  0.1622 -0.2312  0.3224
 1100TIP3    H124715   4.759   1.296   0.747 -0.6041 -1.7962  1.3562
 1100TIP3    H224716   4.627   1.234   0.708 -0.2977 -0.8986 -1.3030
 1101TIP3   OH224717   4.165   0.420  15.920 -0.1840 -0.4224 -0.6403
 1101TIP3    H124718   4.161   0.333  15.960  0.1986 -0.0296  0.2886
 1101TIP3    H224719   4.117   0.411  15.838 -0.7682 -1.3296 -0.2201
 1102TIP3   OH224720   3.880   4.156   6.155  0.4755 -0.1826  0.0944
 1102TIP3    H124721   3.910   4.069   6.182  0.3398 -0.4788 -0.6783
 1102TIP3    H224722   3.795   4.166   6.196  0.0248 -0.8523 -0.6332
 1103TIP3   OH224723   2.047   4.279  12.900  0.0357  0.7240 -0.0742
 1103TIP3    H124724   2.089   4.194  12.912 -2.0541 -0.2683  0.8685
 1103TIP3    H224725   2.067   4.303  12.809  2.3220  0.2237  0.2469
 1104TIP3   OH224726   5.535   3.252  11.283 -0.1503  0.2495 -0.1574
 1104TIP3    H124727   5.519   3.161  11.307 -2.1481  0.2173 -1.3399
 1104TIP3    H224728   5.543   3.298  11.366 -2.6519 -0.4832  0.5817
 1105TIP3   OH224729   1.498   4.053  16.210  0.1184  0.3622  0.3585
 1105TIP3    H124730   1.461   3.990  16.149 -0.2703 -1.4572  2.3516
 1105TIP3    H224731   1.422   4.095  16.252  0.3635  0.6358  0.5409
 1106TIP3   OH224732   3.945   6.687  13.749  0.3458 -0.0847  0.0476
 1106TIP3    H124733   4.003   6.751  13.708  0.7272 -1.2504 -1.3251
 1106TIP3    H224734   3.866   6.689  13.694 -0.3519  0.4382  1.0373
 1107TIP3   OH224735   0.880   3.464  12.154 -0.0038 -0.0741 -0.1567
 1107TIP3    H124736   0.907   3.445  12.064  1.7987 -1.4617  0.6181
 1107TIP3    H224737   0.926   3.399  12.207 -0.8408  0.8576  1.8128
 1108TIP3   OH224738   2.631   1.675  12.291 -0.4334  0.1929 -0.3124
 1108TIP3    H124739   2.613   1.767  12.310 -0.2507 -0.0708  1.3574
 1108TIP3    H224740   2.561   1.628  12.336 -0.2247 -0.5105 -0.7056
 1109TIP3   OH224741   4.760   3.728  16.819 -0.2383 -0.2766 -0.4378
 1109TIP3    H124742   4.726   3.726  16.729  0.3167 -0.6128 -0.6450
 1109TIP3    H224743   4.687   3.698  16.872 -1.4708  2.4358 -0.4518
 1110TIP3   OH224744   3.831   6.354   4.581 -0.2573 -0.1624 -0.3767
 1110TIP3    H124745   3.766   6.312   4.526  0.4449  0.3833 -1.6578
 1110TIP3    H224746   3.846   6.440   4.541 -0.0943  0.4596  0.9543
 1111TIP3   OH224747   1.260   4.216   0.811 -0.2324 -0.3644  0.3441
 1111TIP3    H124748   1.228   4.148   0.869  0.3632  0.7157  2.0034
 1111TIP3    H224749   1.200   4.289   0.825 -0.8380 -0.4738 -1.3713
 1112TIP3   OH224750   5.921   0.526  11.082  0.5492  0.1207  0.1894
 1112TIP3    H124751   5.896   0.458  11.019  0.6798  0.8002 -0.6298
 1112TIP3    H224752   5.839   0.571  11.101  0.4371 -0.3535  0.8484
 1113TIP3   OH224753   3.010   3.699  13.240 -0.3394 -0.5513 -0.1666
 1113TIP3    H124754   2.939   3.635  13.250 -1.2859  0.3476 -0.8975
 1113TIP3    H224755   3.035   3.720  13.330 -0.9246 -0.9619  0.1031
 1114TIP3   OH224756   1.041   2.678   5.231 -1.1373 -0.3830 -0.5587
 1114TIP3    H124757   0.957   2.639   5.207 -1.4297 -1.6725  2.2171
 1114TIP3    H224758   1.021   2.771   5.242 -1.6183 -0.2570 -2.2485
 1115TIP3   OH224759   2.209   4.374  13.198 -0.3255 -0.1010  0.1667
 1115TIP3    H124760   2.190   4.425  13.119  2.1556 -0.1793 -0.5736
 1115TIP3    H224761   2.217   4.284  13.166  1.9128  0.0368  0.2309
 1116TIP3   OH224762   4.583   2.598   5.307 -0.1381 -0.2146 -0.0564
 1116TIP3    H124763   4.670   2.634   5.292 -0.1817  0.3347  0.9216
 1116TIP3    H224764   4.598   2.517   5.356 -0.2036  0.2185  0.6870
 1117TIP3   OH224765   1.321   4.590   1.801 -0.2343 -0.1570 -0.6519
 1117TIP3    H124766   1.400   4.547   1.832  0.6664 -0.2061 -2.8428
 1117TIP3    H224767   1.258   4.519   1.787  0.5383 -0.5744 -2.2260
 1118TIP3   OH224768   1.278   4.206  13.435  0.2432 -0.9088  0.4715
 1118TIP3    H124769   1.183   4.216  13.448  0.0054  1.2196 -1.9350
 1118TIP3    H224770   1.310   4.296  13.425  2.0375 -1.6785 -1.3905
 1119TIP3   OH224771   0.236   0.659   0.600 -0.8173 -0.2721  0.7212
 1119TIP3    H124772   0.317   0.617   0.572 -0.1771  0.9698  0.6563
 1119TIP3    H224773   0.181   0.660   0.522 -1.3143 -2.0284  1.0193
 1120TIP3   OH224774   2.634   0.629   4.182  0.3859  0.0659  0.2368
 1120TIP3    H124775   2.539   0.619   4.171  0.2919  0.8336  0.2733
 1120TIP3    H224776   2.672   0.566   4.121 -0.1481  1.3367 -1.5004
 1121TIP3   OH224777   3.236   5.178   4.506 -0.3480 -0.2660  0.7842
 1121TIP3    H124778   3.176   5.245   4.538 -1.1441 -1.4248  1.8485
 1121TIP3    H224779   3.180   5.111   4.468  0.4395 -0.2557 -0.4451
 1122TIP3   OH224780   4.418   2.725  12.244  0.1598 -0.0220  0.0729
 1122TIP3    H124781   4.453   2.651  12.294 -0.8056 -0.6873 -0.2194
 1122TIP3    H224782   4.496   2.770  12.212  0.7808 -1.5556 -0.6819
 1123TIP3   OH224783   2.380   3.076  16.670  0.0705  0.1486  0.4106
 1123TIP3    H124784   2.473   3.076  16.693 -0.1867 -0.2442  1.4881
 1123TIP3    H224785   2.349   3.164  16.692  0.4447  0.6938 -1.1159
 1124TIP3   OH224786   4.616   0.426  11.715 -0.1122 -0.5510 -0.1871
 1124TIP3    H124787   4.617   0.334  11.688  0.3077 -0.8230  0.7198
 1124TIP3    H224788   4.707   0.446  11.737 -0.3974 -0.2996  0.8459
 1125TIP3   OH224789   5.350   2.473  12.253 -0.1351  0.1598  0.8185
 1125TIP3    H124790   5.390   2.481  12.340  1.2215  1.3993  0.1286
 1125TIP3    H224791   5.424   2.477  12.192 -1.2240  1.7834 -0.4824
 1126TIP3   OH224792   1.008   4.733  12.489 -0.2969  0.5938  0.1387
 1126TIP3    H124793   1.078   4.774  12.439 -0.4758  1.8590  0.8704
 1126TIP3    H224794   1.003   4.644  12.455  1.0954  0.7313 -0.5019
 1127TIP3   OH224795   4.813   3.314  11.858 -0.3771  0.2048 -0.5239
 1127TIP3    H124796   4.816   3.277  11.946 -0.8699 -1.3939 -1.1392
 1127TIP3    H224797   4.886   3.375  11.855  0.6685 -0.9417  0.4860
 1128TIP3   OH224798   1.585   3.787  11.580 -0.2411 -0.1044 -0.3271
 1128TIP3    H124799   1.562   3.875  11.549  0.5996 -0.2437 -1.4003
 1128TIP3    H224800   1.604   3.798  11.673  1.6856  1.2164 -0.8335
 1129TIP3   OH224801   2.299   3.307   3.286  0.0055 -0.3821 -0.1139
 1129TIP3    H124802   2.245   3.314   3.364  1.4065  0.3064  0.8457
 1129TIP3    H224803   2.261   3.234   3.236  0.1805 -2.1315  2.1338
 1130TIP3   OH224804   2.766   0.141  16.133 -0.2353 -0.6259  0.1141
 1130TIP3    H124805   2.733   0.074  16.194  0.6273 -0.1580  1.1386
 1130TIP3    H224806   2.785   0.216  16.189  0.6053 -0.1788 -0.7483
 1131TIP3   OH224807   2.406   2.298   3.425 -0.0751 -0.2314 -0.4362
 1131TIP3    H124808   2.467   2.239   3.469 -0.8351 -1.8703 -1.4540
 1131TIP3    H224809   2.391   2.257   3.339 -1.4001  0.9391 -0.8126
 1132TIP3   OH224810   4.711   3.871   4.752 -0.4926  0.0851 -0.3726
 1132TIP3    H124811   4.671   3.864   4.838  1.6678  2.7199  1.0034
 1132TIP3    H224812   4.656   3.935   4.706 -0.9153 -0.3550 -0.4827
 1133TIP3   OH224813   5.919   4.186  17.108  0.3780 -0.2968  0.0243
 1133TIP3    H124814   5.947   4.274  17.082 -1.7690  0.9635  1.6458
 1133TIP3    H224815   5.907   4.140  17.025 -0.1051  1.4923 -0.9574
 1134TIP3   OH224816   1.019   1.688   1.809  0.3629 -0.2302 -0.9211
 1134TIP3    H124817   1.061   1.741   1.741  1.9433 -0.4814 -0.1930
 1134TIP3    H224818   1.061   1.602   1.802  2.0728  0.2693  1.5992
 1135TIP3   OH224819   4.285   6.111   2.102 -0.4678  0.3497  0.1704
 1135TIP3    H124820   4.270   6.167   2.026 -1.4797  1.6030  1.2747
 1135TIP3    H224821   4.241   6.029   2.080 -0.2923  0.5065 -0.8136
 1136TIP3   OH224822   5.522   4.977  14.096  0.2331 -0.2213 -0.4282
 1136TIP3    H124823   5.490   4.976  14.006 -0.7125  0.3268 -0.1106
 1136TIP3    H224824   5.557   5.066  14.107  0.2040 -0.2387 -0.2007
 1137TIP3   OH224825   1.141   3.034   2.958  0.2264  0.1474  0.1810
 1137TIP3    H124826   1.055   3.071   2.976  1.3964  2.0452  2.3905
 1137TIP3    H224827   1.164   3.067   2.871 -0.6622  0.8535  0.2038
 1138TIP3   OH224828   1.160   4.646   2.414  0.4860  0.1918  0.8632
 1138TIP3    H124829   1.085   4.597   2.448  0.4426  0.7868  1.6522
 1138TIP3    H224830   1.182   4.602   2.332 -1.7382  0.9345 -0.2463
 1139TIP3   OH224831   4.919   3.349   6.606 -0.1374  0.2423 -0.1678
 1139TIP3    H124832   4.970   3.428   6.625  0.2107  0.2642 -1.1397
 1139TIP3    H224833   4.833   3.382   6.580  0.0808  0.3187 -0.8049
 1140TIP3   OH224834   0.677   5.420  11.566  0.1270  0.1112 -0.1084
 1140TIP3    H124835   0.736   5.405  11.492  0.2527  0.0898 -0.0027
 1140TIP3    H224836   0.606   5.357  11.553  0.0738  0.2066 -0.2909
 1141TIP3   OH224837   3.930   6.421  15.140 -0.5926  0.1500 -0.6880
 1141TIP3    H124838   3.971   6.477  15.074  0.0194 -0.4026 -0.7868
 1141TIP3    H224839   4.003   6.377  15.183 -0.9998  0.3040  0.1849
 1142TIP3   OH224840   0.067   1.884   5.046 -0.2241 -0.0216  0.5203
 1142TIP3    H124841   0.135   1.893   4.980  1.1252 -3.5893  1.2358
 1142TIP3    H224842   0.094   1.943   5.116  1.5388 -0.5132  0.2938
 1143TIP3   OH224843   6.057   4.873   0.417  0.1204  0.1326  0.3993
 1143TIP3    H124844   6.062   4.948   0.358  1.2596  0.3809  0.7760
 1143TIP3    H224845   6.032   4.800   0.361  0.3326  0.5370 -0.2348
 1144TIP3   OH224846   3.683   5.579   3.611 -0.1989 -0.1129 -0.0491
 1144TIP3    H124847   3.697   5.672   3.633 -0.3366 -0.5435  2.0649
 1144TIP3    H224848   3.771   5.547   3.592 -0.2005  0.5370 -1.2283
 1145TIP3   OH224849   1.722   2.805  14.261 -0.4263 -0.0102  0.4012
 1145TIP3    H124850   1.729   2.861  14.338  1.9797 -1.9848  1.7730
 1145TIP3    H224851   1.651   2.745  14.281  0.2223 -0.5453  1.1628
 1146TIP3   OH224852   6.005   0.295   0.972  0.1650 -0.0702  0.3976
 1146TIP3    H124853   5.968   0.208   0.964 -1.3995  0.5643  0.3496
 1146TIP3    H224854   6.057   0.292   1.053  1.1369 -1.3626 -0.2444
 1147TIP3   OH224855   4.800   2.640  11.306  0.2136 -0.2592  0.5347
 1147TIP3    H124856   4.894   2.632  11.322  0.9165  0.4057 -2.5390
 1147TIP3    H224857   4.789   2.727  11.268 -1.6554 -0.3675  0.6911
 1148TIP3   OH224858   5.067   3.337  14.654  0.2773 -0.0868 -0.3451
 1148TIP3    H124859   5.022   3.291  14.725 -1.1040  1.8768  0.1302
 1148TIP3    H224860   5.160   3.333  14.679  0.2093 -2.3487 -0.2357
 1149TIP3   OH224861   0.283   1.249  12.784  0.6760 -0.1336 -0.1922
 1149TIP3    H124862   0.377   1.264  12.774  0.7532 -1.2220 -1.2193
 1149TIP3    H224863   0.277   1.168  12.835  0.2876  0.0830  0.1147
 1150TIP3   OH224864   2.060   3.592   3.872 -0.2790  0.1245 -0.1965
 1150TIP3    H124865   2.075   3.582   3.966  0.6064  2.0237 -0.0843
 1150TIP3    H224866   1.995   3.526   3.850 -0.6729 -0.1903  1.7941
 1151TIP3   OH224867   5.938   2.755  12.140 -0.1410  0.3922 -0.4539
 1151TIP3    H124868   5.919   2.707  12.220  0.9105  1.2672  0.3504
 1151TIP3    H224869   6.005   2.818  12.165 -2.0326  2.8803 -1.2579
 1152TIP3   OH224870   4.715   2.049   6.023  0.6468  0.6630  0.5870
 1152TIP3    H124871   4.666   2.089   6.094 -0.6527  1.2886 -0.6153
 1152TIP3    H224872   4.734   1.960   6.054  0.0897  0.9126  1.6889
 1153TIP3   OH224873   0.493   3.711  13.229 -0.2812 -0.3346 -0.3117
 1153TIP3    H124874   0.512   3.704  13.323 -1.2308 -1.4652 -0.1913
 1153TIP3    H224875   0.442   3.792  13.221  0.1211 -0.0349  0.0864
 1154TIP3   OH224876   5.239   3.135   3.594  0.4834  0.1472  0.2136
 1154TIP3    H124877   5.251   3.161   3.685  1.2050  0.2055  0.1029
 1154TIP3    H224878   5.296   3.194   3.545 -1.2121  1.3119 -0.4434
 1155TIP3   OH224879   0.718   4.778  11.373 -0.3079 -0.3598 -0.3900
 1155TIP3    H124880   0.667   4.764  11.453 -0.2676  1.1714 -0.0691
 1155TIP3    H224881   0.749   4.868  11.380  0.5066 -0.5159 -1.6886
 1156TIP3   OH224882   1.813   6.343  13.795  0.1474 -0.1188  0.1119
 1156TIP3    H124883   1.749   6.412  13.780  0.9626  0.4417 -0.9159
 1156TIP3    H224884   1.877   6.383  13.854 -0.7400 -0.8833  1.6544
 1157TIP3   OH224885   6.255   1.968   4.224  0.7206 -0.4524 -0.3890
 1157TIP3    H124886   6.254   2.036   4.157  0.7394 -1.2444 -1.2079
 1157TIP3    H224887   6.166   1.932   4.224  1.3960 -2.2328 -1.8658
 1158TIP3   OH224888   5.814   6.634  10.949  0.2065 -0.6931  0.0676
 1158TIP3    H124889   5.813   6.707  10.887 -0.1295 -0.3507  0.4671
 1158TIP3    H224890   5.722   6.620  10.971  0.3796 -0.2407  1.1386
 1159TIP3   OH224891   4.896   0.295   2.543 -0.2043  0.3249  0.1986
 1159TIP3    H124892   4.966   0.324   2.485  0.9219 -0.2538  1.2280
 1159TIP3    H224893   4.941   0.258   2.618 -1.6174 -0.8921  0.4915
 1160TIP3   OH224894   3.664   4.007  16.549  0.2055 -0.4103 -0.1781
 1160TIP3    H124895   3.675   4.050  16.464  0.9397 -0.8427 -0.3146
 1160TIP3    H224896   3.575   3.973  16.548  0.3487 -0.7882 -0.9667
 1161TIP3   OH224897   5.066   6.707   3.799 -0.0502  0.0654 -0.1978
 1161TIP3    H124898   5.012   6.773   3.842  1.2223  0.3975  0.9538
 1161TIP3    H224899   5.006   6.635   3.781 -1.4346  1.4635 -1.3783
 1162TIP3   OH224900   4.119   6.009   4.622 -0.2407  0.1960  0.0406
 1162TIP3    H124901   4.119   5.923   4.579  0.5146  0.0046  0.4080
 1162TIP3    H224902   4.036   6.048   4.596 -0.3174 -0.3914 -0.6433
 1163TIP3   OH224903   1.569   2.861  13.639 -1.1621  0.2494 -0.2333
 1163TIP3    H124904   1.646   2.890  13.591 -0.5472 -2.1516 -0.8130
 1163TIP3    H224905   1.575   2.907  13.723  0.2988  0.9423 -0.6878
 1164TIP3   OH224906   3.476   1.679   1.451 -0.1034 -0.4058  0.3840
 1164TIP3    H124907   3.498   1.635   1.369 -0.3343 -1.2497  0.7579
 1164TIP3    H224908   3.554   1.671   1.505  0.7855  1.9158 -0.4387
 1165TIP3   OH224909   2.580   5.346  10.428 -0.6940  0.5680 -0.1250
 1165TIP3    H124910   2.510   5.410  10.415 -0.6584  1.0205  1.6328
 1165TIP3    H224911   2.659   5.392  10.402 -0.8306  0.7389 -0.2442
 1166TIP3   OH224912   4.391   2.658  15.882  0.6762 -0.3847  0.1170
 1166TIP3    H124913   4.380   2.614  15.967 -0.3246 -0.8248 -0.2268
 1166TIP3    H224914   4.384   2.588  15.818  3.6904 -0.4495 -0.3135
 1167TIP3   OH224915   5.741   2.008  16.474  0.0369 -0.1697 -0.1439
 1167TIP3    H124916   5.684   2.085  16.480  0.4158  0.1053  0.0037
 1167TIP3    H224917   5.728   1.977  16.384 -1.3417 -0.9083  0.2830
 1168TIP3   OH224918   0.751   2.092   1.480  0.0954 -0.1667 -0.1715
 1168TIP3    H124919   0.794   2.029   1.537  1.3070  2.9255  2.6991
 1168TIP3    H224920   0.812   2.104   1.407  1.6489  0.2690  1.1397
 1169TIP3   OH224921   2.886   4.658  15.826 -0.0173  0.4356  0.0780
 1169TIP3    H124922   2.897   4.730  15.888  1.5885  0.5440 -0.2761
 1169TIP3    H224923   2.806   4.614  15.854  0.7678  0.3386  2.3836
 1170TIP3   OH224924   5.008   5.479   5.740 -0.4337 -0.0694  0.1959
 1170TIP3    H124925   5.062   5.434   5.806 -1.5446 -0.5387  0.8028
 1170TIP3    H224926   4.998   5.414   5.670 -2.2924 -0.9381  1.2068
 1171TIP3   OH224927   4.586   1.751  12.590 -0.0715 -0.2589  0.6284
 1171TIP3    H124928   4.520   1.810  12.554  2.2548  0.5826 -2.7505
 1171TIP3    H224929   4.537   1.679  12.628 -2.9088  1.1933 -0.0464
 1172TIP3   OH224930   0.913   1.861   0.801  0.5586  0.0325  0.3051
 1172TIP3    H124931   0.929   1.782   0.750  0.6842  0.9281 -1.0955
 1172TIP3    H224932   0.999   1.904   0.807 -0.1456  2.0387 -2.4199
 1173TIP3   OH224933   4.907   0.776   2.587  0.4715 -0.0102  0.4831
 1173TIP3    H124934   4.958   0.851   2.558  0.7978  0.8851  3.0986
 1173TIP3    H224935   4.972   0.714   2.621  0.0137  0.0379  1.4922
 1174TIP3   OH224936   2.663   3.388   4.876  0.2241  0.2363  0.6593
 1174TIP3    H124937   2.591   3.418   4.821  0.0947  0.8857  1.1639
 1174TIP3    H224938   2.621   3.336   4.945  0.5533 -2.3627 -0.9562
 1175TIP3   OH224939   5.404   1.153   5.012 -0.1640  0.0659 -0.0178
 1175TIP3    H124940   5.462   1.114   4.947 -0.9522 -0.0818 -0.6594
 1175TIP3    H224941   5.336   1.196   4.960 -1.6574 -1.3338  0.6794
 1176TIP3   OH224942   2.957   6.523   0.320  0.2452  0.5859  0.1998
 1176TIP3    H124943   2.923   6.499   0.406  0.1195  0.8691  0.2289
 1176TIP3    H224944   3.037   6.573   0.339  0.0623  0.8926  0.1575
 1177TIP3   OH224945   3.481   1.057   4.366  0.1853 -0.0616  0.0737
 1177TIP3    H124946   3.572   1.070   4.341  0.5001 -2.7397 -0.3923
 1177TIP3    H224947   3.431   1.084   4.289  0.3658  2.9665  0.8693
 1178TIP3   OH224948   0.616   5.978   1.659  0.2419  0.3958  0.0666
 1178TIP3    H124949   0.625   6.033   1.737 -1.8794  1.3869 -0.3168
 1178TIP3    H224950   0.565   5.903   1.688  2.9703 -1.3928  0.5389
 1179TIP3   OH224951   0.777   3.773   4.090 -0.1682 -0.3208  0.4908
 1179TIP3    H124952   0.752   3.844   4.031 -2.3846  0.6886  2.4792
 1179TIP3    H224953   0.696   3.725   4.107  0.5111 -0.9473  2.1941
 1180TIP3   OH224954   4.089   4.774  13.272  0.2179  0.1052 -0.0538
 1180TIP3    H124955   4.120   4.711  13.207  0.3558  1.0229 -0.9103
 1180TIP3    H224956   4.162   4.785  13.332  0.1227 -0.6891  0.2162
 1181TIP3   OH224957   2.530   1.948   0.753  0.6849  0.1228 -0.2323
 1181TIP3    H124958   2.440   1.973   0.772  1.2036  1.4973  0.5330
 1181TIP3    H224959   2.537   1.858   0.784 -0.2915  0.1630  0.1295
 1182TIP3   OH224960   3.601   0.853   3.166  0.2899  0.0783 -0.0062
 1182TIP3    H124961   3.619   0.928   3.110  0.9867 -0.1801 -0.1284
 1182TIP3    H224962   3.527   0.809   3.123  0.9276 -0.2203 -0.8399
 1183TIP3   OH224963   4.803   4.901   1.418  0.1257  0.2193 -0.0899
 1183TIP3    H124964   4.815   4.807   1.430 -1.8667  0.1066  1.3567
 1183TIP3    H224965   4.841   4.940   1.496 -1.9085  0.3481  0.8934
 1184TIP3   OH224966   3.883   0.622  13.638  0.3813  0.2962 -0.3592
 1184TIP3    H124967   3.928   0.645  13.557  0.3308  1.7514 -0.0076
 1184TIP3    H224968   3.927   0.675  13.705 -1.8325  1.8053 -0.0069
 1185TIP3   OH224969   1.633   3.436   2.443 -0.0755 -0.4487  0.7754
 1185TIP3    H124970   1.646   3.376   2.517  0.8939  0.4320  1.3448
 1185TIP3    H224971   1.569   3.392   2.387  0.7864 -2.1381  1.0559
 1186TIP3   OH224972   1.897   2.145   6.187  0.5959 -0.4237  0.5356
 1186TIP3    H124973   1.928   2.089   6.258 -3.6112 -1.7084  1.6011
 1186TIP3    H224974   1.866   2.224   6.231 -1.3727 -0.9215  0.1012
 1187TIP3   OH224975   6.358   4.018  12.060 -0.4788  0.3979 -0.0261
 1187TIP3    H124976   6.426   3.985  12.119  1.8381  1.1245 -2.0889
 1187TIP3    H224977   6.330   3.940  12.011 -0.1507  0.3241 -0.0983
 1188TIP3   OH224978   5.515   4.576  16.323 -0.0057  0.0400  0.3445
 1188TIP3    H124979   5.510   4.481  16.322  0.1072  0.0096  1.2666
 1188TIP3    H224980   5.519   4.602  16.231 -1.4711 -0.7546  0.0343
 1189TIP3   OH224981   0.520   2.686   3.417  0.0872 -0.4711 -0.4012
 1189TIP3    H124982   0.463   2.659   3.345  1.1887 -1.1689 -1.0374
 1189TIP3    H224983   0.572   2.609   3.437 -1.4027 -0.8705  2.3929
 1190TIP3   OH224984   2.019   0.778  14.367 -0.2915  0.0380 -0.1231
 1190TIP3    H124985   1.995   0.687  14.352  0.3793 -0.6726  2.5737
 1190TIP3    H224986   2.011   0.819  14.281  0.0877 -2.6974 -1.5809
 1191TIP3   OH224987   4.160   1.313  12.744 -0.1183  0.1018 -0.0353
 1191TIP3    H124988   4.198   1.338  12.660  0.4490 -1.0146 -0.1416
 1191TIP3    H224989   4.071   1.347  12.742  0.5118  1.7938 -0.2652
 1192TIP3   OH224990   0.377   5.570   2.567  0.1739  0.2673  0.2605
 1192TIP3    H124991   0.281   5.577   2.571  0.1126 -0.7037  1.1376
 1192TIP3    H224992   0.400   5.527   2.650  1.3963  0.7464  0.1754
 1193TIP3   OH224993   3.498   2.796  15.328  0.4500  0.3544  0.3729
 1193TIP3    H124994   3.520   2.809  15.236  0.2146 -0.5361  0.1778
 1193TIP3    H224995   3.561   2.731  15.360  0.2185  0.2881  0.7061
 1194TIP3   OH224996   0.147   4.518  17.001 -0.1503  0.6787 -0.2220
 1194TIP3    H124997   0.212   4.540  17.067  0.9915  1.5335 -1.5767
 1194TIP3    H224998   0.194   4.522  16.918 -2.0217  1.8083 -1.3160
 1195TIP3   OH224999   0.541   4.087  12.233  0.2093 -0.1440 -0.1859
 1195TIP3    H125000   0.611   4.029  12.205  2.1684  2.2000 -0.5179
 1195TIP3    H225001   0.463   4.032  12.236  1.6718 -2.4478 -1.6708
 1196TIP3   OH225002   2.167   2.065  14.200  0.3313 -0.2303  0.0430
 1196TIP3    H125003   2.122   2.089  14.282  1.0779  2.2232 -0.1738
 1196TIP3    H225004   2.144   2.136  14.139  0.3944 -1.6248 -1.6753
 1197TIP3   OH225005   6.096   3.898   2.404  0.1572  0.1058  0.7273
 1197TIP3    H125006   6.187   3.913   2.378 -0.1682  0.8627 -0.0273
 1197TIP3    H225007   6.090   3.934   2.493  1.2146 -2.2612  1.8369
 1198TIP3   OH225008   2.739   3.922   3.798  0.3993 -0.1020  0.2174
 1198TIP3    H125009   2.719   3.851   3.859  1.6780  0.8498  1.8124
 1198TIP3    H225010   2.807   3.886   3.742  0.3510 -0.4477  0.3721
 1199TIP3   OH225011   6.344   5.322   1.451 -0.1449 -0.3872  0.0222
 1199TIP3    H125012   6.378   5.291   1.535  0.2727 -0.2670 -0.1026
 1199TIP3    H225013   6.251   5.339   1.468  0.3018  1.3045  0.9116
 1200TIP3   OH225014   1.061   1.188  15.690 -0.7948 -0.0321  0.7148
 1200TIP3    H125015   0.969   1.166  15.703 -1.0554  2.2219  4.1682
 1200TIP3    H225016   1.107   1.105  15.695 -2.5216 -1.0391  0.5104
 1201TIP3   OH225017   6.681   1.388   3.854 -0.6038 -0.3053  0.1092
 1201TIP3    H125018   6.770   1.417   3.875 -0.9638 -0.6613  2.2869
 1201TIP3    H225019   6.694   1.319   3.789  0.3722  3.2454 -3.9743
 1202TIP3   OH225020   3.470   1.498   3.251 -0.1478  0.0671  0.5351
 1202TIP3    H125021   3.450   1.565   3.185 -0.6439  1.3388  1.9261
 1202TIP3    H225022   3.527   1.542   3.314 -0.1235 -0.9575  1.2503
 1203TIP3   OH225023   1.648   2.136   4.633  0.1930 -0.0972 -0.3348
 1203TIP3    H125024   1.642   2.218   4.681  1.2823  1.7386 -3.1011
 1203TIP3    H225025   1.741   2.112   4.637 -0.1880 -1.5823  0.8910
 1204TIP3   OH225026   5.200   6.561   2.183  0.3170 -0.9384  0.0576
 1204TIP3    H125027   5.183   6.559   2.278 -0.6499 -1.3700 -0.1049
 1204TIP3    H225028   5.113   6.551   2.144  0.7562 -1.1777 -0.8733
 1205TIP3   OH225029   2.864   1.946  12.480 -0.4005  0.7737 -0.3490
 1205TIP3    H125030   2.882   1.996  12.400 -1.3299  0.8460 -0.5298
 1205TIP3    H225031   2.872   1.854  12.453 -1.9452  0.7631 -0.8656
 1206TIP3   OH225032   3.697   1.855   1.143  0.1374 -0.0175  0.7518
 1206TIP3    H125033   3.730   1.880   1.229  1.2715 -1.9167  0.9202
 1206TIP3    H225034   3.771   1.874   1.084  0.1792 -0.8047  0.5486
 1207TIP3   OH225035   6.521   2.566   2.457  0.0080  0.8923 -0.2839
 1207TIP3    H125036   6.465   2.560   2.533 -0.6844 -1.9295 -0.9060
 1207TIP3    H225037   6.610   2.569   2.493 -0.2981 -0.4870  0.6939
 1208TIP3   OH225038   4.154   1.466   0.091  0.0669 -0.2175 -0.2416
 1208TIP3    H125039   4.116   1.406   0.027 -2.6866 -0.1455  1.1554
 1208TIP3    H225040   4.237   1.492   0.053 -0.7558 -1.3091 -3.0712
 1209TIP3   OH225041   6.315   5.578   2.175  0.1359  0.7648 -0.5107
 1209TIP3    H125042   6.290   5.579   2.082  1.3253  1.4244 -0.8482
 1209TIP3    H225043   6.314   5.671   2.200  3.0597  0.9656 -0.8204
 1210TIP3   OH225044   1.768   2.886   0.202 -0.3888  0.1437  0.1185
 1210TIP3    H125045   1.849   2.918   0.164 -0.3923 -0.4292 -0.3818
 1210TIP3    H225046   1.699   2.922   0.146 -0.4340 -0.0841  0.0278
 1211TIP3   OH225047   2.884   4.366   5.350  0.6925 -0.5193 -0.1584
 1211TIP3    H125048   2.884   4.285   5.401  3.3759 -1.8790 -2.0444
 1211TIP3    H225049   2.845   4.341   5.266  0.9144  0.3020 -0.5135
 1212TIP3   OH225050   6.028   1.885   6.712 -0.1037  0.2712  0.6206
 1212TIP3    H125051   6.003   1.965   6.667 -0.7936  0.6163  1.5973
 1212TIP3    H225052   6.109   1.906   6.757 -1.3142  1.0885  2.5412
 1213TIP3   OH225053   0.088   2.547   5.138 -0.0423 -0.3442 -0.1054
 1213TIP3    H125054   0.115   2.538   5.230  0.5133  1.0244 -0.1007
 1213TIP3    H225055  -0.005   2.527   5.138  0.1696 -1.4499  0.5530
 1214TIP3   OH225056   4.078   3.196   3.039 -0.5415 -0.4503  0.0929
 1214TIP3    H125057   4.061   3.203   2.945 -1.2340  1.4392  0.3130
 1214TIP3    H225058   3.995   3.170   3.077 -0.2472 -1.2671  0.1996
 1215TIP3   OH225059   0.086   6.424   5.673 -0.1618  0.1848 -0.3033
 1215TIP3    H125060   0.092   6.466   5.759  2.1037 -0.3029 -0.1822
 1215TIP3    H225061   0.109   6.333   5.688 -1.0627 -0.2207 -1.2349
 1216TIP3   OH225062   3.949   1.266   6.122  0.4798 -0.2043 -0.5111
 1216TIP3    H125063   3.890   1.327   6.078  2.0489  0.3748 -1.9053
 1216TIP3    H225064   3.908   1.180   6.110 -1.2521  0.4211  0.6313
 1217TIP3   OH225065   0.686   6.623   4.527 -0.3931 -0.4485  0.0983
 1217TIP3    H125066   0.654   6.709   4.500 -1.0133 -0.5541  0.4893
 1217TIP3    H225067   0.752   6.600   4.461 -0.1093  0.3929  0.0862
 1218TIP3   OH225068   5.398   6.631  14.237 -0.6721  0.1468 -0.2211
 1218TIP3    H125069   5.312   6.652  14.198 -1.3671 -0.1661  1.0828
 1218TIP3    H225070   5.402   6.686  14.315 -0.7759 -1.6451  1.0795
 1219TIP3   OH225071   6.538   1.826  12.764  0.2326  0.0712  0.6278
 1219TIP3    H125072   6.462   1.807  12.819 -0.2861  1.0371  0.2652
 1219TIP3    H225073   6.508   1.806  12.675  0.4874  0.2130  0.5098
 1220TIP3   OH225074   5.476   1.908  12.178 -0.5254  0.2470 -0.1335
 1220TIP3    H125075   5.439   1.956  12.252 -0.5294 -1.4641  1.0248
 1220TIP3    H225076   5.569   1.930  12.178 -0.6525  0.7852 -0.0529
 1221TIP3   OH225077   3.825   4.965  15.897  0.0207 -0.1399 -0.5652
 1221TIP3    H125078   3.885   4.901  15.860 -0.2781  0.1451 -1.5745
 1221TIP3    H225079   3.811   5.028  15.827 -0.8795  0.2012 -0.0941
 1222TIP3   OH225080   4.528   0.264   2.703  0.0235  0.1045 -0.2702
 1222TIP3    H125081   4.545   0.196   2.639 -2.1677 -0.7946  0.0332
 1222TIP3    H225082   4.611   0.312   2.710  0.5079 -0.1580 -3.2461
 1223TIP3   OH225083   0.674   1.216   0.050  0.4042 -0.3227 -0.2042
 1223TIP3    H125084   0.583   1.187   0.040  0.1841 -0.4063  1.6472
 1223TIP3    H225085   0.667   1.303   0.089  1.0728 -1.2739  2.2230
 1224TIP3   OH225086   1.888   0.247   1.225  0.3418  0.0772  0.7386
 1224TIP3    H125087   1.967   0.199   1.200  1.4944  0.5640  3.1029
 1224TIP3    H225088   1.907   0.338   1.204 -0.4969 -0.0557 -0.6737
 1225TIP3   OH225089   2.880   3.856   1.301  0.0033 -0.0488 -0.4127
 1225TIP3    H125090   2.925   3.771   1.309  0.8973  0.4395 -0.1054
 1225TIP3    H225091   2.792   3.833   1.272  0.1935 -1.0966 -0.2312
 1226TIP3   OH225092   1.041   3.768   2.690 -0.4055 -0.1107  0.6094
 1226TIP3    H125093   1.007   3.765   2.779 -0.8250 -0.3819  0.4425
 1226TIP3    H225094   1.118   3.712   2.692 -0.6336 -0.4243  0.7109
 1227TIP3   OH225095   1.149   5.504   2.723  0.1528 -0.1553  0.3607
 1227TIP3    H125096   1.224   5.456   2.689 -1.4492 -2.9488  0.4918
 1227TIP3    H225097   1.161   5.505   2.817 -0.5003 -1.6885  0.4909
 1228TIP3   OH225098   2.305   2.434   1.932  0.2431  0.0770 -0.4703
 1228TIP3    H125099   2.375   2.370   1.949  0.3237  0.2412 -0.1611
 1228TIP3    H225100   2.260   2.443   2.017 -0.0794  0.0587 -0.6387
 1229TIP3   OH225101   5.914   4.259   0.990  0.2216  0.2658  0.2671
 1229TIP3    H125102   5.999   4.225   0.963  2.1721  1.8634  3.7934
 1229TIP3    H225103   5.908   4.345   0.948  0.2234  0.0588 -0.1602
 1230TIP3   OH225104   0.208   3.512   1.134 -0.0494 -0.3183  0.0049
 1230TIP3    H125105   0.224   3.500   1.040  1.7749  1.3949  0.0404
 1230TIP3    H225106   0.257   3.441   1.176  2.8364  1.3991 -0.2045
 1231TIP3   OH225107   4.974   4.400  14.773  0.1522  0.2316  0.2668
 1231TIP3    H125108   5.029   4.426  14.847  0.6521  0.4263 -0.1655
 1231TIP3    H225109   5.032   4.351  14.716 -0.5523 -1.0433  0.6176
 1232TIP3   OH225110   3.664   3.943   4.177  0.3683 -0.0724  0.2577
 1232TIP3    H125111   3.604   3.976   4.244 -0.2753 -2.2071  0.8170
 1232TIP3    H225112   3.611   3.938   4.098 -0.1468 -1.6578  0.6756
 1233TIP3   OH225113   5.396   1.981   4.824 -0.2804 -0.3871  0.4782
 1233TIP3    H125114   5.322   1.923   4.809 -1.0283  0.5225  0.5940
 1233TIP3    H225115   5.470   1.922   4.839 -0.8553 -1.3057 -0.2040
 1234TIP3   OH225116   1.472   1.349  14.680 -0.0884 -0.8071 -0.0085
 1234TIP3    H125117   1.554   1.355  14.630  0.8689 -0.9935  1.4921
 1234TIP3    H225118   1.406   1.385  14.621  0.8050 -1.9755 -1.8092
 1235TIP3   OH225119   5.873   2.936  15.321 -0.0902  0.9637  0.5667
 1235TIP3    H125120   5.958   2.921  15.279  0.8642  3.3337  1.4371
 1235TIP3    H225121   5.896   2.974  15.406 -1.9841  2.9726  0.2735
 1236TIP3   OH225122   3.861   0.654   2.926 -0.0564 -0.1876  0.3811
 1236TIP3    H125123   3.917   0.634   2.852  0.4005 -0.3278  0.7592
 1236TIP3    H225124   3.918   0.646   3.003 -1.1085 -2.5629  0.9985
 1237TIP3   OH225125   4.069   5.274   6.503 -0.1204 -0.5281  0.2125
 1237TIP3    H125126   4.002   5.254   6.438  0.3677 -1.7301  0.0601
 1237TIP3    H225127   4.025   5.265   6.587 -1.0334  2.0064  0.1129
 1238TIP3   OH225128   0.964   1.205   4.296  0.3818 -0.5624  0.1313
 1238TIP3    H125129   1.057   1.187   4.282  0.4766  0.6569 -0.9826
 1238TIP3    H225130   0.927   1.121   4.322  1.9338 -0.8931  1.4396
 1239TIP3   OH225131   3.977   1.892   1.059  0.3056 -0.5378  0.1344
 1239TIP3    H125132   3.989   1.797   1.054  0.9009 -0.5616  1.5165
 1239TIP3    H225133   4.012   1.916   1.145  1.0175  1.0631 -0.5538
 1240TIP3   OH225134   6.499   5.032   1.867  0.0848 -0.0246 -0.1168
 1240TIP3    H125135   6.502   4.936   1.865  0.7835  0.0076 -0.7891
 1240TIP3    H225136   6.490   5.053   1.960 -1.8087 -0.7794 -0.0799
 1241TIP3   OH225137   4.478   4.722  15.395 -0.1231  0.8135 -0.6743
 1241TIP3    H125138   4.483   4.636  15.354 -3.0130 -0.2380  0.8937
 1241TIP3    H225139   4.568   4.744  15.416  0.6814 -1.9557 -0.8962
 1242TIP3   OH225140   6.614   1.621  11.558 -0.1842  0.0664 -0.1681
 1242TIP3    H125141   6.564   1.653  11.632 -0.9870 -1.0759 -0.1842
 1242TIP3    H225142   6.632   1.529  11.579 -0.2436 -0.2156 -1.2853
 1243TIP3   OH225143   6.044   0.717   4.914  0.1285  0.5638 -0.2964
 1243TIP3    H125144   5.979   0.676   4.857  1.0160 -2.1913  0.5619
 1243TIP3    H225145   5.992   0.768   4.976 -1.0769  0.1722 -0.9539
 1244TIP3   OH225146   1.136   1.056  16.610  0.0084 -0.0289  0.0517
 1244TIP3    H125147   1.210   1.104  16.649 -0.5726  0.3194  0.7522
 1244TIP3    H225148   1.150   0.965  16.636 -0.1266  0.1308  0.7040
 1245TIP3   OH225149   2.722   4.003  13.442 -0.1202 -0.2811 -0.0053
 1245TIP3    H125150   2.814   3.986  13.462  0.1813  0.1181 -0.9871
 1245TIP3    H225151   2.715   4.099  13.444 -0.7123 -0.3303  0.8702
 1246TIP3   OH225152   1.396   1.317   5.264 -0.3003 -0.1092 -0.1398
 1246TIP3    H125153   1.388   1.388   5.328 -0.3036  0.3490 -0.6423
 1246TIP3    H225154   1.490   1.304   5.254 -0.2982 -0.1221 -0.1025
 1247TIP3   OH225155   3.010   5.109  12.328 -0.6360 -0.4063 -0.3343
 1247TIP3    H125156   2.990   5.022  12.292 -0.1989 -0.8491  0.4568
 1247TIP3    H225157   2.989   5.101  12.421  0.2438  0.0682 -0.0882
 1248TIP3   OH225158   1.032   5.545  16.817  0.3024 -0.9175 -0.3921
 1248TIP3    H125159   1.027   5.579  16.728  0.8303  1.8086  0.5358
 1248TIP3    H225160   1.121   5.512  16.827 -0.0250 -2.0846 -1.0998
 1249TIP3   OH225161   6.426   5.225   0.069  0.6509 -0.3515 -0.0640
 1249TIP3    H125162   6.428   5.310   0.027  2.5283  0.6043  1.7750
 1249TIP3    H225163   6.336   5.216   0.101  0.2214  0.5523 -0.9529
 1250TIP3   OH225164   3.148   1.499   4.180  0.0108 -0.4770 -0.2607
 1250TIP3    H125165   3.101   1.424   4.215  1.0387 -0.6830  0.7551
 1250TIP3    H225166   3.237   1.468   4.166  0.7298  0.7739  1.1574
 1251TIP3   OH225167   1.299   6.354  14.459  0.4768  0.3015 -0.5490
 1251TIP3    H125168   1.295   6.441  14.419  2.9088  0.3776 -0.7808
 1251TIP3    H225169   1.208   6.324  14.461 -0.1105  1.6516 -3.1304
 1252TIP3   OH225170   2.725   3.945   0.260  0.3642 -0.1547 -0.0589
 1252TIP3    H125171   2.746   3.876   0.323  2.0965 -0.0762 -0.4834
 1252TIP3    H225172   2.760   4.025   0.300  0.5348  0.0636 -0.6371
 1253TIP3   OH225173   6.454   5.629   5.135  0.3779 -0.6644 -0.1260
 1253TIP3    H125174   6.406   5.607   5.055 -3.0741  0.0985  1.5488
 1253TIP3    H225175   6.456   5.547   5.185  3.6447 -1.4825 -1.3280
 1254TIP3   OH225176   4.630   6.224  13.082 -0.1187 -0.0857 -0.2310
 1254TIP3    H125177   4.652   6.235  12.989 -0.0969 -0.3353 -0.2551
 1254TIP3    H225178   4.715   6.217  13.126 -0.1282  0.0695 -0.1863
 1255TIP3   OH225179   2.377   4.164   4.374  0.7630 -0.4526  0.5512
 1255TIP3    H125180   2.392   4.232   4.440  1.2227 -1.2127  1.2569
 1255TIP3    H225181   2.399   4.082   4.419  2.1638 -0.9095 -0.8702
 1256TIP3   OH225182   6.723   1.555   0.888 -0.3097  1.1208 -0.3882
 1256TIP3    H125183   6.686   1.467   0.885 -0.5732  1.0317  2.7492
 1256TIP3    H225184   6.807   1.545   0.932  0.8340  2.1719 -2.1704
 1257TIP3   OH225185   5.291   0.468  16.575 -0.1104 -0.7728 -0.3929
 1257TIP3    H125186   5.321   0.393  16.525 -1.1530 -0.6398 -1.2540
 1257TIP3    H225187   5.347   0.540  16.545  0.0001 -0.9220 -0.5491
 1258TIP3   OH225188   5.919   2.500  15.823 -0.3598 -0.3137  0.7462
 1258TIP3    H125189   5.980   2.427  15.836  0.8108  0.6700  0.9428
 1258TIP3    H225190   5.970   2.566  15.777 -1.4563  0.3345  0.4240
 1259TIP3   OH225191   6.190   3.496   4.062  0.4063 -0.3694  0.2571
 1259TIP3    H125192   6.127   3.484   4.133  1.4894  0.5185  1.4292
 1259TIP3    H225193   6.272   3.518   4.106  1.5737 -1.5542 -1.2110
 1260TIP3   OH225194   0.544   2.857  11.179  0.3371  0.1760 -0.1922
 1260TIP3    H125195   0.529   2.764  11.197  1.7919 -0.3317 -1.3584
 1260TIP3    H225196   0.549   2.862  11.083 -0.4119  1.5876 -0.1818
 1261TIP3   OH225197   0.469   3.920   5.664  0.3317 -0.4852  0.0206
 1261TIP3    H125198   0.473   3.869   5.583  0.5234 -0.2724 -0.1053
 1261TIP3    H225199   0.422   3.864   5.725 -2.9552  0.6684 -1.2050
 1262TIP3   OH225200   6.433   2.200  14.728 -0.4326  0.1632 -0.2954
 1262TIP3    H125201   6.479   2.160  14.655  1.2502  0.4179  0.5695
 1262TIP3    H225202   6.495   2.264  14.763 -1.8856  1.3269  0.2534
 1263TIP3   OH225203   3.644   2.009  13.162 -0.3775  0.4636  0.1036
 1263TIP3    H125204   3.669   2.100  13.153 -0.7727  0.5031 -0.6918
 1263TIP3    H225205   3.618   2.000  13.254 -0.2322  1.1224  0.2111
 1264TIP3   OH225206   0.939   3.300  15.404 -0.3360 -0.3179  0.2922
 1264TIP3    H125207   0.963   3.211  15.378  0.1565 -0.0866 -0.0599
 1264TIP3    H225208   0.879   3.288  15.477  1.3118 -0.9056  1.6186
 1265TIP3   OH225209   6.366   6.016  15.018  0.0458  0.4388  0.2745
 1265TIP3    H125210   6.457   5.987  15.020  0.6944  2.2299 -0.6782
 1265TIP3    H225211   6.355   6.066  15.099 -0.1334  0.1232  0.4468
 1266TIP3   OH225212   3.355   2.800   4.727  0.0070 -0.6114 -0.5215
 1266TIP3    H125213   3.305   2.881   4.740  0.2576 -0.6372  0.6973
 1266TIP3    H225214   3.303   2.750   4.664 -1.2743 -0.4345  0.3600
 1267TIP3   OH225215   6.690   3.112  12.324  0.1444  0.0547  1.3436
 1267TIP3    H125216   6.688   3.049  12.396  3.4315 -1.2081  0.4697
 1267TIP3    H225217   6.775   3.154  12.331  0.6750 -0.2726 -1.9176
 1268TIP3   OH225218   2.979   5.684  14.782 -0.0658 -0.8907  0.0268
 1268TIP3    H125219   3.001   5.603  14.736 -0.2289 -1.0020  0.1471
 1268TIP3    H225220   3.064   5.725  14.798 -0.0355 -0.5376 -0.9336
 1269TIP3   OH225221   3.210   0.237   2.964 -0.7069  0.1736  0.1098
 1269TIP3    H125222   3.263   0.187   2.902 -1.9327 -1.9789  0.7261
 1269TIP3    H225223   3.226   0.197   3.049 -2.0038  0.5660  0.5681
 1270TIP3   OH225224   4.670   4.044  13.517  0.0308 -0.2053 -0.7109
 1270TIP3    H125225   4.760   4.021  13.541  0.0472 -0.0045 -0.5764
 1270TIP3    H225226   4.616   3.978  13.561  0.1945 -1.3740 -2.1651
 1271TIP3   OH225227   0.663   3.004  13.520 -0.2266  0.4888  0.4519
 1271TIP3    H125228   0.641   3.042  13.604  0.3172  1.9775 -0.0525
 1271TIP3    H225229   0.758   3.008  13.516 -0.2017 -0.2922  0.0840
 1272TIP3   OH225230   4.685   5.497  10.672  0.2725  0.6030 -0.1167
 1272TIP3    H125231   4.739   5.575  10.686 -0.2177  0.6816  1.5989
 1272TIP3    H225232   4.715   5.435  10.738 -0.7600  0.1140 -0.0841
 1273TIP3   OH225233   2.872   0.547   2.655 -0.1525  0.6495 -0.0209
 1273TIP3    H125234   2.884   0.454   2.639  1.1309  0.5578  1.2083
 1273TIP3    H225235   2.856   0.554   2.749 -1.4428  1.5907 -0.2752
 1274TIP3   OH225236   0.053   1.804   3.007 -0.3186  0.5065 -0.8187
 1274TIP3    H125237   0.046   1.810   3.102 -0.6470  0.3380 -0.8314
 1274TIP3    H225238   0.114   1.875   2.983  1.2252 -0.6051 -0.3231
 1275TIP3   OH225239   3.402   5.814   4.405 -0.3970 -0.4630 -0.2993
 1275TIP3    H125240   3.378   5.795   4.496  1.2894  0.1904  0.3135
 1275TIP3    H225241   3.497   5.807   4.403  0.1861  4.2682 -0.8014
 1276TIP3   OH225242   3.775   4.636  11.627  0.4977 -0.2577  0.5175
 1276TIP3    H125243   3.721   4.694  11.681 -0.2891  0.2803 -0.7930
 1276TIP3    H225244   3.786   4.557  11.680  0.1120  0.4067  1.6262
 1277TIP3   OH225245   4.790   4.565  15.055  0.0236 -0.1863 -0.1998
 1277TIP3    H125246   4.750   4.632  15.110  1.2291 -1.1743  2.0008
 1277TIP3    H225247   4.879   4.596  15.039  0.8200 -1.5010  1.4120
 1278TIP3   OH225248   2.014   0.686   3.209 -0.2209  0.0840 -0.4146
 1278TIP3    H125249   2.048   0.615   3.263 -2.0243 -1.5564 -1.2830
 1278TIP3    H225250   2.078   0.697   3.139 -0.3323 -1.3995 -0.7920
 1279TIP3   OH225251   3.075   4.966  13.625 -0.6610 -0.4150 -0.6553
 1279TIP3    H125252   3.134   4.976  13.551  1.6304 -0.2098  1.0867
 1279TIP3    H225253   3.133   4.955  13.701 -2.7824  1.8295  1.4784
 1280TIP3   OH225254   5.098   2.510  15.164 -0.1667  0.1605  0.0319
 1280TIP3    H125255   5.179   2.540  15.205  0.5811  1.1981 -2.0740
 1280TIP3    H225256   5.102   2.415  15.170  1.1779  0.2019  0.0457
 1281TIP3   OH225257   3.863   4.475  15.033 -0.1261  0.0312  0.0856
 1281TIP3    H125258   3.870   4.569  15.048 -0.5683  0.3017 -1.2561
 1281TIP3    H225259   3.774   4.461  15.002 -1.0031 -1.2659  2.9090
 1282TIP3   OH225260   2.948   2.353  13.553  0.3628 -0.0465 -0.8803
 1282TIP3    H125261   2.880   2.374  13.617 -1.8281 -0.2424 -2.9935
 1282TIP3    H225262   2.938   2.259  13.537  1.6155 -0.2189 -0.7322
 1283TIP3   OH225263   2.619   1.160   3.025 -0.0204 -0.2930  0.6123
 1283TIP3    H125264   2.628   1.234   3.086 -1.3312 -0.3154  0.8596
 1283TIP3    H225265   2.539   1.116   3.052 -0.3239 -0.6510 -0.7774
 1284TIP3   OH225266   3.534   0.537   5.507 -0.0072  0.7855  0.1314
 1284TIP3    H125267   3.460   0.586   5.473  0.5174  0.9807 -0.7417
 1284TIP3    H225268   3.550   0.468   5.442  0.3200  0.4906  0.5173
 1285TIP3   OH225269   5.507   1.904   3.039 -0.0741 -0.6704  0.4390
 1285TIP3    H125270   5.531   1.819   3.002 -0.6043 -1.4086  1.7023
 1285TIP3    H225271   5.414   1.912   3.022 -0.4786 -1.3292  2.0763
 1286TIP3   OH225272   3.688   2.853  11.370 -0.2355  0.0750  0.1490
 1286TIP3    H125273   3.642   2.876  11.290 -1.0974  0.0424  0.6222
 1286TIP3    H225274   3.769   2.902  11.366 -0.7214  0.8597 -0.2630
 1287TIP3   OH225275   5.203   0.856   1.156  0.6107 -0.2891 -0.2284
 1287TIP3    H125276   5.165   0.824   1.238 -0.4338 -2.4317 -1.4624
 1287TIP3    H225277   5.169   0.945   1.146 -2.1155 -1.2306 -0.0290
 1288TIP3   OH225278   6.430   3.034  10.820  0.0059 -0.0447  0.1050
 1288TIP3    H125279   6.365   3.080  10.767  1.2350  0.9146 -0.6378
 1288TIP3    H225280   6.482   3.104  10.859 -0.0992 -0.7711  1.6083
 1289TIP3   OH225281   2.449   4.287   3.643  0.0827  0.0916  0.5254
 1289TIP3    H125282   2.380   4.346   3.614 -0.8042 -0.3971  1.5851
 1289TIP3    H225283   2.470   4.235   3.565 -2.0643 -1.0087  0.6192
 1290TIP3   OH225284   3.035   4.024   2.141  0.3495  0.4483  0.6213
 1290TIP3    H125285   3.116   3.972   2.140  0.1865  0.1755  1.2180
 1290TIP3    H225286   2.971   3.967   2.183 -0.5139  0.1475 -1.0313
 1291TIP3   OH225287   6.243   6.063  13.143  0.2424 -0.1037  0.0397
 1291TIP3    H125288   6.208   6.034  13.227  0.3306 -0.0866  0.0828
 1291TIP3    H225289   6.328   6.101  13.164  0.7702 -1.1064 -0.1869
 1292TIP3   OH225290   0.168   6.583   1.695  0.4216 -0.2065 -0.4942
 1292TIP3    H125291   0.141   6.506   1.643  0.4880  0.5667 -1.7219
 1292TIP3    H225292   0.129   6.568   1.781  0.9596 -1.9211 -0.5070
 1293TIP3   OH225293   4.736   6.274   6.025 -0.0205  0.8407 -0.7919
 1293TIP3    H125294   4.714   6.325   6.104 -1.9996 -0.1269 -0.6484
 1293TIP3    H225295   4.832   6.274   6.022  0.0634  2.7432  0.3775
 1294TIP3   OH225296   6.099   3.317  12.538  0.8369 -0.3499 -0.0429
 1294TIP3    H125297   6.132   3.406  12.522 -1.5289  0.6560  0.3075
 1294TIP3    H225298   6.031   3.305  12.472  1.2895 -2.0439 -0.2474
 1295TIP3   OH225299   4.350   3.908   5.547  0.0666 -0.5237  0.2959
 1295TIP3    H125300   4.307   3.873   5.625  2.4988  1.1927  2.5892
 1295TIP3    H225301   4.398   3.834   5.511 -0.3593 -1.1480  0.9853
 1296TIP3   OH225302   5.462   0.619   0.476  0.1941  0.1439 -0.4419
 1296TIP3    H125303   5.381   0.569   0.471 -0.0772  0.5995 -0.6064
 1296TIP3    H225304   5.490   0.629   0.385  0.6086 -0.2832 -0.3704
 1297TIP3   OH225305   5.143   1.952   4.250  0.0543  0.2126 -0.0541
 1297TIP3    H125306   5.195   1.878   4.218  0.5709  1.2233 -1.6403
 1297TIP3    H225307   5.202   2.027   4.243 -0.7252  0.9149  0.7889
 1298TIP3   OH225308   1.552   4.624  13.417 -0.2014 -0.2230 -0.4511
 1298TIP3    H125309   1.633   4.645  13.371 -0.3850  1.7499  0.0345
 1298TIP3    H225310   1.545   4.691  13.486 -2.4354 -0.0745 -0.7372
 1299TIP3   OH225311   4.692   0.569   4.659 -0.0351 -0.5001  0.0402
 1299TIP3    H125312   4.780   0.532   4.647 -0.6194 -1.6612 -0.8479
 1299TIP3    H225313   4.633   0.496   4.643 -1.3019  0.9767 -2.8313
 1300TIP3   OH225314   1.130   2.004  12.131  0.3561 -0.0094  0.3102
 1300TIP3    H125315   1.081   1.988  12.211  0.5643 -0.9458  0.2605
 1300TIP3    H225316   1.109   2.094  12.107 -1.2827 -0.3529  0.3372
 1301TIP3   OH225317   5.645   3.192  15.569 -0.3696 -0.1065 -0.1087
 1301TIP3    H125318   5.555   3.202  15.600 -0.3403  0.8507 -0.2949
 1301TIP3    H225319   5.642   3.221  15.478 -0.0308 -0.8699 -0.3730
 1302TIP3   OH225320   6.168   4.217   4.135 -0.1974 -0.1713  0.1499
 1302TIP3    H125321   6.210   4.187   4.216  0.8558  0.4456 -0.1581
 1302TIP3    H225322   6.228   4.192   4.065 -1.0993 -0.6927 -0.4579
 1303TIP3   OH225323   1.544   0.703   0.428  0.1579  0.4084  0.3658
 1303TIP3    H125324   1.504   0.789   0.420  0.8448  0.6722 -0.3552
 1303TIP3    H225325   1.501   0.650   0.360 -0.7101 -0.0122  1.2132
 1304TIP3   OH225326   6.102   3.044   2.264 -0.1210  0.1517 -0.0080
 1304TIP3    H125327   6.031   3.074   2.208 -0.0300  0.8431  0.2419
 1304TIP3    H225328   6.063   3.034   2.350  0.0275  0.2737  0.0726
 1305TIP3   OH225329   4.940   4.387   4.801  0.7142  0.2993  0.1639
 1305TIP3    H125330   4.897   4.314   4.845  1.4025  0.8054  1.7506
 1305TIP3    H225331   4.927   4.370   4.708 -4.6922  1.4176  0.3651
 1306TIP3   OH225332   6.629   1.144  13.632 -0.1147  0.2663 -0.0479
 1306TIP3    H125333   6.656   1.188  13.551 -1.4566 -0.2212 -0.7745
 1306TIP3    H225334   6.534   1.137  13.626 -0.8018  3.6476  3.3089
 1307TIP3   OH225335   4.115   1.275   3.835  0.4830  0.1604  0.5059
 1307TIP3    H125336   4.131   1.332   3.910  2.0458 -1.3963  1.4313
 1307TIP3    H225337   4.020   1.275   3.826  0.3646  1.9617  1.1825
 1308TIP3   OH225338   6.535   5.113  12.211 -0.2771  0.2485 -0.3557
 1308TIP3    H125339   6.442   5.091  12.213 -0.5028  0.9095 -2.1479
 1308TIP3    H225340   6.547   5.160  12.129  1.3315  1.6527  0.6229
 1309TIP3   OH225341   1.557   5.029   1.620  0.3294  0.1405  0.0355
 1309TIP3    H125342   1.520   5.054   1.705 -1.9787 -3.7930  0.4214
 1309TIP3    H225343   1.525   5.097   1.560 -1.1338  1.0235  1.7008
 1310TIP3   OH225344   3.208   6.679   4.513  0.2082 -0.0216  0.2180
 1310TIP3    H125345   3.290   6.721   4.489  0.5636 -1.2239 -0.7969
 1310TIP3    H225346   3.218   6.588   4.484 -0.9113 -0.5675  1.4136
 1311TIP3   OH225347   4.230   4.896   5.099 -0.3369  0.6026 -0.2141
 1311TIP3    H125348   4.149   4.889   5.048  0.5964  1.7914 -2.0037
 1311TIP3    H225349   4.253   4.989   5.093  0.3879  0.5692  1.5594
 1312TIP3   OH225350   0.324   2.159   5.057 -0.2359  0.1277  0.3594
 1312TIP3    H125351   0.373   2.221   5.004  2.8676 -0.5336  2.1726
 1312TIP3    H225352   0.316   2.200   5.143  0.2249 -1.1807  1.0679
 1313TIP3   OH225353   6.490   6.609   5.292 -0.1609  0.1843 -0.7143
 1313TIP3    H125354   6.460   6.518   5.290  3.8807 -1.3554 -0.4614
 1313TIP3    H225355   6.475   6.640   5.202 -0.6923 -1.0659 -1.0865
 1314TIP3   OH225356   3.455   4.095   1.748  0.2149  0.2056 -0.2427
 1314TIP3    H125357   3.433   4.173   1.798  2.1256 -0.8899  2.5701
 1314TIP3    H225358   3.375   4.041   1.751  0.3912 -0.0013  2.0968
 1315TIP3   OH225359   0.259   5.343  15.216  0.0901  0.8475  0.3810
 1315TIP3    H125360   0.294   5.430  15.234 -0.2842  0.7257  1.8108
 1315TIP3    H225361   0.165   5.356  15.205  0.0616  0.6505  0.3800
 1316TIP3   OH225362   3.726   1.541  14.555 -0.1921  0.3216  0.5156
 1316TIP3    H125363   3.692   1.584  14.477  1.6885  0.2182 -0.4151
 1316TIP3    H225364   3.675   1.461  14.563 -2.6933  1.8797  1.3743
 1317TIP3   OH225365   4.090   0.716   4.450 -0.5048 -0.1237 -0.3018
 1317TIP3    H125366   4.062   0.667   4.527  0.8904 -1.7997 -0.7738
 1317TIP3    H225367   4.169   0.762   4.478 -0.1114 -0.5723 -0.6664
 1318TIP3   OH225368   4.630   0.547  14.180 -0.0234 -0.3697 -0.0001
 1318TIP3    H125369   4.645   0.569  14.272  0.4383 -1.9231  0.3183
 1318TIP3    H225370   4.559   0.605  14.153 -1.4312 -1.1491  1.8446
 1319TIP3   OH225371   4.467   5.388  12.203 -0.4990 -0.5880 -0.5573
 1319TIP3    H125372   4.468   5.442  12.282 -1.4472  0.4946 -1.2664
 1319TIP3    H225373   4.469   5.450  12.131  0.5316 -1.5698 -1.4175
 1320TIP3   OH225374   4.637   1.032  10.653 -0.5947  0.7576 -0.7043
 1320TIP3    H125375   4.690   1.111  10.666  0.1957  0.4063 -1.6775
 1320TIP3    H225376   4.603   1.012  10.740  0.0130  1.5911 -0.2550
 1321TIP3   OH225377   0.266   0.925  16.871  0.3954  0.1933  0.4828
 1321TIP3    H125378   0.348   0.938  16.920  0.4382 -0.6131  0.6425
 1321TIP3    H225379   0.202   0.980  16.916  0.1600 -1.3339  2.1754
 1322TIP3   OH225380   6.257   5.798   3.944  0.1149  1.0135 -0.1284
 1322TIP3    H125381   6.225   5.752   4.022 -0.5092 -0.8675 -1.4212
 1322TIP3    H225382   6.331   5.745   3.914  0.3307  1.7007 -0.8240
 1323TIP3   OH225383   4.848   5.765   0.902  0.3312 -0.1918  0.2459
 1323TIP3    H125384   4.757   5.737   0.891  0.6334 -1.8450  1.5536
 1323TIP3    H225385   4.898   5.710   0.842  0.6677 -0.8289  1.0809
 1324TIP3   OH225386   4.612   4.944  11.383  0.1579 -0.1192 -0.6601
 1324TIP3    H125387   4.556   4.993  11.323  0.7463  0.0800 -1.0653
 1324TIP3    H225388   4.572   4.858  11.389 -1.0310  0.4628  0.2453
 1325TIP3   OH225389   4.949   1.127  14.165  0.3167  0.0848  0.4805
 1325TIP3    H125390   4.992   1.121  14.250  1.5301 -0.5210 -0.1429
 1325TIP3    H225391   5.008   1.181  14.112  1.6334 -2.6781 -1.1090
 1326TIP3   OH225392   1.847   0.270   4.912  0.3452  0.5526  0.2536
 1326TIP3    H125393   1.845   0.301   4.822 -1.2064 -0.7399 -0.2188
 1326TIP3    H225394   1.855   0.175   4.904  2.1315  0.5384  1.5545
 1327TIP3   OH225395   4.808   4.336  10.656 -0.1794  0.0832 -0.5566
 1327TIP3    H125396   4.883   4.291  10.617 -0.4201 -0.4880 -0.3777
 1327TIP3    H225397   4.806   4.421  10.613  2.4334  1.4070  1.5960
 1328TIP3   OH225398   0.209   0.600   2.092  0.5674  0.2412  0.2342
 1328TIP3    H125399   0.115   0.608   2.078  0.3406 -0.3058  1.3270
 1328TIP3    H225400   0.238   0.541   2.022  0.0281  0.0811  0.1400
 1329TIP3   OH225401   0.381   1.796  10.716  0.1752  0.6691  0.1425
 1329TIP3    H125402   0.344   1.712  10.741 -1.3050  1.0078 -0.7738
 1329TIP3    H225403   0.476   1.784  10.722  0.4482 -2.8142 -4.8860
 1330TIP3   OH225404   0.201   0.131   1.375  0.0812  0.1890 -0.0125
 1330TIP3    H125405   0.157   0.080   1.443 -0.7037  0.8780  0.0186
 1330TIP3    H225406   0.157   0.217   1.378 -0.3186  0.0728 -1.7237
 1331TIP3   OH225407   6.240   1.811   5.273  0.3628 -0.2197  1.1981
 1331TIP3    H125408   6.224   1.888   5.329  0.9832 -0.1380  1.2730
 1331TIP3    H225409   6.271   1.848   5.190 -0.2351 -0.3568  0.9072
 1332TIP3   OH225410   6.290   5.430  14.194  0.1219  0.4229  0.0891
 1332TIP3    H125411   6.385   5.428  14.203  0.1409 -0.6071 -0.1239
 1332TIP3    H225412   6.260   5.493  14.259  0.8342 -0.5593  1.4030
 1333TIP3   OH225413   0.808   3.007   4.939  0.2885 -0.2144 -0.1713
 1333TIP3    H125414   0.779   2.941   4.875 -1.8234  1.0104 -0.6029
 1333TIP3    H225415   0.777   2.974   5.023 -1.9058  0.7022 -0.5355
 1334TIP3   OH225416   0.955   5.809   6.587  0.3389 -0.7907 -0.0816
 1334TIP3    H125417   0.949   5.863   6.665 -1.1588 -0.1398 -0.6198
 1334TIP3    H225418   0.865   5.801   6.556  0.6639 -2.6100 -0.6963
 1335TIP3   OH225419   0.878   2.076   2.900  0.1496  0.4210 -0.5917
 1335TIP3    H125420   0.906   2.020   2.973 -1.6406 -1.0705 -0.9419
 1335TIP3    H225421   0.957   2.091   2.849  1.1063  0.0284  0.7183
 1336TIP3   OH225422   2.444   1.061   2.136  0.1383 -0.7906  0.1434
 1336TIP3    H125423   2.469   1.139   2.186  0.4961 -0.1390 -1.0200
 1336TIP3    H225424   2.494   1.067   2.055  0.1444 -2.2209  0.0060
 1337TIP3   OH225425   4.150   1.366  14.093 -0.1053 -0.1192 -0.1617
 1337TIP3    H125426   4.173   1.277  14.118 -2.2950 -0.5340  0.6024
 1337TIP3    H225427   4.167   1.371  13.999 -0.5807 -1.5650 -0.3405
 1338TIP3   OH225428   5.983   3.027   4.479  0.3857  0.1540 -0.2044
 1338TIP3    H125429   6.029   2.951   4.443 -1.0711 -1.5623  1.3559
 1338TIP3    H225430   6.045   3.065   4.541  1.1010  0.2227 -0.9431
 1339TIP3   OH225431   1.798   2.405  14.695 -0.0098  0.3528  0.2852
 1339TIP3    H125432   1.782   2.317  14.731  0.9913  0.2088  0.4169
 1339TIP3    H225433   1.861   2.391  14.624 -0.3438  0.8943 -0.1286
 1340TIP3   OH225434   1.223   3.340   2.158 -0.5306  0.0211  0.0968
 1340TIP3    H125435   1.236   3.431   2.184  1.1886  0.2363 -1.3098
 1340TIP3    H225436   1.212   3.344   2.063 -0.9201 -1.1912  0.0848
 1341TIP3   OH225437   3.907   1.342   4.184  0.0223  0.3208 -0.2009
 1341TIP3    H125438   3.919   1.364   4.276  0.4186 -0.5108 -0.0447
 1341TIP3    H225439   3.982   1.286   4.163 -1.1913 -1.3003 -0.4284
 1342TIP3   OH225440   0.184   2.178  16.174  0.3530  0.0509 -0.4017
 1342TIP3    H125441   0.186   2.263  16.130  2.8073  0.0745 -0.4106
 1342TIP3    H225442   0.255   2.129  16.133  2.0981 -0.3090  2.6724
 1343TIP3   OH225443   6.117   3.241  15.211  0.3680  0.4839  0.4265
 1343TIP3    H125444   6.081   3.249  15.299 -0.0265 -2.6739  0.6772
 1343TIP3    H225445   6.211   3.256  15.221  0.0446  2.5214  0.8879
 1344TIP3   OH225446   4.121   2.911  13.764 -0.2033 -0.0134  0.0721
 1344TIP3    H125447   4.099   2.822  13.737 -1.5489 -0.0579  1.1940
 1344TIP3    H225448   4.146   2.904  13.856 -1.4922  0.8956  0.5238
 1345TIP3   OH225449   3.199   6.643   1.236  0.2595  0.6273  0.0684
 1345TIP3    H125450   3.116   6.629   1.189  0.3123 -2.3174  0.6261
 1345TIP3    H225451   3.266   6.636   1.168  0.2408 -1.9120  0.2136
 1346TIP3   OH225452   2.922   2.769  15.826 -0.4396  0.2562 -0.6462
 1346TIP3    H125453   2.850   2.776  15.763 -1.7700  1.8228  0.9157
 1346TIP3    H225454   2.879   2.770  15.912  1.4183  1.1679  0.3509
 1347TIP3   OH225455   5.565   6.716  13.706  1.0897  0.2689  0.1861
 1347TIP3    H125456   5.633   6.779  13.681  0.8998  0.4948  0.2360
 1347TIP3    H225457   5.483   6.764  13.697  1.0072  0.3310  1.1500
 1348TIP3   OH225458   3.088   0.984   6.299 -0.0691 -0.0482 -0.2025
 1348TIP3    H125459   3.142   1.051   6.340 -0.1076 -0.2880  0.2518
 1348TIP3    H225460   3.001   0.996   6.337  0.0170 -0.6076  0.1946
 1349TIP3   OH225461   1.695   1.960  16.717  0.0292  0.7919 -0.1613
 1349TIP3    H125462   1.659   1.938  16.803  0.5826 -1.9207 -0.5295
 1349TIP3    H225463   1.624   1.941  16.656 -0.4877  3.0539 -0.3580
 1350TIP3   OH225464   3.888   1.369   4.483 -0.7819  0.3423 -0.5537
 1350TIP3    H125465   3.841   1.452   4.493 -0.0783  0.5845  1.2405
 1350TIP3    H225466   3.850   1.312   4.550  0.6405  0.1731  0.1575
 1351TIP3   OH225467   6.579   5.473   5.812  0.0542 -0.9725 -0.6393
 1351TIP3    H125468   6.645   5.431   5.867 -0.9207 -3.6096 -1.3130
 1351TIP3    H225469   6.628   5.530   5.754  1.9073 -3.4248 -1.6352
 1352TIP3   OH225470   5.205   1.606  11.324 -0.1035  0.7151  0.0858
 1352TIP3    H125471   5.197   1.515  11.354  1.0697 -0.0237 -1.6790
 1352TIP3    H225472   5.205   1.599  11.229 -0.1593  2.6043 -0.0768
 1353TIP3   OH225473   0.950   6.296   0.932  0.2484  0.6014  0.4627
 1353TIP3    H125474   0.978   6.377   0.889  0.7285 -0.1887 -0.7667
 1353TIP3    H225475   1.030   6.245   0.942  0.1166  0.6730  2.1660
 1354TIP3   OH225476   2.965   2.885   6.090  0.4627 -0.4252  0.6710
 1354TIP3    H125477   2.874   2.866   6.110  0.0889  1.0105  0.4316
 1354TIP3    H225478   2.986   2.962   6.142  1.9868 -1.5364  1.8019
 1355TIP3   OH225479   2.370   0.033  14.049 -0.3926 -0.5417  0.0983
 1355TIP3    H125480   2.279   0.062  14.043 -0.1828 -0.0859 -1.2483
 1355TIP3    H225481   2.368  -0.040  14.111 -1.6162 -0.3285  0.3340
 1356TIP3   OH225482   5.761   4.833  15.018 -0.5298  0.2043 -0.0565
 1356TIP3    H125483   5.797   4.866  14.936 -1.0317  0.1826 -0.2880
 1356TIP3    H225484   5.749   4.739  15.002  1.4457 -0.2476  0.7934
 1357TIP3   OH225485   0.906   2.315  12.511  0.5577 -0.2568 -0.0245
 1357TIP3    H125486   0.877   2.276  12.428 -1.0813  1.1302 -0.1518
 1357TIP3    H225487   0.963   2.387  12.485  0.3935 -0.0929  0.0681
 1358TIP3   OH225488   0.375   0.525  13.641 -0.5696 -0.2358 -0.1825
 1358TIP3    H125489   0.429   0.459  13.684 -1.1297 -0.6116 -0.0371
 1358TIP3    H225490   0.300   0.476  13.607  0.5909 -0.2255 -3.0101
 1359TIP3   OH225491   4.468   6.645  15.660 -0.0639 -0.2650  0.2249
 1359TIP3    H125492   4.482   6.629  15.567 -0.7580 -2.3940  0.4311
 1359TIP3    H225493   4.449   6.558  15.697 -0.5781  0.6289  2.2097
 1360TIP3   OH225494   0.653   6.190  14.271 -0.5315 -0.5375 -0.1890
 1360TIP3    H125495   0.690   6.233  14.194  2.1516 -0.8814  0.7781
 1360TIP3    H225496   0.649   6.259  14.337  0.9698 -1.0544  0.4878
 1361TIP3   OH225497   4.370   3.869  11.693  0.4589 -0.2354 -0.2917
 1361TIP3    H125498   4.420   3.788  11.676  1.0460 -0.0274  0.3660
 1361TIP3    H225499   4.280   3.846  11.673  0.3946 -1.5206  1.2744
 1362TIP3   OH225500   4.797   0.567   3.846  0.7767 -0.0808 -0.0980
 1362TIP3    H125501   4.796   0.663   3.853  1.6747 -0.2127  2.7079
 1362TIP3    H225502   4.889   0.544   3.848  0.5143 -1.1058  1.6644
 1363TIP3   OH225503   0.057   2.516  13.397 -0.1440  0.1766 -0.4173
 1363TIP3    H125504   0.145   2.548  13.381 -0.0036 -0.1508 -0.3055
 1363TIP3    H225505   0.019   2.579  13.458 -0.7059  1.4734 -2.0490
 1364TIP3   OH225506   0.117   6.513   4.748 -0.4255  0.2398 -0.7394
 1364TIP3    H125507   0.115   6.448   4.817  0.1523  0.1078 -0.8437
 1364TIP3    H225508   0.194   6.491   4.696  0.0644  1.3026 -0.4862
 1365TIP3   OH225509   1.670   3.716  14.896 -0.0703  0.3191  0.1260
 1365TIP3    H125510   1.578   3.700  14.879 -0.4539  1.0707  1.4035
 1365TIP3    H225511   1.688   3.669  14.978  0.5992  0.4578  0.0660
 1366TIP3   OH225512   3.702   4.754  11.013  0.1010 -0.3624  0.4082
 1366TIP3    H125513   3.733   4.744  10.923  0.0145  2.2989 -0.0060
 1366TIP3    H225514   3.782   4.766  11.064  0.2246 -2.9043  0.9321
 1367TIP3   OH225515   2.872   4.797  14.523 -0.3698  0.8983  0.0366
 1367TIP3    H125516   2.871   4.880  14.475  0.0087  1.1453  0.4489
 1367TIP3    H225517   2.955   4.757  14.501 -0.2727  0.9299  0.3441
 1368TIP3   OH225518   4.033   4.448   0.471 -0.0322  0.0879  0.1427
 1368TIP3    H125519   4.063   4.389   0.402  1.5951  0.5499  0.3924
 1368TIP3    H225520   4.000   4.525   0.425 -2.0193 -0.9019 -0.1766
 1369TIP3   OH225521   6.547   3.594  13.017  0.0380  0.2291 -0.6784
 1369TIP3    H125522   6.476   3.649  13.051 -0.8874 -1.8031  0.9002
 1369TIP3    H225523   6.627   3.645  13.032 -0.7762  1.1508  0.7126
 1370TIP3   OH225524   6.710   1.142   4.382  0.5199  0.7420 -0.1096
 1370TIP3    H125525   6.682   1.229   4.410 -1.2062 -0.0240  0.7145
 1370TIP3    H225526   6.705   1.145   4.286 -1.7801  0.9185 -0.0385
 1371TIP3   OH225527   3.321   1.448   6.038 -0.2798  0.3362 -0.3221
 1371TIP3    H125528   3.302   1.438   6.132  0.8668  1.7347  0.0970
 1371TIP3    H225529   3.363   1.365   6.013 -1.7848 -0.5708  0.0575
 1372TIP3   OH225530   6.206   2.109  11.367  0.0450 -0.5454 -0.1922
 1372TIP3    H125531   6.219   2.188  11.419 -0.9998 -0.9586  0.7656
 1372TIP3    H225532   6.140   2.133  11.302 -0.1784 -0.5814  0.0177
 1373TIP3   OH225533   2.603   1.443  13.520  0.0713  0.1659 -0.2101
 1373TIP3    H125534   2.663   1.494  13.465  1.0048 -0.2379  0.4062
 1373TIP3    H225535   2.559   1.509  13.574  0.6465  0.3928 -0.0100
 1374TIP3   OH225536   6.147   6.681  16.477 -0.5086  0.4059  0.3540
 1374TIP3    H125537   6.069   6.664  16.530  0.3025  0.8624  1.7307
 1374TIP3    H225538   6.114   6.730  16.402 -1.4502  1.4670  1.4095
 1375TIP3   OH225539   0.902   1.368   2.501 -0.1347 -0.6690 -0.4551
 1375TIP3    H125540   0.838   1.438   2.488 -0.2995 -1.0582 -1.8483
 1375TIP3    H225541   0.983   1.403   2.463 -0.2512 -1.2644 -1.2770
 1376TIP3   OH225542   2.776   5.294  15.929 -0.7452 -0.3422  0.0851
 1376TIP3    H125543   2.760   5.266  16.019 -1.0291  3.0297  1.2034
 1376TIP3    H225544   2.691   5.321  15.896 -0.5318 -0.9232 -0.9968
 1377TIP3   OH225545   1.970   6.236   6.108 -0.2466  0.0602  0.2612
 1377TIP3    H125546   1.925   6.300   6.052 -0.6022  0.6178  1.1521
 1377TIP3    H225547   1.916   6.157   6.102  1.0673 -0.7309 -2.1158
 1378TIP3   OH225548   4.128   5.102   2.932  0.2952 -0.2849  0.4212
 1378TIP3    H125549   4.175   5.109   3.014 -1.5547 -0.4256  1.5553
 1378TIP3    H225550   4.098   5.011   2.930  0.3561 -0.2924 -0.4361
 1379TIP3   OH225551   1.809   4.545   5.513  0.4846 -0.3916 -0.3159
 1379TIP3    H125552   1.850   4.478   5.458  1.8446 -0.4607  0.7470
 1379TIP3    H225553   1.844   4.628   5.478  1.5217 -0.4465  0.5357
 1380TIP3   OH225554   5.084   0.283   1.028 -0.3623  0.2641  0.0136
 1380TIP3    H125555   5.148   0.238   1.082 -0.1748  2.1577  1.4803
 1380TIP3    H225556   5.000   0.267   1.070 -0.5604 -0.3177 -0.5880
 1381TIP3   OH225557   6.499   1.436  10.430  0.1528  0.6385 -0.4988
 1381TIP3    H125558   6.454   1.353  10.413  0.6460  0.4581 -0.9359
 1381TIP3    H225559   6.527   1.430  10.521 -1.2351  1.0076 -0.0230
 1382TIP3   OH225560   4.453   3.373   2.795 -0.1467 -0.0433 -0.6193
 1382TIP3    H125561   4.549   3.374   2.803 -0.0176 -0.3935 -1.8523
 1382TIP3    H225562   4.426   3.461   2.819  0.4808  0.0501 -0.2279
 1383TIP3   OH225563   5.332   0.259  16.370  0.3568 -0.1749 -0.1465
 1383TIP3    H125564   5.246   0.221  16.390  0.0711  0.6758  0.3075
 1383TIP3    H225565   5.386   0.184  16.344  0.1831 -1.0955  1.9280
 1384TIP3   OH225566   5.363   1.915  11.176  0.1229 -0.3779 -0.1911
 1384TIP3    H125567   5.424   1.988  11.170  0.1938 -0.3868  0.3243
 1384TIP3    H225568   5.323   1.910  11.090  0.2927  0.1173 -0.3040
 1385TIP3   OH225569   0.378   5.760   3.903 -0.2190 -1.2318 -0.4286
 1385TIP3    H125570   0.348   5.670   3.917  1.9506 -1.8686  0.5711
 1385TIP3    H225571   0.346   5.808   3.980  1.9156 -2.1171  1.1192
 1386TIP3   OH225572   2.393   5.551  10.406  0.2227 -0.2167  0.2804
 1386TIP3    H125573   2.448   5.628  10.394 -0.9107  0.3392 -1.6365
 1386TIP3    H225574   2.314   5.584  10.448 -1.2406  0.1710 -2.5721
 1387TIP3   OH225575   3.986   4.262  15.221 -0.3238 -0.0101 -0.0530
 1387TIP3    H125576   3.950   4.312  15.148  1.5078  2.4535  0.5816
 1387TIP3    H225577   4.025   4.328  15.279 -0.5955 -1.9562  2.5547
 1388TIP3   OH225578   6.753   0.844  13.454 -0.0403  0.2473  0.4594
 1388TIP3    H125579   6.811   0.816  13.524  0.2620  0.3320  0.2473
 1388TIP3    H225580   6.723   0.763  13.413  0.2552  0.2122  0.3099
 1389TIP3   OH225581   5.367   4.538   1.017 -0.0778 -0.0697  0.3613
 1389TIP3    H125582   5.332   4.586   1.093 -0.8928  0.5425 -0.3703
 1389TIP3    H225583   5.331   4.450   1.026 -1.9442  0.5615 -0.3999
 1390TIP3   OH225584   2.945   3.930  10.702  0.1069 -0.2447  0.0106
 1390TIP3    H125585   2.911   3.857  10.755 -0.6189  0.3649  0.3964
 1390TIP3    H225586   2.880   3.942  10.634  1.1819 -1.2214 -1.2525
 1391TIP3   OH225587   2.233   3.130  14.597  0.0139 -0.4109  0.1721
 1391TIP3    H125588   2.159   3.171  14.553 -0.7298 -1.0401  0.7911
 1391TIP3    H225589   2.307   3.189  14.582 -1.1377  1.4844  1.5547
 1392TIP3   OH225590   4.364   0.374   3.257 -0.1558 -0.2108  0.4851
 1392TIP3    H125591   4.436   0.384   3.318 -0.3665  0.1607  0.6782
 1392TIP3    H225592   4.369   0.283   3.229  1.5774  0.2929 -1.0125
 1393TIP3   OH225593   6.639   3.353   6.642  0.2069 -0.3719 -1.0423
 1393TIP3    H125594   6.697   3.368   6.567  0.0056 -0.0618 -1.1408
 1393TIP3    H225595   6.582   3.281   6.615 -1.1340  0.9687 -1.9560
 1394TIP3   OH225596   4.735   5.855   1.507 -0.3403  0.4267 -0.0892
 1394TIP3    H125597   4.664   5.900   1.554 -1.3131  0.8423 -1.8460
 1394TIP3    H225598   4.800   5.923   1.492 -0.0165  0.2874  0.6551
 1395TIP3   OH225599   6.476   3.196  14.648 -0.7440  0.1142  0.1071
 1395TIP3    H125600   6.523   3.113  14.643 -3.7003 -1.6632 -0.6350
 1395TIP3    H225601   6.543   3.260  14.672  2.3299 -1.9016 -2.2708
 1396TIP3   OH225602   0.461   0.835   2.898 -0.1347 -0.1619  0.0256
 1396TIP3    H125603   0.492   0.893   2.828 -0.2038  0.4621  0.5083
 1396TIP3    H225604   0.536   0.779   2.917  0.0286 -0.0379 -0.2382
 1397TIP3   OH225605   1.746   2.712  15.018 -0.4926 -0.0360 -0.0605
 1397TIP3    H125606   1.683   2.646  15.046 -2.6002  1.2947 -1.2986
 1397TIP3    H225607   1.691   2.786  14.990  1.6452  1.1766 -1.3165
 1398TIP3   OH225608   0.050   1.841  13.739 -0.6838 -0.2100 -0.4421
 1398TIP3    H125609   0.013   1.811  13.656 -0.1600  0.7471 -1.0381
 1398TIP3    H225610   0.135   1.877  13.716 -1.3198  1.8267  0.1881
 1399TIP3   OH225611   0.338   1.710   2.989  0.3976  0.1083  0.2025
 1399TIP3    H125612   0.342   1.676   2.900  0.1086 -0.9016  0.5624
 1399TIP3    H225613   0.322   1.804   2.979 -0.7995 -0.1836 -0.7940
 1400TIP3   OH225614   2.747   0.373   4.133 -0.0250  0.0330 -0.5716
 1400TIP3    H125615   2.656   0.351   4.114  0.1185  0.7216 -2.2321
 1400TIP3    H225616   2.758   0.353   4.226 -1.6142 -0.8811 -0.5509
 1401TIP3   OH225617   6.144   2.917   1.901 -0.1658  0.3854  0.0688
 1401TIP3    H125618   6.232   2.932   1.869  0.1246 -0.2062  0.5631
 1401TIP3    H225619   6.156   2.869   1.983 -0.9845 -2.4912 -1.3595
 1402TIP3   OH225620   2.054   5.663  13.476  0.3029  0.4241  0.0151
 1402TIP3    H125621   1.962   5.688  13.465  0.2342 -0.2099 -0.9417
 1402TIP3    H225622   2.097   5.745  13.501 -0.5680  0.6552  0.8324
 1403TIP3   OH225623   3.747   3.762   5.518 -0.9790 -0.3576 -0.1056
 1403TIP3    H125624   3.735   3.777   5.612 -0.4829  0.7034 -0.1921
 1403TIP3    H225625   3.703   3.837   5.477 -1.1448 -0.7882 -0.7244
 1404TIP3   OH225626   2.745   3.681   3.407 -0.6168 -0.1568 -0.7131
 1404TIP3    H125627   2.662   3.653   3.446  0.4899 -2.4904  0.1578
 1404TIP3    H225628   2.721   3.756   3.352 -3.1026 -0.0786  0.3221
 1405TIP3   OH225629   0.108   5.384   0.960  0.2007 -0.0852  0.1980
 1405TIP3    H125630   0.051   5.320   1.001 -0.0144 -0.0775 -0.0881
 1405TIP3    H225631   0.051   5.458   0.938  0.1045 -0.5033 -1.0261
 1406TIP3   OH225632   4.206   3.269  13.001 -0.7476  0.0308  0.1196
 1406TIP3    H125633   4.255   3.335  13.050  2.2757 -2.9636  1.5923
 1406TIP3    H225634   4.153   3.225  13.067  0.3080 -1.4659  0.0309
 1407TIP3   OH225635   3.654   0.340  13.048  0.4798  0.2251 -0.1234
 1407TIP3    H125636   3.631   0.360  13.139 -0.3813  0.0418 -0.2886
 1407TIP3    H225637   3.747   0.317  13.051  0.3281 -0.3437  0.8072
 1408TIP3   OH225638   3.880   2.045  17.194  0.3994  0.1204  0.1493
 1408TIP3    H125639   3.884   1.975  17.128 -1.1998  0.6665 -0.5732
 1408TIP3    H225640   3.947   2.108  17.166 -0.7358  0.6985 -1.4233
 1409TIP3   OH225641   1.062   5.239  13.114 -0.0915  1.1416  0.1509
 1409TIP3    H125642   1.090   5.215  13.026 -1.6815 -1.0497  0.1513
 1409TIP3    H225643   1.001   5.312  13.102 -1.7915 -0.3637 -0.8220
 1410TIP3   OH225644   1.949   2.811  11.903 -0.3383 -0.1675 -0.3271
 1410TIP3    H125645   1.858   2.815  11.873  0.4819  0.3245 -2.9508
 1410TIP3    H225646   1.951   2.736  11.962 -2.2680 -0.6719 -0.8302
 1411TIP3   OH225647   5.141   1.041   3.386  0.0635 -0.2577  0.5191
 1411TIP3    H125648   5.195   1.114   3.357 -0.3700 -0.9676 -2.3179
 1411TIP3    H225649   5.164   1.030   3.478  3.0085  0.9673  0.0333
 1412TIP3   OH225650   4.673   2.282   5.765 -0.7466  0.2217 -0.6940
 1412TIP3    H125651   4.748   2.236   5.804 -0.7765 -0.5559 -1.5372
 1412TIP3    H225652   4.703   2.373   5.757 -0.4723  0.2445  0.4293
 1413TIP3   OH225653   1.308   6.180  14.103  0.1357  0.1943 -0.2409
 1413TIP3    H125654   1.297   6.098  14.054 -1.8454  0.5555 -0.4639
 1413TIP3    H225655   1.366   6.233  14.049 -0.9949  0.0877 -1.6070
 1414TIP3   OH225656   1.315   1.983   3.348  0.3243  0.0267 -0.1908
 1414TIP3    H125657   1.370   2.058   3.324  0.2295  0.2359  0.2334
 1414TIP3    H225658   1.241   1.987   3.288  0.4045  0.1750 -0.2796
 1415TIP3   OH225659   6.740   4.237   0.046 -0.3715  0.6005  0.1506
 1415TIP3    H125660   6.785   4.270  -0.032 -0.3416  3.1510  1.1564
 1415TIP3    H225661   6.753   4.305   0.112  0.4739 -1.9081  2.7741
 1416TIP3   OH225662   3.796   0.665  14.856 -0.1742  0.0781 -0.3405
 1416TIP3    H125663   3.841   0.590  14.817  0.5227  0.7013 -0.7690
 1416TIP3    H225664   3.863   0.708  14.909 -0.9993 -0.5051  1.2354
 1417TIP3   OH225665   3.183   6.370  15.884  0.9120 -0.1442 -0.4984
 1417TIP3    H125666   3.242   6.311  15.836  0.1624  1.0246 -3.0738
 1417TIP3    H225667   3.098   6.359  15.841  0.3280  1.4055  0.2051
 1418TIP3   OH225668   1.675   1.960   4.386 -0.4671 -0.0950  0.0987
 1418TIP3    H125669   1.769   1.971   4.398 -0.3521  0.9191 -1.4306
 1418TIP3    H225670   1.664   1.950   4.291 -1.7477 -1.9980  0.3809
 1419TIP3   OH225671   3.883   3.958   1.840 -0.0255  0.2048 -0.1608
 1419TIP3    H125672   3.839   3.878   1.868  0.3194  0.0067 -0.1745
 1419TIP3    H225673   3.841   3.982   1.757  1.2044 -1.0934 -1.2203
 1420TIP3   OH225674   3.831   4.915   2.257 -0.0700  0.2050 -0.0301
 1420TIP3    H125675   3.740   4.945   2.265 -0.0642 -0.0252  0.9729
 1420TIP3    H225676   3.840   4.845   2.321  0.7172 -0.0293 -0.3788
 1421TIP3   OH225677   6.263   1.182  13.637 -0.0185  0.4253 -0.5944
 1421TIP3    H125678   6.168   1.174  13.650  0.2832 -0.4282  1.4914
 1421TIP3    H225679   6.284   1.112  13.575 -0.4230 -1.1552  0.9842
 1422TIP3   OH225680   1.186   5.071  12.535  0.0902 -0.6334  0.2742
 1422TIP3    H125681   1.159   5.114  12.454  1.1097  0.2573  0.3738
 1422TIP3    H225682   1.104   5.045  12.577 -0.5951  1.0730  0.1083
 1423TIP3   OH225683   0.337   1.820   3.759 -0.9046  0.4245 -0.0820
 1423TIP3    H125684   0.292   1.744   3.723 -1.8474  1.4459 -1.1759
 1423TIP3    H225685   0.291   1.838   3.842  0.3864 -1.1256  1.0195
 1424TIP3   OH225686   5.908   0.394  14.876  0.0906 -0.0266 -0.0775
 1424TIP3    H125687   5.834   0.381  14.936  0.3291 -0.9650  0.0245
 1424TIP3    H225688   5.871   0.384  14.789  0.1360 -0.7805 -0.0194
 1425TIP3   OH225689   0.944   6.551   3.347 -0.3020  0.8788 -0.0905
 1425TIP3    H125690   1.014   6.508   3.395  0.4307  1.6092 -0.4683
 1425TIP3    H225691   0.969   6.644   3.346  0.4750  0.7501 -3.0530
 1426TIP3   OH225692   4.979   5.040   0.444 -0.4467 -0.1465  0.0484
 1426TIP3    H125693   5.045   5.043   0.513 -0.7981 -1.0698  0.4377
 1426TIP3    H225694   5.029   5.031   0.363 -0.0636  0.0641  0.2598
 1427TIP3   OH225695   2.994   6.558   2.746  0.3551 -0.0521 -0.0104
 1427TIP3    H125696   2.902   6.575   2.766  0.3677 -0.6667  0.5741
 1427TIP3    H225697   3.010   6.469   2.775  0.9675 -0.1885 -0.7232
 1428TIP3   OH225698   6.379   4.544  14.488 -0.0963  0.5976 -0.8466
 1428TIP3    H125699   6.339   4.458  14.480  0.0923  0.4717 -0.4913
 1428TIP3    H225700   6.321   4.603  14.440  1.2845 -0.1807 -3.6458
 1429TIP3   OH225701   4.284   0.342  12.941  0.3966  0.2977 -0.3477
 1429TIP3    H125702   4.351   0.336  13.009  1.8780  0.1372 -1.7536
 1429TIP3    H225703   4.227   0.267  12.957  1.2629 -0.2647  0.1727
 1430TIP3   OH225704   5.490   4.582  14.144  0.0133  0.0050  0.0226
 1430TIP3    H125705   5.457   4.492  14.150 -4.0735  1.2879 -0.1856
 1430TIP3    H225706   5.485   4.615  14.234 -0.4384  0.6134 -0.2248
 1431TIP3   OH225707   0.607   5.530  16.166  0.1335 -0.7584  0.0515
 1431TIP3    H125708   0.606   5.616  16.208 -2.1335 -0.4917 -0.4125
 1431TIP3    H225709   0.653   5.544  16.083  2.5010 -0.7469  1.3008
 1432TIP3   OH225710   2.995   4.156  10.858  0.2631  0.3207  0.1352
 1432TIP3    H125711   2.991   4.077  10.804 -0.0330  1.1032 -1.0142
 1432TIP3    H225712   2.912   4.200  10.842  1.5193  2.2545 -1.4389
 1433TIP3   OH225713   6.014   6.213  16.840 -0.5316 -0.6005 -0.3502
 1433TIP3    H125714   6.093   6.263  16.864 -1.3532  1.1278 -1.0705
 1433TIP3    H225715   6.016   6.137  16.897  0.1113  0.9099  1.7469
 1434TIP3   OH225716   4.701   2.382   2.461  0.0944 -0.2830 -0.0219
 1434TIP3    H125717   4.653   2.326   2.399  0.5684 -0.5769 -0.1291
 1434TIP3    H225718   4.633   2.421   2.515 -0.2399 -1.1633  0.2189
 1435TIP3   OH225719   2.210   2.750   2.476 -0.2742  0.3948  0.6736
 1435TIP3    H125720   2.304   2.768   2.488 -0.4066 -0.4681  4.0845
 1435TIP3    H225721   2.196   2.668   2.523 -3.2158  1.9979  2.8854
 1436TIP3   OH225722   2.914   6.038   5.630 -0.0644 -0.3696  0.1831
 1436TIP3    H125723   2.947   6.126   5.615 -0.2336 -0.6887 -2.5303
 1436TIP3    H225724   2.819   6.048   5.636 -0.0631 -0.3334  0.1421
 1437TIP3   OH225725   4.574   3.629  16.636 -0.7363 -0.3420  0.2937
 1437TIP3    H125726   4.539   3.581  16.561 -1.8547 -0.1333  0.6611
 1437TIP3    H225727   4.608   3.561  16.694 -1.6780 -0.6704  0.4898
 1438TIP3   OH225728   5.761   0.079  13.566  0.5693  0.2228 -0.1639
 1438TIP3    H125729   5.810   0.051  13.489  0.8117 -1.3053  0.5115
 1438TIP3    H225730   5.776   0.173  13.571  2.3887 -0.0062 -0.7108
 1439TIP3   OH225731   6.554   4.010  14.864  0.1527  0.0660 -0.2811
 1439TIP3    H125732   6.472   4.040  14.825 -0.4507 -3.9287 -2.6791
 1439TIP3    H225733   6.527   3.955  14.938  0.6581 -0.7173 -0.6622
 1440TIP3   OH225734   2.862   0.578   5.790  0.1670  0.4498  0.2069
 1440TIP3    H125735   2.781   0.534   5.764 -0.8152  1.1827  1.8325
 1440TIP3    H225736   2.876   0.644   5.722 -0.9501  0.7020  0.1999
 1441TIP3   OH225737   1.054   3.464  14.537  0.0542 -0.0431  0.2008
 1441TIP3    H125738   1.012   3.549  14.527  0.7925  0.2798 -0.2349
 1441TIP3    H225739   1.055   3.448  14.632  0.4401  0.7131  0.3342
 1442TIP3   OH225740   5.894   6.098   4.821  0.4762  0.0408 -0.1213
 1442TIP3    H125741   5.957   6.126   4.888 -0.1668  0.0774  0.4769
 1442TIP3    H225742   5.897   6.169   4.756 -1.3129  1.7260  1.4973
 1443TIP3   OH225743   1.410   4.155   6.784  0.8742 -0.5241  0.2906
 1443TIP3    H125744   1.500   4.132   6.808  0.9110  1.0583  1.8869
 1443TIP3    H225745   1.357   4.087   6.825  1.2671 -0.7296  0.4739
 1444TIP3   OH225746   1.839   1.664  14.541  0.4216  0.0678 -0.3697
 1444TIP3    H125747   1.899   1.617  14.483 -0.6768  0.5713 -2.0027
 1444TIP3    H225748   1.780   1.711  14.481 -1.0586  0.2636  1.1656
 1445TIP3   OH225749   0.340   2.111   5.608 -0.0317 -0.0468  0.2249
 1445TIP3    H125750   0.375   2.079   5.692  1.8158  3.1775  0.8875
 1445TIP3    H225751   0.418   2.126   5.554 -1.0311  0.0746 -1.2397
 1446TIP3   OH225752   6.359   1.634  15.646 -0.2408 -0.1499 -0.1315
 1446TIP3    H125753   6.275   1.602  15.611  0.4332  2.0147 -4.3916
 1446TIP3    H225754   6.337   1.668  15.732 -3.2656 -1.6072 -0.1758
 1447TIP3   OH225755   1.629   6.749   3.332 -0.2559  0.1248 -0.7695
 1447TIP3    H125756   1.543   6.735   3.372 -1.4378  0.8597 -2.8733
 1447TIP3    H225757   1.657   6.835   3.363 -0.1101 -0.2590  0.1811
 1448TIP3   OH225758   3.196   4.931   2.101  0.5730  0.6707 -0.4347
 1448TIP3    H125759   3.235   5.010   2.062  0.6567  1.3390  0.9395
 1448TIP3    H225760   3.194   4.950   2.195  0.0649 -0.7488 -0.1453
 1449TIP3   OH225761   3.263   5.181   0.986  0.3930  0.3244  0.1904
 1449TIP3    H125762   3.339   5.201   0.932 -0.2914  1.4255 -0.4023
 1449TIP3    H225763   3.190   5.172   0.924  0.2246 -1.9532  0.6282
 1450TIP3   OH225764   3.168   1.423  14.863  0.3999  0.0422 -0.4161
 1450TIP3    H125765   3.164   1.341  14.912 -1.7968  1.3214  1.7741
 1450TIP3    H225766   3.233   1.407  14.795  0.5155 -3.2791  0.3013
 1451TIP3   OH225767   4.918   3.030  10.960 -0.5119  0.1480 -0.3834
 1451TIP3    H125768   4.975   3.049  10.886  0.0268 -0.2042 -0.0637
 1451TIP3    H225769   4.845   3.091  10.950  1.1694  2.4706  0.6087
 1452TIP3   OH225770   0.519   1.359  13.344  0.0255  0.7749 -0.2087
 1452TIP3    H125771   0.454   1.304  13.388  1.2757 -0.7521 -0.2082
 1452TIP3    H225772   0.524   1.325  13.255  0.1220  1.5409 -0.5064
 1453TIP3   OH225773   5.108   1.494   1.722 -0.2614 -0.0130 -0.7632
 1453TIP3    H125774   5.173   1.426   1.707  0.2319  0.3519 -0.2847
 1453TIP3    H225775   5.025   1.453   1.697  0.1034 -0.5853 -1.0642
 1454TIP3   OH225776   1.665   5.074   5.014 -0.0774 -0.0218 -0.5024
 1454TIP3    H125777   1.639   5.127   4.938 -3.2316 -0.4587  0.1377
 1454TIP3    H225778   1.694   4.991   4.976 -2.4291 -0.5544 -1.3171
 1455TIP3   OH225779   0.175   1.445   3.858  0.4991  0.2217  0.3010
 1455TIP3    H125780   0.257   1.474   3.899  1.1350 -0.4543 -0.4655
 1455TIP3    H225781   0.178   1.481   3.770  0.6633 -1.0087 -0.2124
 1456TIP3   OH225782   3.942   3.714  10.908  0.3085 -0.5226 -0.3115
 1456TIP3    H125783   3.898   3.799  10.902  0.0603 -0.4984  1.3616
 1456TIP3    H225784   4.032   3.736  10.932  0.4155 -0.7013 -0.5515
 1457TIP3   OH225785   2.092   5.979   3.850 -0.4563  0.4015 -0.4047
 1457TIP3    H125786   2.114   5.900   3.800 -0.7298  0.2314 -0.2598
 1457TIP3    H225787   2.055   5.946   3.932  1.5083  0.6476  0.6396
 1458TIP3   OH225788   1.028   0.078   0.420  0.6152  0.1075  0.0216
 1458TIP3    H125789   0.955   0.120   0.466 -1.2716 -0.9684 -1.8165
 1458TIP3    H225790   1.043  -0.003   0.469  0.5086  0.2712  0.3311
 1459TIP3   OH225791   4.996   5.420  10.958 -0.1018 -0.4386  0.2273
 1459TIP3    H125792   4.988   5.452  11.047  1.2301  0.1244  0.1609
 1459TIP3    H225793   5.066   5.472  10.919 -1.4464  0.1684 -1.5390
 1460TIP3   OH225794   2.755   6.694  14.741 -0.4342  0.3282  0.3460
 1460TIP3    H125795   2.810   6.771  14.728  0.4537  0.2159  2.8046
 1460TIP3    H225796   2.802   6.623  14.697  0.2596  0.6674  0.5266
 1461TIP3   OH225797   0.773   5.310   6.004  0.2391  0.2810  0.0190
 1461TIP3    H125798   0.757   5.356   6.087 -0.3597  0.2166 -0.0633
 1461TIP3    H225799   0.697   5.254   5.992  1.0045 -0.8421  0.1722
 1462TIP3   OH225800   1.843   2.506   1.350 -0.3638 -0.0878  0.0501
 1462TIP3    H125801   1.821   2.555   1.270 -0.1316  1.0049  0.6412
 1462TIP3    H225802   1.907   2.561   1.395 -0.6714 -0.5796  1.1103
 1463TIP3   OH225803   2.187   2.607  14.051 -0.6593 -0.2714  0.0157
 1463TIP3    H125804   2.237   2.609  13.969  0.7594  0.8578  0.8656
 1463TIP3    H225805   2.193   2.516  14.080  0.0296 -0.3826 -0.4364
 1464TIP3   OH225806   2.732   1.468   4.788 -0.6031 -0.2708 -0.3529
 1464TIP3    H125807   2.663   1.503   4.845 -1.7071 -0.0988 -1.7339
 1464TIP3    H225808   2.749   1.539   4.725  0.7476 -0.3719 -0.1390
 1465TIP3   OH225809   6.251   4.664   1.282  0.6051  0.6004  0.4798
 1465TIP3    H125810   6.285   4.642   1.195 -0.9440  0.1677 -0.0479
 1465TIP3    H225811   6.242   4.579   1.326  0.3296  0.7200  0.6546
 1466TIP3   OH225812   0.273   4.845  16.841  0.2032  0.0317  0.0001
 1466TIP3    H125813   0.202   4.799  16.886  0.9856 -1.4486 -0.2223
 1466TIP3    H225814   0.289   4.922  16.895 -2.1449  0.9188 -0.4219
 1467TIP3   OH225815   3.428   4.182   1.503  0.4185  0.5486 -0.0540
 1467TIP3    H125816   3.441   4.171   1.597 -3.7780 -0.4681  0.6032
 1467TIP3    H225817   3.456   4.098   1.465 -0.3430 -0.0643  0.6956
 1468TIP3   OH225818   5.052   2.673   1.028  0.1037  0.6066 -0.2894
 1468TIP3    H125819   5.026   2.739   0.964  1.1870  0.3701 -1.0045
 1468TIP3    H225820   5.061   2.592   0.978 -0.9263 -0.0336  0.5268
 1469TIP3   OH225821   4.235   3.592  12.920  0.2041 -0.0321 -0.1474
 1469TIP3    H125822   4.156   3.596  12.974 -0.0871 -2.0091 -0.3405
 1469TIP3    H225823   4.202   3.578  12.831  0.7439  0.4394 -0.4254
 1470TIP3   OH225824   1.177   2.753   2.989  0.4223 -0.2732 -0.0783
 1470TIP3    H125825   1.188   2.842   3.022 -0.1063 -0.1453 -0.2408
 1470TIP3    H225826   1.142   2.764   2.901  0.5231 -0.6404 -0.1670
 1471TIP3   OH225827   4.886   0.322   4.958 -0.6308 -0.1884  0.9415
 1471TIP3    H125828   4.938   0.367   4.891  0.5557  0.4148  2.2350
 1471TIP3    H225829   4.804   0.372   4.961 -0.4565  0.1506  0.3646
 1472TIP3   OH225830   1.620   2.103   0.719  0.0040 -0.1038  0.0776
 1472TIP3    H125831   1.694   2.076   0.665  0.1091  1.5602 -0.6608
 1472TIP3    H225832   1.625   2.198   0.723 -1.9873  0.0573  0.1648
 1473TIP3   OH225833   5.267   1.385   5.638 -0.2734  0.1097 -0.1275
 1473TIP3    H125834   5.238   1.378   5.729  1.0950 -0.9028  0.2647
 1473TIP3    H225835   5.191   1.421   5.591 -0.8587  1.0522  1.4701
 1474TIP3   OH225836   2.292   2.827   3.871  0.1645  0.1338  0.0818
 1474TIP3    H125837   2.266   2.786   3.953 -0.1308 -0.6244 -0.3819
 1474TIP3    H225838   2.217   2.881   3.846 -0.3723 -0.8465 -0.4687
 1475TIP3   OH225839   6.104   5.263  16.835  0.7350 -0.6192  0.4196
 1475TIP3    H125840   6.015   5.252  16.801  1.3894 -0.8629 -1.3543
 1475TIP3    H225841   6.124   5.180  16.879  0.8333 -1.4288 -1.0876
 1476TIP3   OH225842   4.342   6.746   0.080 -0.1012 -0.2827 -0.4183
 1476TIP3    H125843   4.263   6.795   0.105 -0.6998 -0.4993 -1.7852
 1476TIP3    H225844   4.342   6.670   0.138  0.2825  0.7915  1.0403
 1477TIP3   OH225845   0.694   5.250  12.290  0.1107 -0.0863 -0.4381
 1477TIP3    H125846   0.620   5.246  12.350 -0.4427 -0.8556 -1.1507
 1477TIP3    H225847   0.737   5.165  12.299  1.1359  0.4762  0.2283
 1478TIP3   OH225848   3.718   5.275  12.864  0.5825  0.1246 -0.3284
 1478TIP3    H125849   3.690   5.366  12.859  2.2431  0.6134 -1.6289
 1478TIP3    H225850   3.694   5.248  12.952  0.3208  1.9036  0.1901
 1479TIP3   OH225851   2.691   4.020  11.830 -0.5640  0.5623  0.3151
 1479TIP3    H125852   2.622   3.991  11.890 -0.6265 -1.5258 -0.6584
 1479TIP3    H225853   2.649   4.022  11.744  0.2345  0.6231 -0.0886
 1480TIP3   OH225854   0.762   3.298  13.655 -0.1643  0.3063 -0.6040
 1480TIP3    H125855   0.852   3.308  13.625 -0.2058 -0.9414 -1.1839
 1480TIP3    H225856   0.711   3.355  13.598  0.1398  0.2797 -0.9049
 1481TIP3   OH225857   1.385   1.877   0.372 -0.1387 -0.1983 -0.1535
 1481TIP3    H125858   1.326   1.941   0.413  0.7265  0.1298  0.6288
 1481TIP3    H225859   1.454   1.931   0.333  1.1370 -0.6466  1.3649
 1482TIP3   OH225860   5.474   1.635   2.849 -0.1925  0.1439 -0.0706
 1482TIP3    H125861   5.476   1.539   2.842 -1.4276  0.1794 -1.2863
 1482TIP3    H225862   5.382   1.656   2.859  0.1001  1.2047  0.4558
 1483TIP3   OH225863   0.477   4.260   2.222  0.0487 -0.3833  0.1368
 1483TIP3    H125864   0.461   4.338   2.170  0.1118  1.1236  2.2812
 1483TIP3    H225865   0.509   4.195   2.158  0.3707  1.4227 -1.6300
 1484TIP3   OH225866   1.209   1.113   4.226  0.4763  0.1518 -0.3469
 1484TIP3    H125867   1.278   1.146   4.169  0.8699 -0.5830 -0.2940
 1484TIP3    H225868   1.247   1.116   4.314  1.1357 -2.0234 -0.5195
 1485TIP3   OH225869   3.260   1.969   5.493 -0.3364 -0.2814 -0.2215
 1485TIP3    H125870   3.286   1.881   5.521 -3.2148 -1.4086 -0.7636
 1485TIP3    H225871   3.316   1.988   5.417  1.9657 -0.5614  1.3075
 1486TIP3   OH225872   1.887   1.426  12.927 -0.2554 -0.3200 -0.3339
 1486TIP3    H125873   1.835   1.398  12.852 -0.8129  0.5603 -0.3008
 1486TIP3    H225874   1.839   1.392  13.003 -0.3329 -0.2201 -0.3367
 1487TIP3   OH225875   6.006   4.806   1.165 -0.2571  0.0573  0.0477
 1487TIP3    H125876   6.095   4.778   1.181 -0.3375 -0.2366 -0.0220
 1487TIP3    H225877   6.013   4.870   1.094 -0.2090 -0.6903 -0.6324
 1488TIP3   OH225878   3.827   0.715   6.603 -0.6088  0.0423 -0.0908
 1488TIP3    H125879   3.779   0.775   6.660 -0.9688 -1.2282  0.9916
 1488TIP3    H225880   3.917   0.746   6.606 -0.7950  0.5573  0.4126
 1489TIP3   OH225881   3.454   2.752   2.737  0.2634 -0.0121 -0.3359
 1489TIP3    H125882   3.468   2.668   2.694 -0.6387 -0.1783 -0.3172
 1489TIP3    H225883   3.359   2.761   2.742  0.3311  1.3373 -0.9788
 1490TIP3   OH225884   0.897   5.233  14.889  0.1330  0.3066 -0.3295
 1490TIP3    H125885   0.938   5.164  14.941  0.1278 -0.2453 -1.0332
 1490TIP3    H225886   0.804   5.210  14.888  0.4484 -1.3051 -2.8424
 1491TIP3   OH225887   6.467   6.773  14.130 -0.6118 -0.1464 -0.3313
 1491TIP3    H125888   6.470   6.834  14.204 -2.1189  0.0207 -0.3637
 1491TIP3    H225889   6.461   6.686  14.171 -2.5623  0.0055 -0.1786
 1492TIP3   OH225890   0.411   0.374   3.058 -0.1216  0.0108  0.2670
 1492TIP3    H125891   0.448   0.436   2.995 -0.6586  1.0255  0.9249
 1492TIP3    H225892   0.404   0.423   3.140 -0.1101 -1.0675  0.9451
 1493TIP3   OH225893   3.612   0.989   5.614  0.1253 -0.5202 -0.8055
 1493TIP3    H125894   3.705   0.965   5.617 -0.0233 -1.3164 -1.8233
 1493TIP3    H225895   3.585   0.992   5.706  1.4828  1.1675 -0.4005
 1494TIP3   OH225896   2.604   3.706  16.407  0.6175  0.3423  0.1948
 1494TIP3    H125897   2.533   3.771  16.411  0.6373  0.3335  0.7431
 1494TIP3    H225898   2.646   3.712  16.493  1.5879  0.6917 -0.2921
 1495TIP3   OH225899   4.187   4.339   5.615  0.1089  0.0257 -0.2608
 1495TIP3    H125900   4.166   4.286   5.538  0.3205 -0.6339  0.1305
 1495TIP3    H225901   4.188   4.277   5.688  2.0029  0.2646 -0.0302
 1496TIP3   OH225902   6.745   4.359   4.884 -0.0010 -0.1910  0.2106
 1496TIP3    H125903   6.795   4.334   4.807 -1.4128 -1.5745 -0.2961
 1496TIP3    H225904   6.776   4.301   4.953  0.5665  0.3936  0.4660
 1497TIP3   OH225905   3.674   1.402  15.041 -0.1132  0.2093  0.3166
 1497TIP3    H125906   3.711   1.458  14.973 -1.0125 -0.7525 -1.0203
 1497TIP3    H225907   3.591   1.444  15.064 -0.4101 -0.1415 -0.1075
 1498TIP3   OH225908   6.339   5.900   3.337  0.2371 -0.2669 -0.3965
 1498TIP3    H125909   6.414   5.922   3.281 -0.9440 -1.2677 -2.5283
 1498TIP3    H225910   6.346   5.959   3.412  1.0208  2.3996 -2.4060
 1499TIP3   OH225911   3.559   0.745   3.704  0.7339 -0.1757  0.0498
 1499TIP3    H125912   3.538   0.755   3.611  0.9140 -0.7991 -0.0589
 1499TIP3    H225913   3.531   0.828   3.744 -0.9139 -0.5309 -0.2809
 1500TIP3   OH225914   2.252   2.601   4.404 -0.1421 -0.8380  0.2896
 1500TIP3    H125915   2.237   2.600   4.310 -1.5877 -0.5213  0.4911
 1500TIP3    H225916   2.338   2.640   4.415  0.0452 -0.8958 -0.9002
 1501TIP3   OH225917   2.341   5.241   1.566  0.4541 -0.5687 -0.2113
 1501TIP3    H125918   2.331   5.286   1.650 -0.2571 -1.9631  0.4895
 1501TIP3    H225919   2.417   5.183   1.580 -0.2795 -1.5427 -0.1642
 1502TIP3   OH225920   6.653   6.597   4.734 -0.2700  0.1050 -0.1561
 1502TIP3    H125921   6.602   6.524   4.769  0.8611 -0.3454  0.6319
 1502TIP3    H225922   6.744   6.575   4.755  0.1712  1.3512 -0.6414
 1503TIP3   OH225923   0.238   3.410   6.271 -0.2842 -0.3200  0.1094
 1503TIP3    H125924   0.319   3.363   6.291  0.2143 -0.2383 -1.5196
 1503TIP3    H225925   0.176   3.380   6.337  0.9788 -0.6017  1.2295
 1504TIP3   OH225926   2.126   3.144  15.389 -0.6804  0.1109  0.3577
 1504TIP3    H125927   2.076   3.186  15.319 -0.1288  0.9896  0.4800
 1504TIP3    H225928   2.099   3.190  15.469 -0.1547  0.1657  0.5073
 1505TIP3   OH225929   2.504   2.269   0.672 -0.7277 -0.1538 -0.1086
 1505TIP3    H125930   2.470   2.320   0.599 -0.6928 -0.5016 -0.3698
 1505TIP3    H225931   2.500   2.178   0.642  0.7485 -0.1830 -0.2989
 1506TIP3   OH225932   4.475   1.741   5.613 -0.6292  0.3684 -0.6618
 1506TIP3    H125933   4.506   1.652   5.601  1.4596  1.0370 -0.6374
 1506TIP3    H225934   4.517   1.771   5.694 -0.8023  1.5616 -0.9879
 1507TIP3   OH225935   1.148   4.823  15.326 -0.1015  0.0839  0.4691
 1507TIP3    H125936   1.068   4.826  15.274  1.8425  0.3517 -2.7864
 1507TIP3    H225937   1.149   4.905  15.374 -1.5967  0.2070  0.3413
 1508TIP3   OH225938   3.735   3.334  14.798  0.4938  0.3017 -0.2789
 1508TIP3    H125939   3.712   3.256  14.847  3.4087 -0.7507 -0.4060
 1508TIP3    H225940   3.732   3.405  14.863  0.2968 -0.3411  0.4311
 1509TIP3   OH225941   6.768   2.082   3.645  0.0981 -0.4709  0.7796
 1509TIP3    H125942   6.814   2.077   3.729  1.3736  0.3767  0.1776
 1509TIP3    H225943   6.838   2.080   3.580 -0.8831 -1.3817 -0.2892
 1510TIP3   OH225944   4.011   6.544  12.752  0.2847  0.1395  0.3214
 1510TIP3    H125945   4.053   6.471  12.708 -0.9454 -1.4801  1.6826
 1510TIP3    H225946   3.979   6.600  12.681  2.6944  0.2800 -0.7431
 1511TIP3   OH225947   0.490   5.969   1.077  0.3921 -0.0487 -0.3742
 1511TIP3    H125948   0.419   6.033   1.069  0.9517  0.5573 -0.6631
 1511TIP3    H225949   0.564   6.020   1.111  0.6183 -0.7221  0.1616
 1512TIP3   OH225950   5.935   1.736   0.110  0.0254  0.6741  0.0235
 1512TIP3    H125951   5.878   1.669   0.074  1.1478 -0.3746  0.1351
 1512TIP3    H225952   6.014   1.734   0.055  0.8092  0.6407  1.0975
 1513TIP3   OH225953   5.211   5.432  14.523  0.5018  0.2205  0.1584
 1513TIP3    H125954   5.280   5.450  14.460 -0.3104  0.8439 -0.5754
 1513TIP3    H225955   5.254   5.438  14.608  1.2636  0.9889 -0.2664
 1514TIP3   OH225956   3.801   4.746  15.529 -0.0041  0.3975  0.1901
 1514TIP3    H125957   3.748   4.773  15.604  0.0551  0.3689  0.2422
 1514TIP3    H225958   3.887   4.783  15.546 -0.5405  2.2861 -0.9485
 1515TIP3   OH225959   0.823   1.763   4.754 -0.1338 -0.3703 -0.1411
 1515TIP3    H125960   0.741   1.727   4.788  0.2269 -0.2000  0.9584
 1515TIP3    H225961   0.870   1.688   4.718 -0.5863 -0.5370 -0.3913
 1516TIP3   OH225962   4.175   1.480   2.049 -0.3114 -0.0092 -0.3521
 1516TIP3    H125963   4.267   1.455   2.036 -0.6517 -1.6527  0.1872
 1516TIP3    H225964   4.126   1.422   1.991 -1.1123 -0.4128  0.6847
 1517TIP3   OH225965   1.986   6.331  13.581  0.5250  0.0790  0.3018
 1517TIP3    H125966   1.972   6.423  13.559 -0.1774 -0.5156 -2.0117
 1517TIP3    H225967   1.943   6.320  13.666 -0.7413  1.5477 -0.0924
 1518TIP3   OH225968   0.964   4.075   5.219  0.3201 -0.3909 -0.2344
 1518TIP3    H125969   1.007   4.158   5.241 -1.4940  0.0513  1.9708
 1518TIP3    H225970   1.012   4.010   5.270  0.1216 -0.3187  0.0433
 1519TIP3   OH225971   2.344   1.035   1.798  0.6789  0.2724  0.0686
 1519TIP3    H125972   2.397   0.987   1.862 -0.5822  0.5057  1.3211
 1519TIP3    H225973   2.354   0.986   1.717  1.7976 -0.3949  0.5897
 1520TIP3   OH225974   3.250   6.645   2.675 -0.1436 -0.0260 -0.2652
 1520TIP3    H125975   3.177   6.615   2.731 -0.6110  0.7589 -0.4458
 1520TIP3    H225976   3.208   6.669   2.592  0.1843  1.2911 -0.0696
 1521TIP3   OH225977   4.685   3.584  16.051 -0.5105 -0.2147 -1.1210
 1521TIP3    H125978   4.779   3.590  16.037 -0.5279 -0.5701 -1.4086
 1521TIP3    H225979   4.675   3.536  16.134 -0.4312  0.2433 -0.8474
 1522TIP3   OH225980   2.678   6.049  15.420 -0.2531  0.1649 -0.1292
 1522TIP3    H125981   2.635   6.029  15.337 -0.3688  0.0397 -0.0407
 1522TIP3    H225982   2.607   6.059  15.483 -0.1723  0.3946 -0.0734
 1523TIP3   OH225983   4.970   1.246  10.436 -0.2107 -0.3887 -0.2623
 1523TIP3    H125984   4.942   1.330  10.472  1.9673  1.5089 -2.6822
 1523TIP3    H225985   5.040   1.218  10.494  1.3900  1.2610 -1.3065
 1524TIP3   OH225986   1.805   0.568   4.731 -0.1704  0.3844  0.3921
 1524TIP3    H125987   1.770   0.583   4.819 -1.1241 -0.0646  0.1018
 1524TIP3    H225988   1.729   0.573   4.673  0.5453  1.4072 -0.5115
 1525TIP3   OH225989   3.355   1.005   6.154  0.3269 -0.2788 -0.1900
 1525TIP3    H125990   3.440   0.968   6.182 -0.1170 -0.3552  1.1576
 1525TIP3    H225991   3.290   0.950   6.198 -0.4473 -0.5714 -1.6687
 1526TIP3   OH225992   3.346   3.714   5.202  0.2613  0.0999  0.2885
 1526TIP3    H125993   3.441   3.706   5.196  0.2928  0.5801  0.1338
 1526TIP3    H225994   3.320   3.648   5.267  0.4477 -1.6540 -1.3286
 1527TIP3   OH225995   4.065   6.415   3.594  0.5689 -0.1872  0.4827
 1527TIP3    H125996   4.041   6.365   3.516  0.3022 -0.2812  0.6256
 1527TIP3    H225997   4.065   6.352   3.665  0.9868 -0.1366  0.5311
 1528TIP3   OH225998   5.809   0.811  16.707  0.4375 -0.0249 -0.2987
 1528TIP3    H125999   5.871   0.851  16.767  0.1025 -0.3425  0.2705
 1528TIP3    H226000   5.855   0.807  16.623  0.6184  1.1650 -0.2711
 1529TIP3   OH226001   2.732   4.017  12.425 -0.6089 -0.5853  0.2131
 1529TIP3    H126002   2.804   3.960  12.401  0.0506  0.3675 -0.1335
 1529TIP3    H226003   2.680   3.965  12.487  0.2074 -1.3861  0.2538
 1530TIP3   OH226004   1.242   0.264   2.757 -0.1469  0.2776 -0.7411
 1530TIP3    H126005   1.310   0.286   2.821  0.9562  0.4471 -1.9373
 1530TIP3    H226006   1.175   0.218   2.808  0.0886  1.5258  0.7682
 1531TIP3   OH226007   6.495   4.723  15.889  0.4163 -0.7572  0.1487
 1531TIP3    H126008   6.510   4.726  15.795  1.4822 -0.6552  0.3069
 1531TIP3    H226009   6.427   4.788  15.905 -0.3550 -1.3441 -0.6430
 1532TIP3   OH226010   2.750   6.020  11.408 -0.6407 -0.3144  0.3571
 1532TIP3    H126011   2.832   6.059  11.438 -0.8429  1.0579 -0.7226
 1532TIP3    H226012   2.682   6.076  11.445 -0.9756 -0.1140 -0.5209
 1533TIP3   OH226013   4.782   2.928   2.970 -0.2729 -0.5751  0.4464
 1533TIP3    H126014   4.860   2.945   2.918  0.4694  1.5501  2.1080
 1533TIP3    H226015   4.719   2.994   2.942 -1.0356 -1.4508  0.0337
 1534TIP3   OH226016   4.886   5.143  11.817 -0.6457  0.3699 -0.6349
 1534TIP3    H126017   4.970   5.143  11.771 -0.4382  0.2369 -0.2638
 1534TIP3    H226018   4.862   5.235  11.824 -1.3188  0.3401 -2.1443
 1535TIP3   OH226019   6.095   2.243   1.337  0.1641 -0.8517  0.6560
 1535TIP3    H126020   6.176   2.263   1.385 -0.4620 -1.8224  2.1735
 1535TIP3    H226021   6.062   2.163   1.378 -1.1554 -0.9086 -0.4688
 1536TIP3   OH226022   6.190   3.608   3.823 -0.6650  0.5539  0.4786
 1536TIP3    H126023   6.188   3.547   3.896 -0.2943  0.6374  0.5634
 1536TIP3    H226024   6.184   3.694   3.863 -1.4050  0.5687  0.3433
 1537TIP3   OH226025   2.627   3.143   1.279  0.5578 -0.5923 -0.3948
 1537TIP3    H126026   2.709   3.143   1.231  0.4943  0.5006 -0.5361
 1537TIP3    H226027   2.570   3.202   1.230 -0.1718 -1.0214 -0.0766
 1538TIP3   OH226028   3.961   3.012  11.555  0.1661  0.0064 -0.2444
 1538TIP3    H126029   4.030   2.959  11.595  1.2277  1.2303 -0.3620
 1538TIP3    H226030   4.006   3.059  11.484  0.0055  3.0404  1.4558
 1539TIP3   OH226031   5.503   3.764   1.764  0.7056 -0.0640 -0.1138
 1539TIP3    H126032   5.526   3.763   1.671  0.6146 -0.7030 -0.1377
 1539TIP3    H226033   5.560   3.830   1.802  0.6090  0.3414 -0.6600
 1540TIP3   OH226034   6.097   6.585  14.021  0.0764 -0.2349  0.1748
 1540TIP3    H126035   6.113   6.636  13.941  1.5311 -0.1920  0.4576
 1540TIP3    H226036   6.124   6.496  13.998 -1.8968 -0.8016 -0.1310
 1541TIP3   OH226037   2.659   4.879  13.459 -0.6575 -0.1003 -0.1607
 1541TIP3    H126038   2.650   4.807  13.521 -1.7792 -0.9987 -1.3061
 1541TIP3    H226039   2.699   4.839  13.381 -0.8489  0.6114 -0.6402
 1542TIP3   OH226040   6.206   4.676  12.018 -0.0346 -0.0286  0.3498
 1542TIP3    H126041   6.252   4.699  12.098  0.8129 -1.2970  0.2578
 1542TIP3    H226042   6.233   4.744  11.955 -0.1879  0.5966  0.9473
 1543TIP3   OH226043   5.174   2.027   3.643  0.2562  0.0431  0.1451
 1543TIP3    H126044   5.176   1.955   3.579  2.2985  1.1020 -1.0930
 1543TIP3    H226045   5.081   2.046   3.655 -0.2424  0.4563 -3.3425
 1544TIP3   OH226046   2.031   3.177  10.745  0.1008 -0.0013 -0.5127
 1544TIP3    H126047   2.016   3.249  10.806 -0.4823  1.1859 -1.9929
 1544TIP3    H226048   1.953   3.122  10.753 -0.4256  0.6713 -0.8466
 1545TIP3   OH226049   3.341   5.842   0.224 -0.2477  0.6068 -0.7906
 1545TIP3    H126050   3.419   5.831   0.278 -0.5057 -0.5166 -0.6213
 1545TIP3    H226051   3.368   5.808   0.138 -0.0220  1.8391 -1.2293
 1546TIP3   OH226052   4.904   5.947  12.578  0.6465  0.0703  0.7521
 1546TIP3    H126053   4.955   5.946  12.659 -0.0448 -0.6041  1.1934
 1546TIP3    H226054   4.843   6.019  12.588  1.0387  0.4413  0.5162
 1547TIP3   OH226055   3.787   2.517  13.668 -0.9888 -0.1665  0.2244
 1547TIP3    H126056   3.708   2.550  13.625 -0.6581 -0.0040 -0.2782
 1547TIP3    H226057   3.831   2.466  13.600 -1.5913 -1.8389  1.0449
 1548TIP3   OH226058   2.896   4.033  13.875  0.2395  0.5175 -0.1001
 1548TIP3    H126059   2.945   4.106  13.913  2.3793  0.2892 -2.2077
 1548TIP3    H226060   2.843   4.072  13.806 -1.0205  0.4605  0.8002
 1549TIP3   OH226061   0.855   2.009   6.194  0.6057 -0.3491 -0.6697
 1549TIP3    H126062   0.930   1.953   6.177  1.9868 -0.4725  4.3385
 1549TIP3    H226063   0.885   2.097   6.170  2.1780 -0.4985  0.6102
 1550TIP3   OH226064   0.517   2.242   2.295 -0.6167  0.0678 -0.3811
 1550TIP3    H126065   0.467   2.165   2.268  0.5181 -0.6874 -0.4078
 1550TIP3    H226066   0.507   2.304   2.223  0.4777 -1.0285 -1.5308
 1551TIP3   OH226067   3.958   5.400   2.159 -0.3494 -0.6300  0.1282
 1551TIP3    H126068   3.896   5.329   2.173 -0.1030 -0.9830 -0.5227
 1551TIP3    H226069   3.987   5.424   2.247 -1.7030 -0.1814  0.4823
 1552TIP3   OH226070   5.456   6.658  15.842 -0.3463  0.4683  0.3603
 1552TIP3    H126071   5.531   6.681  15.898  0.0986  1.7889 -0.7046
 1552TIP3    H226072   5.472   6.706  15.760 -3.1463  2.1210  0.6441
 1553TIP3   OH226073   2.503   1.455   4.129 -0.0515 -0.5933  0.0813
 1553TIP3    H126074   2.408   1.457   4.145 -0.3399  0.1986 -1.5321
 1553TIP3    H226075   2.530   1.367   4.155 -0.6946  0.0159  3.1750
 1554TIP3   OH226076   3.666   4.831  13.473  0.0167  0.0864  0.1941
 1554TIP3    H126077   3.752   4.812  13.437  0.1225  1.5700 -0.4057
 1554TIP3    H226078   3.606   4.776  13.422  0.4551  0.1947 -0.4502
 1555TIP3   OH226079   4.762   1.959  15.497 -0.3393  0.3767  0.2466
 1555TIP3    H126080   4.813   1.879  15.506  0.5645  1.0654  1.4438
 1555TIP3    H226081   4.803   2.022  15.557 -0.7755  1.8755 -0.9490
 1556TIP3   OH226082   0.984   1.172  12.734 -0.6978 -0.2170  0.3891
 1556TIP3    H126083   0.996   1.209  12.822 -0.4412  0.3658  0.1107
 1556TIP3    H226084   0.904   1.212  12.702 -0.1987  0.4307 -0.0769
 1557TIP3   OH226085   2.389   0.992  14.765 -0.1064  0.3857 -0.4060
 1557TIP3    H126086   2.294   0.997  14.760 -0.1034 -0.5450 -2.4914
 1557TIP3    H226087   2.414   1.064  14.823 -2.1280 -0.3015  1.4876
 1558TIP3   OH226088   1.765   1.495  16.584 -0.3670  0.4076 -0.5545
 1558TIP3    H126089   1.706   1.485  16.659  0.4173 -0.3699 -0.0157
 1558TIP3    H226090   1.837   1.549  16.618 -0.2346  0.4423 -0.8858
 1559TIP3   OH226091   3.253   6.083   5.816 -0.5915 -0.0317 -0.8098
 1559TIP3    H126092   3.218   5.996   5.837 -3.8506  1.1786 -0.5548
 1559TIP3    H226093   3.299   6.111   5.895 -2.2217 -0.3312  0.2933
 1560TIP3   OH226094   3.167   2.814  16.872  0.0695  0.0181  0.1491
 1560TIP3    H126095   3.153   2.744  16.936  0.4147  0.2423  0.4768
 1560TIP3    H226096   3.095   2.804  16.809 -0.4488 -0.0254  0.7353
 1561TIP3   OH226097   1.762   4.214   1.962 -0.2246  0.0593 -1.0194
 1561TIP3    H126098   1.781   4.205   2.055 -1.3598  1.9894 -0.5394
 1561TIP3    H226099   1.669   4.190   1.954 -0.3570  0.6816 -1.4866
 1562TIP3   OH226100   2.066   1.272  16.502  0.5165 -0.0918  0.6414
 1562TIP3    H126101   2.087   1.210  16.432 -2.0675  1.6199 -1.8607
 1562TIP3    H226102   1.994   1.324  16.467  0.6572  2.4548  3.7256
 1563TIP3   OH226103   2.315   0.747   4.781 -0.1877  0.1707 -0.2988
 1563TIP3    H126104   2.306   0.714   4.691 -1.6013  0.5844 -0.3326
 1563TIP3    H226105   2.293   0.672   4.837  1.6906 -0.3836 -0.2454
 1564TIP3   OH226106   0.985   5.303   0.599  0.1837  0.1012 -1.0164
 1564TIP3    H126107   0.999   5.213   0.630 -3.1721 -0.1983 -0.0179
 1564TIP3    H226108   1.053   5.354   0.644  1.4063 -1.7081 -0.6583
 1565TIP3   OH226109   6.627   5.634  14.058  0.6175 -0.5354  0.3356
 1565TIP3    H126110   6.607   5.542  14.039  0.2744 -1.0067  2.6337
 1565TIP3    H226111   6.719   5.644  14.035  0.2220 -0.9600 -1.5416
 1566TIP3   OH226112   2.647   6.307  12.275 -0.4759  0.1282  0.4384
 1566TIP3    H126113   2.555   6.310  12.249 -0.5810  2.2230  0.8984
 1566TIP3    H226114   2.696   6.311  12.193 -0.8060  0.8122  0.2686
 1567TIP3   OH226115   5.459   6.722   4.958 -0.3526 -0.6158 -0.4859
 1567TIP3    H126116   5.470   6.663   4.884 -1.5205  0.1590 -1.3220
 1567TIP3    H226117   5.536   6.780   4.954 -0.1520 -0.8997 -0.7789
 1568TIP3   OH226118   1.808   3.582  16.677  0.2309  0.2410  0.4013
 1568TIP3    H126119   1.756   3.659  16.653  0.6130 -0.0759 -1.6076
 1568TIP3    H226120   1.875   3.576  16.609  0.5298 -1.5829  0.8073
 1569TIP3   OH226121   6.455   3.312   3.357 -0.3903  0.4531 -0.2050
 1569TIP3    H126122   6.382   3.373   3.363  0.6353  1.5736  2.0460
 1569TIP3    H226123   6.473   3.286   3.447  0.3709 -1.8317 -0.9309
 1570TIP3   OH226124   1.287   1.620   5.244 -0.2483  0.0159 -0.1667
 1570TIP3    H126125   1.372   1.620   5.200  0.3395  0.1565  0.9194
 1570TIP3    H226126   1.226   1.655   5.180  0.9076  1.9653 -0.2705
 1571TIP3   OH226127   1.381   5.613   5.353  0.5030 -0.2851  0.0137
 1571TIP3    H126128   1.458   5.568   5.387  1.0757  1.1868  0.7633
 1571TIP3    H226129   1.331   5.545   5.308  2.0636 -1.3408 -0.1991
 1572TIP3   OH226130   6.172   0.989  12.431 -0.3622 -0.5590 -0.4900
 1572TIP3    H126131   6.092   1.003  12.380  0.3084  1.6783 -1.0424
 1572TIP3    H226132   6.144   0.998  12.522 -0.5586  1.8389 -0.7148
 1573TIP3   OH226133   1.674   4.115   5.454  0.2940 -0.2592 -0.2053
 1573TIP3    H126134   1.706   4.073   5.375  2.7006  0.0056  0.5521
 1573TIP3    H226135   1.618   4.049   5.495 -0.7023 -0.5206 -1.9122
 1574TIP3   OH226136   1.135   1.848   5.331  0.3854 -0.2900 -0.1223
 1574TIP3    H126137   1.204   1.791   5.297  0.2282 -0.4344 -0.2015
 1574TIP3    H226138   1.163   1.868   5.421  0.5209 -0.3615 -0.1485
 1575TIP3   OH226139   6.600   0.986  16.376 -0.0804 -0.2295  0.9491
 1575TIP3    H126140   6.578   0.939  16.456  0.7700  0.3803  1.5568
 1575TIP3    H226141   6.516   1.016  16.342 -0.6106 -1.9141  0.7060
 1576TIP3   OH226142   2.735   2.221   5.744 -0.1924 -0.2734 -0.3112
 1576TIP3    H126143   2.796   2.277   5.696 -0.0629 -2.6407 -3.2209
 1576TIP3    H226144   2.650   2.262   5.732 -0.2073 -0.9410 -3.0089
 1577TIP3   OH226145   0.538   3.702  15.775  0.3555 -0.3206  0.0275
 1577TIP3    H126146   0.476   3.632  15.791 -0.4093  0.4745  0.6843
 1577TIP3    H226147   0.534   3.718  15.681 -0.9136  0.1171  0.1307
 1578TIP3   OH226148   2.062   3.270   5.165 -0.2112 -0.1183  0.2596
 1578TIP3    H126149   1.979   3.263   5.118  0.2849 -3.5868 -0.3962
 1578TIP3    H226150   2.084   3.363   5.161 -2.3373  0.4176 -2.6258
 1579TIP3   OH226151   1.773   3.691  16.108 -0.3493 -0.2192 -0.1391
 1579TIP3    H126152   1.829   3.677  16.031  1.5747  0.2042  1.1018
 1579TIP3    H226153   1.808   3.770  16.149 -1.9117  0.0695  0.7040
 1580TIP3   OH226154   2.044   4.458  14.336  0.3825  0.2065  0.5643
 1580TIP3    H126155   2.102   4.382  14.344  0.0636  0.0360  1.3436
 1580TIP3    H226156   2.072   4.501  14.256  1.5215  0.0720  0.8709
 1581TIP3   OH226157   0.399   2.735  16.764  0.1180  0.3327  0.1670
 1581TIP3    H126158   0.453   2.710  16.689 -0.8757 -0.1109 -0.4347
 1581TIP3    H226159   0.453   2.717  16.840  1.0166  0.4289 -0.4255
 1582TIP3   OH226160   0.080   0.406   2.849  0.0934  0.0024  0.5403
 1582TIP3    H126161   0.101   0.317   2.819 -1.7438  0.2692 -1.8490
 1582TIP3    H226162  -0.016   0.409   2.850  0.0917  2.2430 -0.4331
 1583TIP3   OH226163   5.523   1.035   3.421  0.4006 -0.1269  0.0267
 1583TIP3    H126164   5.540   1.045   3.327 -0.7306 -0.3474 -0.2232
 1583TIP3    H226165   5.598   0.985   3.454  0.1311 -1.3200 -1.0566
 1584TIP3   OH226166   2.805   3.607   2.974 -0.7721 -0.3540 -0.0123
 1584TIP3    H126167   2.715   3.622   3.004 -0.8546  1.3215 -0.9169
 1584TIP3    H226168   2.821   3.679   2.912  0.7405 -1.3813 -0.8706
 1585TIP3   OH226169   0.400   3.821  17.004 -0.4952 -0.1321 -0.7060
 1585TIP3    H126170   0.474   3.830  17.065  0.4870 -1.2813 -1.6867
 1585TIP3    H226171   0.372   3.911  16.988 -0.7401  0.2229  1.3693
 1586TIP3   OH226172   6.536   1.053  11.509 -0.5209  0.0185 -0.0431
 1586TIP3    H126173   6.487   1.066  11.429 -2.8660  0.2946  1.3367
 1586TIP3    H226174   6.628   1.055  11.482 -1.2187  0.0119 -2.6815
 1587TIP3   OH226175   4.301   3.287   2.553 -0.4505 -0.5542  0.3492
 1587TIP3    H126176   4.345   3.333   2.624  0.9246 -0.9748 -0.2013
 1587TIP3    H226177   4.214   3.328   2.549  0.2865  1.1458  0.6779
 1588TIP3   OH226178   1.360   4.112  15.013  0.2208  0.0125 -0.0583
 1588TIP3    H126179   1.456   4.117  15.012  0.2328  0.3355  1.4256
 1588TIP3    H226180   1.332   4.203  15.016 -0.0579 -0.1039  2.2864
 1589TIP3   OH226181   3.264   4.017   3.606 -0.1521 -0.3560  0.0894
 1589TIP3    H126182   3.183   4.025   3.556 -0.9881  0.8288  1.5485
 1589TIP3    H226183   3.334   4.032   3.542 -1.0650 -1.4908 -1.2048
 1590TIP3   OH226184   0.172   4.473  13.697  0.0460 -0.8709 -0.2992
 1590TIP3    H126185   0.261   4.497  13.672 -0.0286  1.3249  1.2161
 1590TIP3    H226186   0.158   4.517  13.781 -2.4703 -1.1034 -0.5110
 1591TIP3   OH226187   0.944   6.718  16.234 -0.7182  0.5315 -0.7879
 1591TIP3    H126188   1.031   6.727  16.274 -1.2409 -1.6128  1.0202
 1591TIP3    H226189   0.961   6.723  16.140  1.3478  0.3338 -0.4894
 1592TIP3   OH226190   4.216   6.464   2.619  0.1948  0.1885  0.2507
 1592TIP3    H126191   4.124   6.471   2.643  0.3120 -0.4273  0.9365
 1592TIP3    H226192   4.259   6.533   2.669  0.2117 -0.0541  0.5785
 1593TIP3   OH226193   2.326   2.846   1.869 -0.3377  0.0667 -0.3031
 1593TIP3    H126194   2.322   2.941   1.853  1.0913  0.0188 -1.1347
 1593TIP3    H226195   2.301   2.836   1.961  0.4020  1.3565  0.0617
 1594TIP3   OH226196   2.876   3.925   5.240 -0.0727 -0.3652  0.0186
 1594TIP3    H126197   2.905   3.923   5.149 -0.0840  2.6383 -0.1645
 1594TIP3    H226198   2.790   3.967   5.236  1.1098  2.4757  1.5366
 1595TIP3   OH226199   3.898   2.696   5.518 -0.2809 -0.1806  0.3134
 1595TIP3    H126200   3.888   2.697   5.613  1.5613 -0.6329  0.5374
 1595TIP3    H226201   3.917   2.787   5.495 -1.6822  0.1201  0.2220
 1596TIP3   OH226202   0.790   4.940  11.842 -0.2511  0.0065 -0.4352
 1596TIP3    H126203   0.864   4.931  11.782  0.1102 -2.5671  0.2685
 1596TIP3    H226204   0.734   5.006  11.801  1.2333  0.2324 -2.2462
 1597TIP3   OH226205   5.769   2.243  16.045 -0.1243 -0.0079 -0.0351
 1597TIP3    H126206   5.815   2.283  16.119  0.9482 -0.3453 -0.4969
 1597TIP3    H226207   5.676   2.251  16.067  0.1910 -0.8182  1.7338
 1598TIP3   OH226208   4.423   3.394   5.446  0.0468 -0.1409  0.4518
 1598TIP3    H126209   4.335   3.374   5.477 -0.6409  0.3833 -1.0612
 1598TIP3    H226210   4.430   3.348   5.362  1.2387 -0.2138  0.5776
 1599TIP3   OH226211   3.541   6.381  15.820  0.4672  0.4262  0.3584
 1599TIP3    H126212   3.596   6.347  15.890  0.7185 -0.1594 -0.1148
 1599TIP3    H226213   3.501   6.303  15.780 -2.0282  0.8804  1.7113
 1600TIP3   OH226214   0.836   6.705   1.047 -0.3825 -0.5466  0.7725
 1600TIP3    H126215   0.777   6.670   1.113 -1.7465 -2.2168 -1.2408
 1600TIP3    H226216   0.910   6.644   1.046  0.0532 -0.0440  1.3021
 1601TIP3   OH226217   4.467   0.350   4.569 -0.4160 -0.2976  0.4733
 1601TIP3    H126218   4.534   0.323   4.632  1.5636 -0.9482 -1.7828
 1601TIP3    H226219   4.408   0.275   4.564 -0.1448 -0.5536  0.9659
 1602TIP3   OH226220   2.915   2.004  12.835 -0.0086  0.3140 -0.1175
 1602TIP3    H126221   3.002   2.040  12.819  0.0645 -0.2974 -1.1922
 1602TIP3    H226222   2.864   2.078  12.867  0.7410  0.8230 -0.0666
 1603TIP3   OH226223   4.914   6.473   3.121 -0.0887  0.7252  0.4013
 1603TIP3    H126224   4.967   6.423   3.184 -2.1433 -0.5654  1.2087
 1603TIP3    H226225   4.863   6.533   3.175 -1.7520 -0.2710  0.0061
 1604TIP3   OH226226   6.126   0.816   3.345  0.4152 -0.2745  0.3961
 1604TIP3    H126227   6.186   0.775   3.407  0.8623 -1.0315 -0.5198
 1604TIP3    H226228   6.183   0.866   3.286 -0.1156  1.7035  1.4879
 1605TIP3   OH226229   5.680   3.507  14.056 -0.0634  0.0811 -0.0388
 1605TIP3    H126230   5.745   3.499  14.126  0.4980  0.6545 -0.4842
 1605TIP3    H226231   5.619   3.435  14.072  0.7905 -0.5994  0.2705
 1606TIP3   OH226232   6.610   2.647   3.114 -0.5081 -0.0359  0.1269
 1606TIP3    H126233   6.609   2.626   3.021  1.5169  0.1765  0.0004
 1606TIP3    H226234   6.548   2.587   3.153 -0.7875 -0.6987 -1.2574
 1607TIP3   OH226235   5.780   1.722  13.815 -0.4333 -0.3191  0.2969
 1607TIP3    H126236   5.872   1.747  13.806 -0.2868  0.3698  2.8524
 1607TIP3    H226237   5.783   1.630  13.841 -0.5140 -0.5341 -0.4516
 1608TIP3   OH226238   0.533   0.666   0.785 -0.2044  0.2010  0.2096
 1608TIP3    H126239   0.539   0.709   0.700 -1.3714  0.5672  0.2975
 1608TIP3    H226240   0.610   0.697   0.833  0.9257 -0.6656 -0.9769
 1609TIP3   OH226241   3.180   4.679  13.348 -0.0549 -0.3969  0.2880
 1609TIP3    H126242   3.125   4.601  13.341 -2.3122  1.0118  1.0046
 1609TIP3    H226243   3.118   4.752  13.338  1.9108  1.3042 -0.0091
 1610TIP3   OH226244   3.877   1.130  14.417 -0.4538  0.3759  0.1989
 1610TIP3    H126245   3.900   1.201  14.477  0.1958 -0.2345  0.6874
 1610TIP3    H226246   3.945   1.064  14.431 -1.4149 -0.6259  0.2313
 1611TIP3   OH226247   1.973   3.324  16.183  0.1299 -0.2096 -0.0310
 1611TIP3    H126248   1.930   3.298  16.265  0.4410  0.1664  0.2595
 1611TIP3    H226249   1.908   3.307  16.115 -0.5349  0.5174  0.4128
 1612TIP3   OH226250   5.287   4.877   4.907 -0.0351  0.9580  0.3150
 1612TIP3    H126251   5.307   4.854   4.998  0.1778  1.9862  0.5374
 1612TIP3    H226252   5.243   4.961   4.912  0.0619  1.0719 -0.5437
 1613TIP3   OH226253   5.535   2.352   1.777 -0.1706 -0.2338  0.6688
 1613TIP3    H126254   5.497   2.325   1.861  0.9501 -0.7147  1.0546
 1613TIP3    H226255   5.506   2.286   1.715 -1.2761  0.3061  0.5953
 1614TIP3   OH226256   2.484   4.577  14.231  0.4507  0.1691 -0.2424
 1614TIP3    H126257   2.564   4.622  14.260  2.9887 -2.5820 -2.4019
 1614TIP3    H226258   2.467   4.512  14.300  0.4609  0.3248 -0.0924
 1615TIP3   OH226259   0.618   1.515  12.599  0.0960 -0.1801 -0.0011
 1615TIP3    H126260   0.561   1.439  12.615 -1.3752  0.8592 -0.1255
 1615TIP3    H226261   0.573   1.588  12.641  2.4686  0.3337  1.8528
 1616TIP3   OH226262   5.153   2.038  13.018 -0.3215 -0.0707 -0.4637
 1616TIP3    H126263   5.142   1.975  13.089  0.1241  0.9640  0.5471
 1616TIP3    H226264   5.160   1.984  12.939  0.4041 -1.3043  0.4080
 1617TIP3   OH226265   1.094   6.532   0.807 -0.1690  0.4427 -0.2022
 1617TIP3    H126266   1.171   6.492   0.767 -0.1872 -1.2976  1.3441
 1617TIP3    H226267   1.047   6.573   0.735  1.4214  0.2147 -1.4077
 1618TIP3   OH226268   5.450   1.974   0.494  0.1340 -0.5193  0.2756
 1618TIP3    H126269   5.392   1.923   0.551 -0.0614 -0.2402  0.3303
 1618TIP3    H226270   5.417   2.064   0.501  1.3795 -0.1253  1.3127
 1619TIP3   OH226271   2.884   0.714  11.684 -0.2992  0.1767 -0.1142
 1619TIP3    H126272   2.868   0.646  11.750  0.2595 -0.1347 -0.2969
 1619TIP3    H226273   2.803   0.717  11.633 -0.2109 -0.5680 -0.3006
 1620TIP3   OH226274   6.063   1.269   5.635  0.0904  0.5488 -0.1607
 1620TIP3    H126275   6.061   1.174   5.650 -0.1873  0.5746 -0.0143
 1620TIP3    H226276   6.156   1.290   5.626  0.0628 -0.1313 -2.8139
 1621TIP3   OH226277   0.334   2.990   3.941  0.1451 -0.1038  0.4354
 1621TIP3    H126278   0.331   3.076   3.982 -0.4897 -0.2451  0.7007
 1621TIP3    H226279   0.340   3.008   3.847  3.9567  0.2598  0.5866
 1622TIP3   OH226280   2.745   1.514  13.818  0.1290 -0.7777 -0.1276
 1622TIP3    H126281   2.662   1.466  13.814 -0.2829 -0.5616  3.3237
 1622TIP3    H226282   2.785   1.500  13.732 -2.9714 -1.7586 -1.5356
 1623TIP3   OH226283   0.952   6.418  16.967 -0.2296 -0.1995  0.2715
 1623TIP3    H126284   0.930   6.509  16.949  0.2835 -0.1998 -0.3907
 1623TIP3    H226285   0.869   6.371  16.958 -0.6750  0.3200  1.5224
 1624TIP3   OH226286   1.462   6.479  14.678 -0.2414  0.4976 -0.4716
 1624TIP3    H126287   1.483   6.451  14.767 -0.7800  0.6634 -0.2849
 1624TIP3    H226288   1.401   6.411  14.647 -0.7298  0.8931 -0.3950
 1625TIP3   OH226289   3.672   5.347  13.792  0.2474  0.3875  0.0747
 1625TIP3    H126290   3.630   5.378  13.872  3.3529  1.1477  1.5622
 1625TIP3    H226291   3.765   5.365  13.805  0.9566  0.1437 -3.5692
 1626TIP3   OH226292   3.170   4.755   1.742  0.1526  1.1908 -0.3496
 1626TIP3    H126293   3.185   4.735   1.650 -2.5389  0.2764 -0.6805
 1626TIP3    H226294   3.174   4.850   1.747  0.2284  1.2536 -1.4230
 1627TIP3   OH226295   4.956   1.359  15.728  0.1306  0.3354 -0.3029
 1627TIP3    H126296   4.899   1.436  15.736  0.1244  0.5087 -1.8282
 1627TIP3    H226297   4.896   1.287  15.708  0.3406  0.3187 -0.8716
 1628TIP3   OH226298   0.587   6.297   4.265 -0.1847 -0.5086 -0.0613
 1628TIP3    H126299   0.543   6.232   4.211  0.7006 -0.1777 -1.2204
 1628TIP3    H226300   0.571   6.380   4.221  0.8063 -0.2687  0.0121
 1629TIP3   OH226301   5.957   0.598  13.683  0.2203 -0.4201 -0.4257
 1629TIP3    H126302   5.930   0.507  13.696  1.3802 -0.7599 -0.2763
 1629TIP3    H226303   5.950   0.611  13.588  0.3530 -0.7730 -0.4878
 1630TIP3   OH226304   1.800   1.107  14.624 -0.3629  0.1807 -0.0925
 1630TIP3    H126305   1.704   1.105  14.628 -0.3999 -0.5067 -0.9614
 1630TIP3    H226306   1.824   1.020  14.593  0.5897  0.1304  0.7501
 1631TIP3   OH226307   4.745   2.484  16.002  0.3545  0.6889 -0.0988
 1631TIP3    H126308   4.662   2.440  16.020 -0.6922  1.2625 -2.9103
 1631TIP3    H226309   4.805   2.413  15.979  0.2776  0.3725  0.6408
 1632TIP3   OH226310   3.285   0.801   0.511  0.2041 -0.0357 -0.9466
 1632TIP3    H126311   3.341   0.816   0.435  1.0618  0.1315 -0.2962
 1632TIP3    H226312   3.265   0.707   0.510  3.4243 -0.8786  0.7378
 1633TIP3   OH226313   3.607   3.573  13.695  0.1002  0.2042  0.5883
 1633TIP3    H126314   3.644   3.485  13.699 -1.5703 -0.6810 -1.3906
 1633TIP3    H226315   3.528   3.569  13.748  0.8359  1.0290  1.8065
 1634TIP3   OH226316   2.793   5.568   4.411  0.0074  0.1599  0.3440
 1634TIP3    H126317   2.714   5.539   4.366 -2.0537 -0.4023  3.9340
 1634TIP3    H226318   2.865   5.537   4.355 -2.2324 -0.4818 -2.4105
 1635TIP3   OH226319   2.249   4.339   0.500 -0.0919 -0.1742  0.4733
 1635TIP3    H126320   2.305   4.330   0.423  0.0138 -1.0530  0.6477
 1635TIP3    H226321   2.298   4.298   0.571 -0.0114  0.9814  1.1140
 1636TIP3   OH226322   3.110   5.920   5.470 -0.6976  0.1315 -0.2497
 1636TIP3    H126323   3.046   5.907   5.541 -0.4505  0.2328 -0.0039
 1636TIP3    H226324   3.134   5.831   5.443 -2.0714  0.0796 -1.3887
 1637TIP3   OH226325   3.121   0.514   3.322 -0.1319 -0.7058  0.1826
 1637TIP3    H126326   3.050   0.477   3.374 -0.7582  0.3036  0.0610
 1637TIP3    H226327   3.079   0.578   3.265  0.7871 -0.5543 -0.3465
 1638TIP3   OH226328   4.449   5.230  13.259 -0.5322  0.5355 -0.2162
 1638TIP3    H126329   4.421   5.139  13.261 -0.5166  0.5020 -1.1169
 1638TIP3    H226330   4.524   5.231  13.200  0.0196  0.9899  0.4805
 1639TIP3   OH226331   3.205   5.583  10.810 -0.1139  0.5481  0.1926
 1639TIP3    H126332   3.119   5.611  10.777 -0.3126 -1.2072 -0.8889
 1639TIP3    H226333   3.267   5.639  10.764 -0.6574  2.3839  1.5693
 1640TIP3   OH226334   1.090   0.893   3.365  0.0375 -0.1026 -0.2839
 1640TIP3    H126335   1.025   0.872   3.432 -0.7350  1.7163 -0.3972
 1640TIP3    H226336   1.093   0.815   3.309  0.8315 -1.7336  1.8903
 1641TIP3   OH226337   6.761   4.929  15.801 -0.1166  0.6607  0.0885
 1641TIP3    H126338   6.717   5.005  15.841  1.5526  1.1828  1.0157
 1641TIP3    H226339   6.840   4.966  15.762 -0.1591 -0.3556 -0.9761
 1642TIP3   OH226340   5.767   4.627  11.688 -0.7521  0.7273  0.8577
 1642TIP3    H126341   5.711   4.646  11.764 -0.1802  0.5230  1.3358
 1642TIP3    H226342   5.856   4.641  11.720 -0.4809  0.1664  0.3574
 1643TIP3   OH226343   1.913   5.527  11.493 -0.1209  0.0962  0.3103
 1643TIP3    H126344   1.869   5.523  11.408 -0.1434 -1.2740  0.3673
 1643TIP3    H226345   1.893   5.443  11.535 -0.9036  1.1222  2.0841
 1644TIP3   OH226346   3.423   6.398  13.473 -0.0616  0.4146  0.0675
 1644TIP3    H126347   3.476   6.476  13.487 -0.5106  0.3214  2.8487
 1644TIP3    H226348   3.486   6.330  13.451  0.4943  1.1662 -0.7598
 1645TIP3   OH226349   5.440   4.550   4.973 -0.9855 -0.7591 -0.0748
 1645TIP3    H126350   5.435   4.609   5.048  0.1194 -1.6479  0.7433
 1645TIP3    H226351   5.445   4.608   4.897 -2.0097  0.1624  0.5313
 1646TIP3   OH226352   1.331   6.017  12.662  0.1437  0.8384  0.2565
 1646TIP3    H126353   1.320   6.111  12.649 -0.6969  0.9108  1.3264
 1646TIP3    H226354   1.297   6.002  12.750  0.5780 -0.4186  0.2185
 1647TIP3   OH226355   1.584   4.221   1.397  0.3240  0.2122  0.2523
 1647TIP3    H126356   1.670   4.240   1.360  0.0399 -1.1893 -1.2454
 1647TIP3    H226357   1.597   4.221   1.492  1.9345  0.1571  0.0499
 1648TIP3   OH226358   2.724   2.718  15.636  0.0949 -0.2679  0.0963
 1648TIP3    H126359   2.646   2.667  15.614 -0.6817 -0.0522  2.1424
 1648TIP3    H226360   2.707   2.805  15.602 -0.2666 -0.3886 -0.0346
 1649TIP3   OH226361   1.056   4.182  11.788  0.1053 -0.0708  0.1081
 1649TIP3    H126362   1.053   4.181  11.884 -0.8814  0.8221  0.1032
 1649TIP3    H226363   1.115   4.254  11.767 -0.7677  0.6552  0.0596
 1650TIP3   OH226364   4.972   1.850  14.833 -0.1350 -0.0445 -0.3312
 1650TIP3    H126365   4.935   1.915  14.774  0.3687 -0.1166 -0.7306
 1650TIP3    H226366   4.943   1.877  14.920  0.7526  1.2049 -0.3964
 1651TIP3   OH226367   4.040   4.331   5.248 -0.4199 -0.1243 -0.2769
 1651TIP3    H126368   4.056   4.241   5.274  1.3323  0.7325  1.9773
 1651TIP3    H226369   4.096   4.345   5.171  2.7767  0.1152  1.8821
 1652TIP3   OH226370   6.464   2.660   4.127  0.3857  0.1299  0.1636
 1652TIP3    H126371   6.524   2.698   4.063 -0.3463  1.9686  0.4955
 1652TIP3    H226372   6.511   2.585   4.162  1.8153  0.5519 -0.7540
 1653TIP3   OH226373   5.813   1.278   1.209  0.2267 -0.3041 -0.0031
 1653TIP3    H126374   5.768   1.252   1.290 -0.0523 -0.2970 -0.1564
 1653TIP3    H226375   5.874   1.346   1.237  1.0651 -1.2051  0.4243
 1654TIP3   OH226376   3.845   3.629   5.789 -0.6190  0.3585 -0.2153
 1654TIP3    H126377   3.751   3.642   5.782 -0.9473 -1.4188  0.4440
 1654TIP3    H226378   3.878   3.712   5.823 -2.0662  0.6941  0.4335
 1655TIP3   OH226379   2.477   0.102   0.416  0.4604  0.3115 -0.3324
 1655TIP3    H126380   2.533   0.148   0.478 -0.6817  0.0662  0.9362
 1655TIP3    H226381   2.466   0.163   0.344  0.4312  1.3048  0.4893
 1656TIP3   OH226382   1.530   4.548  15.513 -0.0704  0.3121 -0.0802
 1656TIP3    H126383   1.562   4.575  15.426 -0.4727 -0.3487 -0.4430
 1656TIP3    H226384   1.464   4.613  15.535  0.4810  0.8480  0.0216
 1657TIP3   OH226385   3.966   4.163  16.917  0.5818  0.1868  0.4744
 1657TIP3    H126386   3.872   4.146  16.910  0.4722  0.1375  1.8162
 1657TIP3    H226387   3.974   4.223  16.990  1.5719  0.5319  0.0941
 1658TIP3   OH226388   3.517   0.611  16.378 -0.5340 -0.5276 -0.1145
 1658TIP3    H126389   3.508   0.516  16.388  0.5890 -1.0270 -2.8722
 1658TIP3    H226390   3.487   0.647  16.461 -2.9635 -3.1727  0.3105
 1659TIP3   OH226391   2.786   3.141  13.882  0.0471  0.1243 -0.0739
 1659TIP3    H126392   2.869   3.158  13.838 -0.7208  0.6699 -1.4053
 1659TIP3    H226393   2.754   3.227  13.909  0.5094 -0.2086  1.6191
 1660TIP3   OH226394   6.503   2.607  13.587  0.3255 -0.2031  0.2423
 1660TIP3    H126395   6.594   2.637  13.582 -0.5821  3.0878  0.8521
 1660TIP3    H226396   6.483   2.608  13.680 -0.0976 -1.9645  0.2040
 1661TIP3   OH226397   2.786   6.568   4.698  0.0620  0.1277 -0.5260
 1661TIP3    H126398   2.820   6.576   4.609  1.8285 -2.2620 -0.1688
 1661TIP3    H226399   2.842   6.625   4.750 -0.1443  0.5377 -0.7480
 1662TIP3   OH226400   1.374   5.344   4.496  0.0086 -0.5718 -0.8357
 1662TIP3    H126401   1.312   5.391   4.440  0.2034 -1.0345 -1.4482
 1662TIP3    H226402   1.345   5.253   4.494 -1.2083 -0.3232  1.4710
 1663TIP3   OH226403   2.521   5.401  11.307 -0.2645  0.2343 -0.1461
 1663TIP3    H126404   2.476   5.418  11.390  1.0025  0.6356  0.4810
 1663TIP3    H226405   2.516   5.306  11.297 -2.1985  0.3439 -0.6733
 1664TIP3   OH226406   3.316   3.527   5.720 -0.0147  0.2487 -0.6691
 1664TIP3    H126407   3.409   3.508   5.706 -0.0186  0.4094 -0.9304
 1664TIP3    H226408   3.316   3.600   5.781  0.0798  1.2103 -1.7782
 1665TIP3   OH226409   6.176   1.653  14.327 -0.0745 -0.2467  0.2191
 1665TIP3    H126410   6.163   1.559  14.335  1.4534 -0.4727  0.4192
 1665TIP3    H226411   6.263   1.662  14.287 -0.7749  1.0747 -1.0927
 1666TIP3   OH226412   3.271   2.398   2.860  0.1349  0.0080  0.0302
 1666TIP3    H126413   3.328   2.438   2.794 -0.3418 -0.1299 -0.4681
 1666TIP3    H226414   3.186   2.438   2.846 -0.1637 -0.6185  0.0287
 1667TIP3   OH226415   6.448   0.386  14.512 -0.2981 -0.2742 -0.0327
 1667TIP3    H126416   6.415   0.370  14.423  0.0447  2.4107 -0.7580
 1667TIP3    H226417   6.519   0.324  14.524 -0.9075 -1.2590 -1.2925
 1668TIP3   OH226418   3.059   0.495   1.662  0.4103  0.1776  0.4381
 1668TIP3    H126419   3.134   0.530   1.614 -1.1546  0.6906 -1.7363
 1668TIP3    H226420   2.985   0.549   1.636 -1.3820 -2.3477 -0.1500
 1669TIP3   OH226421   5.141   4.296  12.317 -0.3444 -0.1608  0.2520
 1669TIP3    H126422   5.055   4.333  12.337 -0.2920  1.1266 -1.6658
 1669TIP3    H226423   5.193   4.315  12.395 -1.9482 -1.7426  1.8370
 1670TIP3   OH226424   4.513   0.053   0.780  0.1355  0.1118 -0.4808
 1670TIP3    H126425   4.536   0.069   0.688  0.1461  1.8782 -0.2021
 1670TIP3    H226426   4.423   0.086   0.788 -0.1687 -0.7948 -0.0388
 1671TIP3   OH226427   1.903   3.173   4.188 -0.0669  0.4860  0.4913
 1671TIP3    H126428   1.894   3.079   4.169 -0.9282  0.4171  1.1882
 1671TIP3    H226429   1.950   3.176   4.271  1.0588  0.7220 -0.1266
 1672TIP3   OH226430   5.887   6.103  14.628  0.1669  0.0972  0.7239
 1672TIP3    H126431   5.833   6.163  14.680 -0.8091 -1.1771  1.2313
 1672TIP3    H226432   5.850   6.108  14.540 -1.7509 -1.7699  1.3427
 1673TIP3   OH226433   4.907   4.959  16.944 -0.3106 -0.3523 -0.1505
 1673TIP3    H126434   4.870   4.985  17.028 -2.3920 -0.6898 -0.9045
 1673TIP3    H226435   4.966   4.887  16.965  1.3445  1.3279  1.3103
 1674TIP3   OH226436   5.599   4.257   5.675 -0.1471  0.7335  0.7123
 1674TIP3    H126437   5.554   4.327   5.722 -3.3994 -0.2774 -0.6073
 1674TIP3    H226438   5.612   4.189   5.740  2.3569  2.1432  1.8197
 1675TIP3   OH226439   1.795   2.641  15.327  0.2308  0.1287 -1.0966
 1675TIP3    H126440   1.765   2.729  15.347 -0.8537  0.2345 -2.9954
 1675TIP3    H226441   1.886   2.639  15.358 -0.0382  1.5843 -0.1600
 1676TIP3   OH226442   5.447   3.167  13.858  0.7219 -0.1017 -0.4762
 1676TIP3    H126443   5.376   3.110  13.827  1.3113 -1.9175  1.2474
 1676TIP3    H226444   5.414   3.256  13.846 -0.8651 -0.8344 -1.8947
 1677TIP3   OH226445   0.076   2.434  17.023 -0.1166  0.3838  0.2611
 1677TIP3    H126446   0.000   2.381  16.998 -1.7392  2.4907  0.4765
 1677TIP3    H226447   0.141   2.418  16.954 -1.1470 -0.6557 -0.4933
 1678TIP3   OH226448   1.185   6.032  16.004  1.1496 -0.1028  0.1388
 1678TIP3    H126449   1.162   6.014  16.096  1.0908 -1.0897 -0.0600
 1678TIP3    H226450   1.232   5.954  15.976  1.1515  0.1901 -0.6824
 1679TIP3   OH226451   4.016   1.602  12.070 -0.4293 -0.0085  0.1357
 1679TIP3    H126452   4.002   1.508  12.061 -1.5815  0.2860 -1.6943
 1679TIP3    H226453   3.984   1.623  12.158  1.8200 -1.5925  1.4236
 1680TIP3   OH226454   5.962   6.506  11.607 -0.1859 -0.0985 -0.0225
 1680TIP3    H126455   5.936   6.418  11.579 -1.5534 -0.0014  0.7975
 1680TIP3    H226456   6.031   6.491  11.671  1.0309 -0.4470 -1.3710
 1681TIP3   OH226457   4.535   2.576  13.390  0.5768 -0.3654  0.5547
 1681TIP3    H126458   4.477   2.626  13.447  1.5046 -0.3439  1.5210
 1681TIP3    H226459   4.495   2.581  13.304  0.2540  1.4372  0.7689
 1682TIP3   OH226460   1.547   4.616  12.621 -0.0652 -0.4589 -0.1768
 1682TIP3    H126461   1.538   4.701  12.664  0.4208  0.2020 -1.3283
 1682TIP3    H226462   1.641   4.600  12.621 -0.1458 -0.9265 -0.0993
 1683TIP3   OH226463   5.314   3.289  15.941  0.4697 -0.4146  0.0472
 1683TIP3    H126464   5.379   3.318  15.877 -0.1537 -0.6565 -0.7101
 1683TIP3    H226465   5.300   3.196  15.921 -2.3775  0.2914 -1.9074
 1684TIP3   OH226466   4.770   3.208  12.408 -0.0070 -0.0716  0.0102
 1684TIP3    H126467   4.764   3.266  12.484 -0.2219 -0.3477  0.2021
 1684TIP3    H226468   4.859   3.173  12.412 -0.2281 -0.5904  0.5026
 1685TIP3   OH226469   4.021   4.830  14.686 -0.5201 -0.4705 -0.2896
 1685TIP3    H126470   3.926   4.838  14.676 -0.8803 -2.8813  0.6183
 1685TIP3    H226471   4.033   4.797  14.775  1.1985 -0.0674 -0.3447
 1686TIP3   OH226472   5.739   3.529   2.266  0.0304  0.5410 -0.0988
 1686TIP3    H126473   5.768   3.603   2.319 -2.5400  1.9454 -0.4604
 1686TIP3    H226474   5.772   3.547   2.178 -0.1667  1.0383 -0.0767
 1687TIP3   OH226475   3.939   5.351   1.518  0.4621  0.4558  0.0922
 1687TIP3    H126476   3.998   5.280   1.494  0.1334  0.5573 -1.0954
 1687TIP3    H226477   3.996   5.425   1.537  0.7608  0.1708  0.3213
 1688TIP3   OH226478   6.243   5.525   2.633 -0.3846  0.4806 -0.0696
 1688TIP3    H126479   6.168   5.517   2.691  0.2603  1.0642  0.8852
 1688TIP3    H226480   6.270   5.617   2.642  0.2104  0.3761 -0.6853
 1689TIP3   OH226481   6.739   0.193   3.611 -0.3323  0.0472  0.1451
 1689TIP3    H126482   6.790   0.113   3.626 -1.2134 -0.6422 -0.4314
 1689TIP3    H226483   6.692   0.176   3.530 -0.2587  1.3101 -0.1859
 1690TIP3   OH226484   5.061   5.942   2.301  0.0319  0.0784  0.2195
 1690TIP3    H126485   4.974   5.943   2.261  0.4243  1.0068 -0.6485
 1690TIP3    H226486   5.044   5.931   2.395 -1.1057  1.6808  0.2428
 1691TIP3   OH226487   5.490   1.443   0.828 -0.6133  0.3454 -0.0784
 1691TIP3    H126488   5.487   1.493   0.909  0.8798 -1.0864  0.9130
 1691TIP3    H226489   5.539   1.364   0.849  1.4518  0.7239 -2.7664
 1692TIP3   OH226490   0.190   3.869   5.412  0.9835 -0.3930 -0.1797
 1692TIP3    H126491   0.172   3.813   5.336  1.9982 -1.4445  0.3088
 1692TIP3    H226492   0.238   3.812   5.472 -0.5199  0.1501  1.6390
 1693TIP3   OH226493   5.347   4.706   2.069 -0.1992 -0.0118 -0.0545
 1693TIP3    H126494   5.378   4.704   2.160  0.2390 -0.7421 -0.2135
 1693TIP3    H226495   5.331   4.614   2.047  0.6411  0.0632 -1.0385
 1694TIP3   OH226496   6.493   6.210   3.777 -0.4294 -0.5742  0.5169
 1694TIP3    H126497   6.489   6.120   3.811 -2.0972 -0.3581  0.9535
 1694TIP3    H226498   6.404   6.229   3.749 -0.2772  1.2388  1.1597
 1695TIP3   OH226499   1.615   3.989   3.600 -0.5252  0.5438  0.2371
 1695TIP3    H126500   1.693   4.032   3.564 -0.4230  0.5146  0.4202
 1695TIP3    H226501   1.547   4.057   3.596 -1.0700 -0.0721 -1.8773
 1696TIP3   OH226502   4.678   5.226   4.098  0.4344 -0.8631  0.6431
 1696TIP3    H126503   4.689   5.220   4.193  1.1297 -1.1920  0.5430
 1696TIP3    H226504   4.621   5.152   4.076  2.2411 -2.2914  0.5034
 1697TIP3   OH226505   2.515   6.387  12.495 -0.1424 -0.0479  0.6914
 1697TIP3    H126506   2.570   6.327  12.445 -1.2156 -0.7739  0.3423
 1697TIP3    H226507   2.571   6.418  12.566  0.9931 -0.0310 -0.1879
 1698TIP3   OH226508   5.577   6.624   4.727 -0.3965  0.1960  0.4585
 1698TIP3    H126509   5.586   6.529   4.715 -0.3838  0.0892  1.3140
 1698TIP3    H226510   5.570   6.658   4.637 -1.1728 -0.6887  0.1638
 1699TIP3   OH226511   4.825   6.783  15.464  0.1826 -0.1307 -0.9040
 1699TIP3    H126512   4.809   6.790  15.558  3.0659  0.2050 -0.3505
 1699TIP3    H226513   4.786   6.862  15.427  1.1978  1.0501  0.4063
 1700TIP3   OH226514   1.034   5.316  15.793  0.2276  0.1028 -0.9069
 1700TIP3    H126515   0.970   5.265  15.743 -1.9995  1.9196 -0.1074
 1700TIP3    H226516   1.058   5.388  15.735  1.8886 -0.7550 -1.3297
 1701TIP3   OH226517   5.763   6.119  12.080 -0.8918  0.0779 -0.6089
 1701TIP3    H126518   5.779   6.035  12.123 -1.2786  0.0037 -0.6083
 1701TIP3    H226519   5.817   6.116  12.001  0.1971  0.4108  0.0993
 1702TIP3   OH226520   4.708   4.226  13.780  0.1975 -0.0658  0.1610
 1702TIP3    H126521   4.622   4.191  13.802  0.2684  0.4021  1.2276
 1702TIP3    H226522   4.748   4.158  13.725 -0.6967 -0.4509 -0.0311
 1703TIP3   OH226523   2.903   6.118  13.039 -0.4803 -0.0936  0.1669
 1703TIP3    H126524   2.820   6.100  12.996 -1.1001  2.0527  0.3645
 1703TIP3    H226525   2.888   6.096  13.131 -2.1007  3.4851  0.9475
 1704TIP3   OH226526   2.731   3.033   0.924 -0.1922  0.3544  0.4744
 1704TIP3    H126527   2.762   3.069   1.007 -1.1029 -1.3511  1.6330
 1704TIP3    H226528   2.674   2.960   0.950 -1.2073  0.3174 -1.6463
 1705TIP3   OH226529   0.547   1.637   5.157 -0.1623 -0.2062 -0.0978
 1705TIP3    H126530   0.591   1.670   5.078  0.4150  1.3397  0.8175
 1705TIP3    H226531   0.619   1.611   5.215 -0.4394  1.1331  0.9103
 1706TIP3   OH226532   3.852   5.165  10.954 -0.2698 -0.2070 -0.2621
 1706TIP3    H126533   3.765   5.139  10.923  0.5974 -2.9050 -0.7628
 1706TIP3    H226534   3.851   5.260  10.953 -2.4255 -0.1425 -2.5455
 1707TIP3   OH226535   0.756   1.612   5.375  0.1267  0.0848 -0.2726
 1707TIP3    H126536   0.713   1.670   5.438  0.3319  1.3499 -1.2536
 1707TIP3    H226537   0.844   1.600   5.411  0.2620  0.8425 -0.3289
 1708TIP3   OH226538   6.529   5.971   3.883 -0.0936  0.2548 -0.0750
 1708TIP3    H126539   6.569   5.919   3.813 -1.5185 -1.3718  0.2565
 1708TIP3    H226540   6.533   5.915   3.960  0.4393  1.5882  0.9094
 1709TIP3   OH226541   3.850   2.989  13.237 -0.5134 -0.2183 -0.1332
 1709TIP3    H126542   3.770   2.943  13.263 -0.0794 -2.2645 -2.0581
 1709TIP3    H226543   3.904   2.990  13.317 -2.9420  2.6762  1.6957
 1710TIP3   OH226544   6.264   2.713  12.644 -0.0502 -0.5756 -0.8491
 1710TIP3    H126545   6.311   2.796  12.639 -1.0226  0.0032 -0.5333
 1710TIP3    H226546   6.240   2.694  12.553 -0.0313 -0.3969 -0.8917
 1711TIP3   OH226547   1.390   4.608   4.862 -0.2788 -0.0404 -0.0410
 1711TIP3    H126548   1.411   4.701   4.859 -1.1712  0.1842  0.1934
 1711TIP3    H226549   1.425   4.578   4.946 -1.5641  0.5111  0.7223
 1712TIP3   OH226550   2.595   0.668   3.805 -0.5323  0.1645  0.0436
 1712TIP3    H126551   2.593   0.640   3.713  0.8256 -0.0142  0.0478
 1712TIP3    H226552   2.584   0.587   3.855  0.7838 -0.0365  0.0368
 1713TIP3   OH226553   4.409   6.340  17.097 -0.6379 -0.5299 -0.5203
 1713TIP3    H126554   4.494   6.324  17.055 -0.2990 -2.1435  0.6695
 1713TIP3    H226555   4.408   6.434  17.114  0.6986 -0.4055 -1.0263
 1714TIP3   OH226556   5.040   0.770   4.973 -1.0839  0.2719 -0.3318
 1714TIP3    H126557   5.033   0.865   4.984 -0.9621  0.2012  0.4561
 1714TIP3    H226558   5.045   0.757   4.879  0.5432  1.1805 -0.4169
 1715TIP3   OH226559   5.459   0.879  14.318  0.2229 -0.0454 -0.4609
 1715TIP3    H126560   5.535   0.899  14.372 -0.1838 -1.9256  0.9407
 1715TIP3    H226561   5.491   0.815  14.254  0.3381  0.9725 -1.4435
 1716TIP3   OH226562   6.753   1.497  16.055 -0.1980  0.4970  0.1925
 1716TIP3    H126563   6.678   1.505  15.997 -1.2596 -1.4977  1.2034
 1716TIP3    H226564   6.801   1.579  16.043 -0.2504  0.1489 -3.5589
 1717TIP3   OH226565   1.112   4.407  16.201  0.7339 -0.6903  0.4625
 1717TIP3    H126566   1.123   4.466  16.276 -2.2361  1.1153 -0.3530
 1717TIP3    H226567   1.152   4.454  16.128 -0.0871 -0.4690  0.1466
 1718TIP3   OH226568   0.871   6.408  12.773 -0.2628  0.1005  0.0136
 1718TIP3    H126569   0.904   6.321  12.752  1.8152  0.8839 -0.2216
 1718TIP3    H226570   0.776   6.399  12.771 -0.1199 -2.3753  0.9565
 1719TIP3   OH226571   3.905   4.375   5.628 -0.6458 -0.1408 -0.0828
 1719TIP3    H126572   3.864   4.311   5.686  1.5263 -1.1059  0.4671
 1719TIP3    H226573   3.998   4.374   5.652 -0.0435  1.0356 -2.1098
 1720TIP3   OH226574   0.991   4.729   4.464 -0.2212  0.1825  0.0264
 1720TIP3    H126575   0.973   4.666   4.394 -0.3776  0.3926 -0.1256
 1720TIP3    H226576   0.916   4.721   4.523 -0.5905  0.7287 -0.3639
 1721TIP3   OH226577   4.611   1.725   3.711 -0.3745 -0.4758 -0.7489
 1721TIP3    H126578   4.700   1.761   3.703 -0.6680  0.5974  0.4950
 1721TIP3    H226579   4.564   1.765   3.637 -0.6359  1.6436  0.4840
 1722TIP3   OH226580   3.647   2.279  16.050 -0.1360 -0.9574 -0.2672
 1722TIP3    H126581   3.673   2.213  16.113 -3.0666 -2.2299 -0.2505
 1722TIP3    H226582   3.667   2.240  15.965  2.0010 -0.0291 -0.2787
 1723TIP3   OH226583   0.793   0.470   1.623 -0.4863  0.1584 -0.0598
 1723TIP3    H126584   0.781   0.380   1.652 -1.0144  0.0502 -0.5947
 1723TIP3    H226585   0.745   0.476   1.541 -1.0718  1.1191  0.3212
 1724TIP3   OH226586   4.028   0.131  16.380  0.2517  0.0448  0.8355
 1724TIP3    H126587   4.022   0.186  16.458  0.4848  0.0943  0.8176
 1724TIP3    H226588   3.966   0.170  16.318  0.5504  0.3996  0.7561
 1725TIP3   OH226589   4.995   5.627   2.091  0.5917 -0.2829 -0.2250
 1725TIP3    H126590   5.071   5.675   2.124  0.4693 -0.6334  0.6165
 1725TIP3    H226591   4.988   5.550   2.149  0.3468 -0.9212 -1.0777
 1726TIP3   OH226592   3.380   0.252  12.945  0.1287 -0.4227  0.9101
 1726TIP3    H126593   3.332   0.230  13.025 -1.5196  1.8916  0.6433
 1726TIP3    H226594   3.464   0.285  12.976 -0.5620  0.6224  1.7261
 1727TIP3   OH226595   0.063   2.535   5.419 -0.2260  0.4313 -0.4607
 1727TIP3    H126596  -0.030   2.515   5.429 -0.0624  0.5087  1.6420
 1727TIP3    H226597   0.107   2.481   5.485  1.0766  1.4408 -0.4581
 1728TIP3   OH226598   0.157   4.387   6.153 -0.0608 -0.5324  0.1380
 1728TIP3    H126599   0.090   4.446   6.187 -1.5705 -0.8406 -2.0393
 1728TIP3    H226600   0.211   4.365   6.229 -0.1841  2.6031  1.2798
 1729TIP3   OH226601   0.812   2.220   4.691 -0.9451  0.3262 -0.0548
 1729TIP3    H126602   0.826   2.215   4.785 -1.1757 -1.0824 -0.0793
 1729TIP3    H226603   0.725   2.182   4.677 -0.0366 -1.5344 -1.0294
 1730TIP3   OH226604   1.388   4.868   0.436  0.0748  0.8651 -0.1662
 1730TIP3    H126605   1.340   4.803   0.385  0.6507  0.6284 -0.4111
 1730TIP3    H226606   1.332   4.945   0.435 -0.8978  0.1966  0.6335
 1731TIP3   OH226607   4.786   0.131   5.101 -0.0783  0.7346 -0.3608
 1731TIP3    H126608   4.693   0.153   5.104 -0.1731  0.3466 -0.4765
 1731TIP3    H226609   4.825   0.199   5.045 -0.7291 -0.6054 -2.5758
 1732TIP3   OH226610   6.691   4.707  13.652 -0.9016 -0.3028 -0.1476
 1732TIP3    H126611   6.693   4.612  13.662 -2.0057 -0.2559  0.7768
 1732TIP3    H226612   6.616   4.735  13.706  0.3835  1.2302  0.9441
 1733TIP3   OH226613   6.500   4.321   0.896 -0.1042 -0.0542 -0.0724
 1733TIP3    H126614   6.447   4.399   0.911 -0.6018 -0.2778 -0.6332
 1733TIP3    H226615   6.517   4.285   0.983 -1.4913 -0.3891  0.0763
 1734TIP3   OH226616   2.644   4.442  11.376 -0.1308  0.1663  0.5536
 1734TIP3    H126617   2.576   4.504  11.348  0.5391  1.4150  1.5682
 1734TIP3    H226618   2.642   4.447  11.472 -0.0936 -1.4558  0.6642
 1735TIP3   OH226619   0.391   3.175  12.632  0.2494  0.0937 -0.4902
 1735TIP3    H126620   0.462   3.197  12.571  0.1232 -0.3429 -0.7995
 1735TIP3    H226621   0.312   3.210  12.590  0.4146  1.7114  0.4481
 1736TIP3   OH226622   3.530   2.440  13.963  0.0148  0.0633  0.5213
 1736TIP3    H126623   3.512   2.458  13.870 -2.1885  2.1279  1.2601
 1736TIP3    H226624   3.626   2.431  13.967  0.3203  1.3827 -1.7245
 1737TIP3   OH226625   6.076   3.987   5.812 -0.2750  0.2619 -0.6081
 1737TIP3    H126626   5.981   3.992   5.826 -0.1740 -0.5263  0.4048
 1737TIP3    H226627   6.089   4.022   5.724 -1.4403  0.9735 -0.5132
 1738TIP3   OH226628   0.938   1.212  13.697 -0.5381 -0.5611  0.3706
 1738TIP3    H126629   1.022   1.258  13.703  0.5299 -2.0399 -1.6222
 1738TIP3    H226630   0.881   1.272  13.649  0.3961 -0.6951 -0.9842
 1739TIP3   OH226631   0.736   0.900   3.302 -0.3196 -0.2746 -0.1408
 1739TIP3    H126632   0.793   0.911   3.378 -0.9699  0.0037  0.3084
 1739TIP3    H226633   0.671   0.836   3.330 -0.7770  0.1019 -0.3448
 1740TIP3   OH226634   4.171   0.286  12.541  0.6691  0.1013 -0.6024
 1740TIP3    H126635   4.264   0.307  12.551  0.1690  1.3184  2.2967
 1740TIP3    H226636   4.127   0.338  12.607 -2.0490 -1.0124 -1.4001
 1741TIP3   OH226637   4.722   3.008  11.501 -0.1326  0.6375 -0.0691
 1741TIP3    H126638   4.708   3.081  11.562  0.3244  0.7622 -0.1131
 1741TIP3    H226639   4.779   3.044  11.433 -0.9860  0.6345 -0.8145
 1742TIP3   OH226640   3.076   4.530   3.573 -0.4707 -0.1082 -0.2487
 1742TIP3    H126641   3.059   4.576   3.656 -2.7830 -1.3170  0.0361
 1742TIP3    H226642   3.044   4.441   3.589  1.2928 -1.0514 -1.6917
 1743TIP3   OH226643   6.091   6.400   4.200  0.1457  0.0864  0.0391
 1743TIP3    H126644   6.120   6.367   4.285 -0.4310 -0.4901  0.0148
 1743TIP3    H226645   6.162   6.376   4.140 -0.7739 -2.2304 -0.2175
 1744TIP3   OH226646   2.475   3.306  16.489  0.2543 -0.5929  0.2346
 1744TIP3    H126647   2.513   3.233  16.441  1.1777  0.4853 -0.7442
 1744TIP3    H226648   2.383   3.284  16.498  0.3444 -1.4665 -0.8226
 1745TIP3   OH226649   4.087   4.910  13.572 -0.4466  0.1688  0.0718
 1745TIP3    H126650   4.123   4.878  13.654  0.7545 -3.2713 -1.5810
 1745TIP3    H226651   4.020   4.974  13.597  0.9262  0.4157  3.5726
 1746TIP3   OH226652   3.223   6.518  15.193 -0.0447 -0.2101 -0.1022
 1746TIP3    H126653   3.173   6.600  15.197 -1.4776 -1.1011  1.8010
 1746TIP3    H226654   3.314   6.546  15.187 -0.6024  1.4734 -3.1099
 1747TIP3   OH226655   5.897   3.610  15.858 -0.6881 -0.1643  0.4237
 1747TIP3    H126656   5.824   3.638  15.913 -0.2050  1.2775  0.3798
 1747TIP3    H226657   5.969   3.597  15.918 -0.9202 -1.4489  0.4492
 1748TIP3   OH226658   2.162   4.253   4.009 -0.0179  0.3146  0.0047
 1748TIP3    H126659   2.135   4.184   3.948 -0.8537 -0.3849  1.1409
 1748TIP3    H226660   2.098   4.323   3.996 -1.7568 -0.8371  1.7982
 1749TIP3   OH226661   5.998   3.136  15.914 -0.8368  0.3725  0.6089
 1749TIP3    H126662   6.083   3.154  15.873 -1.3175  0.6549 -0.3003
 1749TIP3    H226663   6.016   3.069  15.980  0.0499  0.2665  0.2688
 1750TIP3   OH226664   0.227   0.907   1.032  0.4501  0.0295  0.0542
 1750TIP3    H126665   0.133   0.913   1.021  0.5443  0.4509 -0.5642
 1750TIP3    H226666   0.253   0.830   0.981  0.2746 -0.9562  1.3870
 1751TIP3   OH226667   5.175   1.594  15.505 -0.4879 -0.0958 -0.2887
 1751TIP3    H126668   5.251   1.610  15.448 -0.1988 -1.7189 -0.4073
 1751TIP3    H226669   5.182   1.501  15.528 -0.9846  0.3431  1.8487
 1752TIP3   OH226670   6.263   0.550  14.713  0.5492 -0.5238  0.1661
 1752TIP3    H126671   6.188   0.567  14.657  0.2056  0.4288  0.8897
 1752TIP3    H226672   6.244   0.597  14.794  1.8536 -0.3883  0.4163
 1753TIP3   OH226673   4.754   1.384   4.199 -0.6190 -0.1276 -1.2612
 1753TIP3    H126674   4.678   1.327   4.190 -2.2997  1.8185 -0.2286
 1753TIP3    H226675   4.765   1.423   4.113 -1.0657 -0.0794 -1.2954
 1754TIP3   OH226676   4.411   0.847  10.843  0.1924 -0.1451  0.5752
 1754TIP3    H126677   4.334   0.867  10.790  0.1628 -0.5652  0.4595
 1754TIP3    H226678   4.441   0.932  10.875  0.8005  0.2250 -0.9175
 1755TIP3   OH226679   5.535   5.396  10.652  0.0193 -0.0201 -0.3465
 1755TIP3    H126680   5.621   5.355  10.655 -0.1234 -0.5222 -2.2838
 1755TIP3    H226681   5.550   5.482  10.613 -0.0550  0.9031  1.4970
 1756TIP3   OH226682   4.129   3.943  16.924  0.4721 -0.2687  0.4957
 1756TIP3    H126683   4.069   4.017  16.915  1.7588  0.6734 -0.7748
 1756TIP3    H226684   4.143   3.936  17.019 -1.4366 -0.3830  0.8028
 1757TIP3   OH226685   1.274   5.778   4.549 -0.7849 -0.1415  0.0641
 1757TIP3    H126686   1.310   5.853   4.597  1.1722 -0.1881 -1.2058
 1757TIP3    H226687   1.299   5.794   4.458 -1.4032 -1.7332 -0.4153
 1758TIP3   OH226688   4.253   3.057   6.054 -0.1347  0.4937  0.4766
 1758TIP3    H126689   4.288   3.145   6.068 -0.5960  0.4094  2.5052
 1758TIP3    H226690   4.282   3.007   6.131 -0.2496 -1.0248 -0.4166
 1759TIP3   OH226691   4.457   4.228   5.981  0.3169  0.6174  0.1662
 1759TIP3    H126692   4.370   4.266   5.988  0.2017  0.4601 -0.4067
 1759TIP3    H226693   4.516   4.297   6.011  0.0656  1.0422 -0.3020
 1760TIP3   OH226694   1.814   1.791  11.453  0.3402  0.0844  0.3499
 1760TIP3    H126695   1.831   1.774  11.545 -0.0380  0.2699  0.4561
 1760TIP3    H226696   1.897   1.772  11.409  0.2707 -0.8572  0.6157
 1761TIP3   OH226697   0.890   6.135   3.241 -0.3513 -0.0516  0.1291
 1761TIP3    H126698   0.860   6.132   3.150 -1.3106 -1.6377  0.4626
 1761TIP3    H226699   0.985   6.128   3.235 -0.2150  1.8400 -0.8121
 1762TIP3   OH226700   4.097   3.650  12.236  0.1759 -0.1912  0.0161
 1762TIP3    H126701   4.011   3.614  12.258  0.9998 -0.7277  2.6494
 1762TIP3    H226702   4.151   3.574  12.218  0.3151  0.1159 -0.9309
 1763TIP3   OH226703   6.480   4.730  15.613  0.2652 -0.0029  0.1206
 1763TIP3    H126704   6.505   4.657  15.557  0.0676  0.2603 -0.3137
 1763TIP3    H226705   6.384   4.726  15.616  0.2993 -1.4945  2.4205
 1764TIP3   OH226706   6.274   0.390  16.657  0.3606  0.0500 -0.1307
 1764TIP3    H126707   6.232   0.373  16.741 -0.0118  2.6167  0.2767
 1764TIP3    H226708   6.219   0.345  16.593 -2.3637  2.1964  0.5296
 1765TIP3   OH226709   3.884   3.382  14.528  0.2428 -0.2715 -0.1129
 1765TIP3    H126710   3.830   3.361  14.451  0.1068 -0.0726 -0.0744
 1765TIP3    H226711   3.823   3.377  14.602  0.9162 -3.1407  0.3765
 1766TIP3   OH226712   6.068   4.475  15.757 -0.0491  0.0436  0.5098
 1766TIP3    H126713   6.088   4.549  15.814 -1.0547  0.7069  0.0341
 1766TIP3    H226714   6.047   4.403  15.816  2.4222 -0.3637  1.0182
 1767TIP3   OH226715   5.232   5.152   5.310 -0.4737  0.4546 -0.1169
 1767TIP3    H126716   5.292   5.124   5.379 -2.1982 -1.1384  0.8201
 1767TIP3    H226717   5.171   5.211   5.354 -0.9720  0.2500 -0.5225
 1768TIP3   OH226718   3.219   1.967   3.394 -0.5096  0.1925 -0.2629
 1768TIP3    H126719   3.167   1.920   3.459 -1.1483  0.0047 -0.9004
 1768TIP3    H226720   3.218   2.058   3.424  0.0227 -0.0426  0.5115
 1769TIP3   OH226721   3.208   1.518  15.347 -0.2339  0.0660  0.0476
 1769TIP3    H126722   3.254   1.508  15.430 -1.0064 -0.8514  0.3843
 1769TIP3    H226723   3.216   1.611  15.326  0.7946  0.1324  0.6490
 1770TIP3   OH226724   2.274   4.229  15.041  0.3187  0.0709  0.1365
 1770TIP3    H126725   2.275   4.204  15.134  0.2239 -1.9230 -0.3507
 1770TIP3    H226726   2.181   4.227  15.017  0.5388 -3.0966 -0.8422
 1771TIP3   OH226727   5.712   5.129   5.423 -0.4970  0.0562  0.0506
 1771TIP3    H126728   5.797   5.096   5.394 -0.5076 -0.0574  0.1467
 1771TIP3    H226729   5.733   5.207   5.475 -0.5075  0.5018 -0.6096
 1772TIP3   OH226730   3.928   4.633   1.408  0.2295 -0.7571 -0.5521
 1772TIP3    H126731   3.910   4.541   1.426 -1.8738 -0.4367 -0.7366
 1772TIP3    H226732   3.937   4.638   1.313  0.2923 -0.7522 -0.5462
 1773TIP3   OH226733   3.805   1.371  16.367  0.1009  0.0368 -0.0515
 1773TIP3    H126734   3.764   1.384  16.281  0.8706 -2.7067 -0.9426
 1773TIP3    H226735   3.747   1.311  16.413  0.0535  0.9382  1.0825
 1774TIP3   OH226736   0.249   4.286   2.521  0.5784 -0.4295 -0.3654
 1774TIP3    H126737   0.175   4.345   2.539  0.0179 -1.2204  0.0071
 1774TIP3    H226738   0.325   4.331   2.558  0.0129 -0.3339  0.7284
 1775TIP3   OH226739   6.391   1.178  12.438 -0.6148 -0.5574 -0.1198
 1775TIP3    H126740   6.431   1.207  12.356  0.5744 -1.2222  0.2022
 1775TIP3    H226741   6.329   1.109  12.411  0.0134 -1.0096 -0.4369
 1776TIP3   OH226742   6.020   2.627  11.753  0.0289  0.0541  0.1962
 1776TIP3    H126743   5.953   2.602  11.689 -0.2112  0.8910  0.0956
 1776TIP3    H226744   6.026   2.553  11.812 -0.1963 -0.4803 -0.4412
 1777TIP3   OH226745   4.384   4.953   0.277  0.1518 -0.3534 -0.6582
 1777TIP3    H126746   4.441   4.932   0.351 -0.6628  0.2955  0.1700
 1777TIP3    H226747   4.295   4.943   0.310 -0.2337  0.2057 -1.4641
 1778TIP3   OH226748   1.991   6.170  16.485  0.0317 -0.0180 -0.2019
 1778TIP3    H126749   2.018   6.199  16.573 -1.8117  0.9422  0.1002
 1778TIP3    H226750   1.900   6.141  16.496 -0.7111  1.4170 -2.0296
 1779TIP3   OH226751   5.997   4.560  14.091 -0.6927  0.1135 -0.4002
 1779TIP3    H126752   6.014   4.525  14.003  1.6994  2.3274 -0.9453
 1779TIP3    H226753   5.905   4.585  14.089 -1.1293 -1.4226 -1.6796
 1780TIP3   OH226754   5.149   0.258  12.881  0.2704  0.2933 -0.5474
 1780TIP3    H126755   5.180   0.348  12.877  0.8189  0.0753 -1.5868
 1780TIP3    H226756   5.105   0.251  12.965  0.5366  1.4307 -0.3047
 1781TIP3   OH226757   4.951   4.233  15.156  0.2659  0.1278 -0.0349
 1781TIP3    H126758   4.877   4.222  15.097 -0.0009 -1.3344  0.5087
 1781TIP3    H226759   5.026   4.199  15.108  0.0172 -1.2348  0.4755
 1782TIP3   OH226760   3.381   6.323   1.505  0.5631 -0.3411 -0.2097
 1782TIP3    H126761   3.290   6.352   1.505  0.6731  0.0442 -0.9446
 1782TIP3    H226762   3.423   6.372   1.575  0.3909  0.1148 -0.4224
 1783TIP3   OH226763   3.495   0.445  16.841  0.1187 -0.2226  0.1407
 1783TIP3    H126764   3.528   0.360  16.810  0.8780 -0.6800  2.0765
 1783TIP3    H226765   3.547   0.509  16.792  1.0228 -0.8993  0.1655
 1784TIP3   OH226766   4.222   5.647  13.385  0.5356 -0.0318  0.6021
 1784TIP3    H126767   4.271   5.720  13.346  0.2291 -1.3992 -2.6692
 1784TIP3    H226768   4.289   5.582  13.406  0.4835 -0.7089 -1.1209
 1785TIP3   OH226769   4.483   4.165   1.957 -0.0610 -0.2842 -0.5065
 1785TIP3    H126770   4.429   4.186   1.881  0.1591  1.2547 -0.2717
 1785TIP3    H226771   4.561   4.123   1.921  0.0704  0.4898 -1.1411
 1786TIP3   OH226772   4.656   3.826  13.287 -0.3474  0.5000  0.1788
 1786TIP3    H126773   4.620   3.913  13.304  0.8057  1.2210 -0.8652
 1786TIP3    H226774   4.728   3.817  13.350 -0.0313  0.6083 -0.1574
 1787TIP3   OH226775   4.954   0.070   0.817 -0.0127  0.2138 -0.3143
 1787TIP3    H126776   4.884   0.123   0.780 -1.6014  0.2514  2.4484
 1787TIP3    H226777   5.034   0.108   0.783 -1.2660  1.0017 -2.5700
 1788TIP3   OH226778   1.439   1.363   4.676 -0.2628 -0.1034  0.1898
 1788TIP3    H126779   1.501   1.315   4.732 -0.2333 -1.0480 -0.6318
 1788TIP3    H226780   1.488   1.381   4.596 -1.2050 -1.3579 -0.6973
 1789TIP3   OH226781   5.390   2.405  14.045  0.2412 -0.3374  0.9728
 1789TIP3    H126782   5.411   2.491  14.009  0.8938 -0.1987  1.6566
 1789TIP3    H226783   5.306   2.382  14.005  1.4568 -0.7276 -1.5402
 1790TIP3   OH226784   6.383   3.244  15.226 -0.1880  0.0107  0.0072
 1790TIP3    H126785   6.456   3.271  15.169 -0.4463  0.8073  0.0363
 1790TIP3    H226786   6.388   3.149  15.227  0.9643  0.0513  0.1497
 1791TIP3   OH226787   6.533   4.986  13.495 -0.0734  0.1611  0.0794
 1791TIP3    H126788   6.471   4.914  13.482 -0.0710  0.2029 -0.1675
 1791TIP3    H226789   6.479   5.058  13.527 -0.1388  0.1733 -0.0594
 1792TIP3   OH226790   1.057   6.238  15.874  0.5105  0.2649 -0.0798
 1792TIP3    H126791   0.965   6.213  15.861 -0.1357 -0.6872  4.6905
 1792TIP3    H226792   1.099   6.159  15.908  2.1821  1.6088  1.1465
 1793TIP3   OH226793   3.963   4.497  13.040 -0.6626 -0.1852  0.4868
 1793TIP3    H126794   3.948   4.417  12.990 -2.0133  0.3547 -0.0170
 1793TIP3    H226795   3.940   4.474  13.130  1.0427 -0.9414  0.7745
 1794TIP3   OH226796   2.062   5.435   2.145  0.3765 -0.7894  0.4763
 1794TIP3    H126797   2.038   5.434   2.237  0.8135  0.3596  0.6154
 1794TIP3    H226798   1.983   5.406   2.099 -0.3787  0.1801  1.1143
 1795TIP3   OH226799   0.168   6.746   5.371  0.5459  0.2607  0.3861
 1795TIP3    H126800   0.205   6.750   5.283  1.6106  2.3255  0.8596
 1795TIP3    H226801   0.163   6.653   5.391  1.6835 -0.2044 -1.2790
 1796TIP3   OH226802   1.912   6.223   0.385  0.3776 -1.2440 -0.5752
 1796TIP3    H126803   1.974   6.184   0.446  1.7822  1.2538 -0.2976
 1796TIP3    H226804   1.860   6.283   0.438 -0.9763 -1.8206 -1.1889
 1797TIP3   OH226805   0.101   5.638   0.218 -0.3641 -0.2929  0.6296
 1797TIP3    H126806   0.194   5.615   0.211  0.1513  1.3005  1.7779
 1797TIP3    H226807   0.058   5.554   0.238  0.8789 -0.9783  0.5563
 1798TIP3   OH226808   2.469   5.804  12.900  0.4134 -0.0252 -0.3932
 1798TIP3    H126809   2.423   5.831  12.821 -2.5190  2.5433  1.9483
 1798TIP3    H226810   2.402   5.761  12.953  2.2254 -1.4155  0.8886
 1799TIP3   OH226811   3.526   3.031  17.093  0.6250 -0.1988 -0.4249
 1799TIP3    H126812   3.551   3.023  17.185 -0.7687  0.9211  0.0797
 1799TIP3    H226813   3.446   2.980  17.085  0.0483  0.7342 -0.7095
 1800TIP3   OH226814   3.474   3.238  13.145 -0.1174  0.1508  0.1231
 1800TIP3    H126815   3.563   3.206  13.130 -0.1331  0.2662 -0.2421
 1800TIP3    H226816   3.442   3.261  13.057 -0.9207 -0.9889  0.0803
 1801TIP3   OH226817   1.202   5.285  16.674 -0.0664 -0.1252  0.4619
 1801TIP3    H126818   1.264   5.338  16.624 -1.0507  1.4424  0.8332
 1801TIP3    H226819   1.231   5.294  16.765 -0.7933  0.6114  0.6382
 1802TIP3   OH226820   6.445   2.674   5.399 -0.2649 -0.2916 -0.2818
 1802TIP3    H126821   6.463   2.662   5.492 -2.7994 -0.3460  0.2798
 1802TIP3    H226822   6.445   2.768   5.387 -0.6716 -0.2591 -0.0466
 1803TIP3   OH226823   1.366   6.055   1.603 -0.0058 -0.0293  0.0444
 1803TIP3    H126824   1.417   6.011   1.671  0.5607  1.9317  0.9825
 1803TIP3    H226825   1.378   6.148   1.621 -3.7874  0.5963  0.2320
 1804TIP3   OH226826   6.188   1.992   5.760 -0.1329 -0.0674  0.1143
 1804TIP3    H126827   6.127   2.046   5.811 -0.6615 -3.2067  3.1712
 1804TIP3    H226828   6.134   1.951   5.693  0.1845  2.5226 -1.9214
 1805TIP3   OH226829   1.329   2.546   1.828 -0.2837  0.5355 -0.3877
 1805TIP3    H126830   1.314   2.522   1.737 -1.0424 -0.4106 -0.0332
 1805TIP3    H226831   1.339   2.641   1.827 -0.1770  0.5203 -1.4625
 1806TIP3   OH226832   3.382   2.689   6.597 -0.0898 -0.1823 -0.2899
 1806TIP3    H126833   3.383   2.760   6.661  2.1543 -0.8352  0.5203
 1806TIP3    H226834   3.414   2.613   6.646  0.9697 -0.8740 -1.9644
 1807TIP3   OH226835   0.832   5.586  15.967  0.3818 -0.0757  0.5799
 1807TIP3    H126836   0.777   5.579  15.890 -0.7801 -0.0163  1.3865
 1807TIP3    H226837   0.907   5.529  15.948  0.2014  0.0716 -0.6490
 1808TIP3   OH226838   0.400   5.832  17.053 -0.0744 -0.0313 -0.1307
 1808TIP3    H126839   0.374   5.893  16.984 -0.8852  0.6185  0.7234
 1808TIP3    H226840   0.457   5.884  17.110 -2.5006  0.7055  1.8315
 1809TIP3   OH226841   1.103   4.033  14.590 -0.3428  0.0093 -0.3722
 1809TIP3    H126842   1.079   4.012  14.681  0.4292  0.9463  0.0718
 1809TIP3    H226843   1.133   3.949  14.554 -0.1573 -0.2726  0.4103
 1810TIP3   OH226844   0.408   3.654  13.964  0.0887  0.2287 -0.2344
 1810TIP3    H126845   0.353   3.577  13.953  0.1831 -0.0082  0.8066
 1810TIP3    H226846   0.393   3.681  14.055  1.8340  0.0309  0.1520
 1811TIP3   OH226847   4.451   4.695   2.318 -0.0374 -0.8123  0.2302
 1811TIP3    H126848   4.453   4.752   2.395 -0.5188 -0.1251 -0.2596
 1811TIP3    H226849   4.495   4.745   2.250 -1.8250 -0.3572 -0.6415
 1812TIP3   OH226850   0.820   1.205   1.247  0.1409 -0.1645 -0.0038
 1812TIP3    H126851   0.830   1.113   1.225 -2.8876 -0.5579 -0.2447
 1812TIP3    H226852   0.840   1.252   1.166  0.6262 -0.6886 -0.1893
 1813TIP3   OH226853   3.589   5.802   0.948  0.2160  0.3218 -0.5857
 1813TIP3    H126854   3.681   5.782   0.930  1.0273  1.8947  1.4429
 1813TIP3    H226855   3.573   5.766   1.035 -0.9376  0.5561 -0.6831
 1814TIP3   OH226856   1.232   5.954  13.638  0.5349  0.3015  0.3300
 1814TIP3    H126857   1.207   5.874  13.590  0.7099 -0.1435  0.9749
 1814TIP3    H226858   1.160   5.968  13.700  0.2804  0.9125 -0.0912
 1815TIP3   OH226859   6.379   3.042   6.005 -0.1289 -0.6107 -0.3374
 1815TIP3    H126860   6.343   2.960   5.972 -1.8084 -0.4093  0.8262
 1815TIP3    H226861   6.314   3.108   5.981  1.8131  0.6866 -2.4314
 1816TIP3   OH226862   0.640   0.712  14.315 -0.2869 -0.1067  0.0102
 1816TIP3    H126863   0.695   0.723  14.393 -2.3896  0.4573  1.5090
 1816TIP3    H226864   0.685   0.645  14.263  1.2422 -0.4301  1.6472
 1817TIP3   OH226865   1.608   5.876  15.397 -0.2116 -0.5067 -0.0553
 1817TIP3    H126866   1.513   5.877  15.390 -0.1611  1.2117 -0.8097
 1817TIP3    H226867   1.630   5.957  15.443  0.9406 -0.3844 -0.7763
 1818TIP3   OH226868   0.114   4.963   5.227  1.0817  0.0137 -0.3192
 1818TIP3    H126869   0.117   4.969   5.323  0.3967  1.3532 -0.3588
 1818TIP3    H226870   0.099   4.870   5.209  3.0797 -0.5901  0.7981
 1819TIP3   OH226871   1.083   5.242  12.826 -0.3301 -0.0413 -0.7212
 1819TIP3    H126872   1.008   5.298  12.809 -0.4106 -0.0649 -0.4501
 1819TIP3    H226873   1.063   5.160  12.783 -0.7924 -0.3001 -0.0245
 1820TIP3   OH226874   5.433   5.388  16.697 -0.6313  0.0076 -1.0831
 1820TIP3    H126875   5.446   5.426  16.784  1.2060  1.1824 -1.8165
 1820TIP3    H226876   5.375   5.449  16.652  0.1789  0.5907 -1.3720
 1821TIP3   OH226877   3.736   2.400   2.413 -0.0508  0.3626 -0.1760
 1821TIP3    H126878   3.786   2.319   2.401 -0.6277  0.0942 -0.8133
 1821TIP3    H226879   3.798   2.460   2.454 -0.0747 -0.9040  1.9043
 1822TIP3   OH226880   5.713   4.857   1.532  0.2914  0.6793 -0.1255
 1822TIP3    H126881   5.632   4.899   1.504 -0.1197  0.0340  0.0544
 1822TIP3    H226882   5.695   4.826   1.621  0.9341  1.0379  0.1361
 1823TIP3   OH226883   0.629   4.310  14.479 -0.1679 -0.4144 -0.0491
 1823TIP3    H126884   0.700   4.278  14.535 -0.4243 -1.8100 -0.4801
 1823TIP3    H226885   0.556   4.250  14.496 -0.5542 -0.2886 -1.1696
 1824TIP3   OH226886   1.669   2.787   3.624 -0.2756 -0.1945  0.5188
 1824TIP3    H126887   1.586   2.799   3.669 -0.2176  1.7601  0.2009
 1824TIP3    H226888   1.680   2.867   3.572  2.4710  0.2865  1.6759
 1825TIP3   OH226889   3.670   5.637   3.229 -0.4577  0.3762 -0.0461
 1825TIP3    H126890   3.606   5.708   3.225 -1.4002 -0.2953  1.9075
 1825TIP3    H226891   3.754   5.682   3.240 -0.7952  1.2139 -0.7021
 1826TIP3   OH226892   0.601   4.703  12.154  0.3102 -0.4549 -0.3966
 1826TIP3    H126893   0.647   4.630  12.113  0.7114  0.3878 -1.5038
 1826TIP3    H226894   0.670   4.755  12.195  0.2367  0.1696 -1.0357
 1827TIP3   OH226895   0.398   0.726  16.707 -0.1920  0.6636  0.3885
 1827TIP3    H126896   0.332   0.791  16.730 -1.1303 -0.0751 -0.1330
 1827TIP3    H226897   0.348   0.645  16.694  0.7458  0.2148 -0.5775
 1828TIP3   OH226898   4.052   4.790  14.210 -0.4898 -0.4062  0.7660
 1828TIP3    H126899   4.061   4.696  14.228 -3.7982 -0.8390  0.7077
 1828TIP3    H226900   3.999   4.794  14.130  2.2285  1.5791 -1.1251
 1829TIP3   OH226901   6.412   0.930  14.878  0.2546 -0.0525 -0.0165
 1829TIP3    H126902   6.372   0.983  14.947 -0.2708 -0.5089  0.0413
 1829TIP3    H226903   6.473   0.989  14.834  0.0428  0.4544  0.3583
 1830TIP3   OH226904   1.466   2.402  13.954  0.7297  0.1652 -0.4150
 1830TIP3    H126905   1.479   2.495  13.973  2.0433 -0.1205  0.1903
 1830TIP3    H226906   1.436   2.364  14.037  1.6647 -0.1999 -0.2252
 1831TIP3   OH226907   6.784   0.547   0.087  0.5557  0.2144 -0.1467
 1831TIP3    H126908   6.769   0.584   0.173  0.3966  0.9688 -0.4882
 1831TIP3    H226909   6.715   0.585   0.032  0.6911 -0.2054 -0.6167
 1832TIP3   OH226910   0.476   6.208   3.734  0.0994 -0.9633  0.0801
 1832TIP3    H126911   0.445   6.186   3.822 -0.2373 -0.7784  0.0092
 1832TIP3    H226912   0.457   6.131   3.682 -2.4417 -0.0230 -0.5120
 1833TIP3   OH226913   3.517   3.041  14.144  0.0684  0.0353 -0.8172
 1833TIP3    H126914   3.540   3.110  14.082 -1.3552  2.8106  1.4896
 1833TIP3    H226915   3.424   3.055  14.163  0.2812 -1.0560  1.4238
 1834TIP3   OH226916   3.146   6.431   5.871  0.0286  0.4247 -0.1713
 1834TIP3    H126917   3.091   6.386   5.936 -0.6850  0.9243 -0.4153
 1834TIP3    H226918   3.227   6.452   5.918 -0.1303 -0.0058  0.3002
 1835TIP3   OH226919   6.407   1.760  11.423  0.1973  0.3922 -0.1660
 1835TIP3    H126920   6.420   1.835  11.481 -0.6533 -1.8068  3.1772
 1835TIP3    H226921   6.476   1.699  11.448  1.0364  0.0459 -3.0060
 1836TIP3   OH226922   3.329   0.483   1.620  0.0385  0.7208  0.7369
 1836TIP3    H126923   3.314   0.414   1.684 -2.4670  1.0511  0.6155
 1836TIP3    H226924   3.345   0.436   1.538 -3.6202  0.0556  0.2059
 1837TIP3   OH226925   2.735   5.035  11.600 -0.6420 -0.0827  0.0010
 1837TIP3    H126926   2.652   4.989  11.608 -1.0542  0.9279  2.6818
 1837TIP3    H226927   2.789   4.999  11.671 -0.0010  1.5886  0.4001
 1838TIP3   OH226928   0.443   3.912   5.172 -0.0300  0.1718  0.0340
 1838TIP3    H126929   0.348   3.924   5.160 -0.4295 -1.4715  1.1223
 1838TIP3    H226930   0.483   3.960   5.099 -1.6509  1.5494 -0.0237
 1839TIP3   OH226931   6.119   1.887  14.214  0.2826 -0.0836  0.2688
 1839TIP3    H126932   6.092   1.883  14.122  0.0364 -0.3191  0.3462
 1839TIP3    H226933   6.137   1.795  14.237 -2.4187 -0.4565  1.2482
 1840TIP3   OH226934   2.818   1.739   3.259  0.2459  0.5467  0.1533
 1840TIP3    H126935   2.902   1.700   3.281 -0.5480 -1.7527 -0.5812
 1840TIP3    H226936   2.820   1.748   3.163 -0.3068  0.5488  0.1387
 1841TIP3   OH226937   4.290   3.464   1.230  0.0328  0.1249 -0.0906
 1841TIP3    H126938   4.269   3.371   1.239 -2.0500  0.6202  0.7634
 1841TIP3    H226939   4.254   3.489   1.145  0.1158  0.2593 -0.0866
 1842TIP3   OH226940   2.078   5.153  12.553 -0.1050 -0.4167  0.1844
 1842TIP3    H126941   2.139   5.227  12.559  0.1635 -0.4581 -1.5503
 1842TIP3    H226942   2.004   5.187  12.502  0.2852 -1.4850 -1.1495
 1843TIP3   OH226943   3.161   6.662   2.044 -0.4470  0.5946  0.0311
 1843TIP3    H126944   3.113   6.620   1.972 -3.4820 -0.2823  2.3564
 1843TIP3    H226945   3.093   6.689   2.106  1.9520  1.9832  2.2662
 1844TIP3   OH226946   6.187   6.727   2.397  0.4317 -0.0020 -0.0125
 1844TIP3    H126947   6.155   6.797   2.453  1.4997 -0.6167  1.4067
 1844TIP3    H226948   6.250   6.769   2.339  0.5175  0.3528  0.3313
 1845TIP3   OH226949   2.019   3.578   5.528 -0.2017 -0.1687  0.1703
 1845TIP3    H126950   1.996   3.487   5.507  0.7252 -0.0650 -1.4839
 1845TIP3    H226951   2.006   3.585   5.623 -2.2055 -1.4435  0.0473
 1846TIP3   OH226952   6.368   1.283  15.244  0.4026  0.0847 -0.2352
 1846TIP3    H126953   6.418   1.360  15.271 -0.5379  1.5153 -2.3308
 1846TIP3    H226954   6.289   1.318  15.204 -1.3428 -2.0790  1.0980
 1847TIP3   OH226955   4.936   5.570  16.882  0.0674  0.4587  0.3981
 1847TIP3    H126956   4.900   5.506  16.821 -0.7252  0.0584  1.2653
 1847TIP3    H226957   4.909   5.655  16.847  0.9256  0.3404 -0.6256
 1848TIP3   OH226958   1.124   1.754   4.165 -0.3659 -0.6693  0.1312
 1848TIP3    H126959   1.069   1.676   4.174 -2.0681 -0.1167 -3.6539
 1848TIP3    H226960   1.214   1.720   4.169 -1.0530 -2.8287 -1.2056
 1849TIP3   OH226961   5.365   6.549   5.571 -0.1023 -0.3188  0.7988
 1849TIP3    H126962   5.447   6.503   5.588  1.4086  1.8666 -0.1286
 1849TIP3    H226963   5.362   6.559   5.476 -0.3237  1.4556  0.9529
 1850TIP3   OH226964   0.374   2.410  14.888  0.2528 -0.1057 -0.2522
 1850TIP3    H126965   0.446   2.399  14.826  0.2875  0.7762 -0.3794
 1850TIP3    H226966   0.334   2.324  14.893  0.7391 -0.3801 -0.8948
 1851TIP3   OH226967   3.782   3.243  15.754  0.2276 -0.3487 -0.3907
 1851TIP3    H126968   3.763   3.321  15.701  1.1421 -1.3140 -2.2256
 1851TIP3    H226969   3.699   3.222  15.797 -0.4978  0.5680 -1.3066
 1852TIP3   OH226970   4.138   3.298   0.448 -0.3062  0.0167  0.1646
 1852TIP3    H126971   4.200   3.290   0.375 -0.6345 -1.2123 -0.0035
 1852TIP3    H226972   4.117   3.391   0.451  2.0328  0.5846  0.6498
 1853TIP3   OH226973   3.574   6.780  16.539 -0.1375 -0.1928 -0.4950
 1853TIP3    H126974   3.524   6.830  16.474 -0.6365  2.0091  1.4307
 1853TIP3    H226975   3.661   6.771  16.500 -0.5965  0.4471 -1.7408
 1854TIP3   OH226976   2.247   4.112  15.788  0.0228 -0.2183  0.6882
 1854TIP3    H126977   2.168   4.148  15.748  0.3022  0.7715  0.9801
 1854TIP3    H226978   2.216   4.067  15.866 -0.3183 -0.3919  0.4538
 1855TIP3   OH226979   2.268   6.309  15.194 -0.3130 -0.2837  0.0709
 1855TIP3    H126980   2.220   6.353  15.265  0.3486  0.4059  0.1114
 1855TIP3    H226981   2.288   6.379  15.132 -3.9830 -1.3719 -2.7126
 1856TIP3   OH226982   6.127   2.709   5.133  0.3999 -0.1360 -0.4199
 1856TIP3    H126983   6.179   2.774   5.086  0.0697 -0.1843 -0.8703
 1856TIP3    H226984   6.036   2.736   5.118  0.2974  0.3461  0.9315
 1857TIP3   OH226985   0.300   0.650   3.757 -0.3418 -0.2447 -0.7457
 1857TIP3    H126986   0.261   0.724   3.803 -1.1100  0.3746 -2.3425
 1857TIP3    H226987   0.316   0.585   3.826 -1.0147  0.8269  0.4576
 1858TIP3   OH226988   3.750   4.121   3.402  0.0526  0.0450  0.1085
 1858TIP3    H126989   3.716   4.198   3.356  2.4019  2.6582  2.4142
 1858TIP3    H226990   3.814   4.083   3.342  3.0456  3.3648  0.9001
 1859TIP3   OH226991   3.116   3.434   0.447 -0.0697  0.0928  0.1618
 1859TIP3    H126992   3.063   3.458   0.523 -0.4547  1.1406 -0.4217
 1859TIP3    H226993   3.202   3.474   0.463 -0.6405  1.7491 -0.6987
 1860TIP3   OH226994   3.832   6.270  12.467  0.1797 -0.0441 -0.2617
 1860TIP3    H126995   3.864   6.180  12.474  0.9895  0.3048  0.6847
 1860TIP3    H226996   3.900   6.323  12.507 -1.5059  0.7443  1.7690
 1861TIP3   OH226997   5.649   5.371   1.230  0.1678  0.4974 -0.8541
 1861TIP3    H126998   5.713   5.419   1.177  0.8474 -0.1328 -0.6144
 1861TIP3    H226999   5.626   5.295   1.176 -0.5022  0.7975 -1.0044
 1862TIP3   OH227000   1.073   6.260  16.275  0.4379  0.0085  0.5673
 1862TIP3    H127001   0.984   6.252  16.241 -0.9079 -0.9318  3.9107
 1862TIP3    H227002   1.117   6.318  16.212 -2.6837  1.0377 -0.9047
 1863TIP3   OH227003   4.784   0.455  13.204 -0.2129  0.2196 -0.3314
 1863TIP3    H127004   4.810   0.364  13.194 -0.2930  0.2698 -1.0720
 1863TIP3    H227005   4.762   0.464  13.297  1.1668 -0.1459  0.0566
 1864TIP3   OH227006   2.980   1.488  14.658  0.0484 -0.3971  0.1015
 1864TIP3    H127007   3.040   1.464  14.587  1.0271  2.0237  0.0132
 1864TIP3    H227008   3.023   1.455  14.737  1.5969  1.3283  0.0424
 1865TIP3   OH227009   4.094   1.714   2.111  0.2517 -0.0202 -0.0002
 1865TIP3    H127010   4.122   1.626   2.085 -0.6825 -0.1770 -0.5348
 1865TIP3    H227011   4.027   1.737   2.047 -0.3906  0.5785  0.8735
 1866TIP3   OH227012   2.897   1.260   6.528 -0.1895  0.0642  0.5286
 1866TIP3    H127013   2.947   1.182   6.548  0.4171  0.4867  0.6803
 1866TIP3    H227014   2.839   1.271   6.604 -0.8764 -0.7014  0.1289
 1867TIP3   OH227015   1.507   5.618  10.685  0.4254  0.4149 -0.2239
 1867TIP3    H127016   1.552   5.702  10.673  1.9152 -0.3811 -0.4986
 1867TIP3    H227017   1.473   5.597  10.599  2.0890 -0.3415 -0.7403
 1868TIP3   OH227018   2.653   5.159  14.844  0.6709 -0.0422  0.5527
 1868TIP3    H127019   2.615   5.173  14.931  3.8963 -0.9445  2.2373
 1868TIP3    H227020   2.577   5.145  14.787 -1.5670  0.4710  3.1933
 1869TIP3   OH227021   5.195   1.741   5.513  0.2606  0.2015  0.1363
 1869TIP3    H127022   5.180   1.810   5.449  2.2857  0.6445  0.0487
 1869TIP3    H227023   5.158   1.774   5.594 -0.0158  0.7745 -0.2204
 1870TIP3   OH227024   2.596   0.232  12.600  0.1577  0.3697 -0.4528
 1870TIP3    H127025   2.687   0.208  12.582 -0.0439  0.7776 -2.1707
 1870TIP3    H227026   2.579   0.196  12.687  1.4408 -1.1877 -0.7932
 1871TIP3   OH227027   0.805   6.004  15.629  0.0106  0.2464  0.9728
 1871TIP3    H127028   0.827   5.928  15.683  0.8846  0.0598  0.3810
 1871TIP3    H227029   0.717   5.985  15.596  0.5447 -0.9249  0.1400
 1872TIP3   OH227030   5.009   2.882   1.659 -0.0044 -0.6455  0.2781
 1872TIP3    H127031   5.075   2.830   1.612 -0.9256 -1.2599 -0.3625
 1872TIP3    H227032   4.960   2.817   1.711 -1.4121 -0.5102 -0.8231
 1873TIP3   OH227033   5.590   3.112   2.868  0.1986 -0.1498 -0.0959
 1873TIP3    H127034   5.568   3.024   2.836 -1.2663  0.0007  0.3809
 1873TIP3    H227035   5.587   3.103   2.964 -1.8072  0.7756 -0.0056
 1874TIP3   OH227036   0.571   6.770  11.882 -0.2645 -0.1143 -0.1710
 1874TIP3    H127037   0.573   6.827  11.805  0.4380  1.6424  1.0931
 1874TIP3    H227038   0.567   6.681  11.846  2.2448  0.5164 -2.2868
 1875TIP3   OH227039   3.981   6.262   3.375 -0.8446 -0.1742  0.0989
 1875TIP3    H127040   3.999   6.204   3.301 -0.8934 -0.4258  0.2840
 1875TIP3    H227041   3.985   6.350   3.338  1.0107 -0.1931  0.1710
 1876TIP3   OH227042   2.551   3.516   2.832 -0.3653 -0.2889  0.9179
 1876TIP3    H127043   2.627   3.463   2.812 -0.3546  0.0297  0.0940
 1876TIP3    H227044   2.481   3.453   2.847 -0.3648 -0.5422 -0.1022
 1877TIP3   OH227045   2.722   4.276  12.530 -0.0396 -0.1620  0.4193
 1877TIP3    H127046   2.807   4.318  12.546 -0.8658  1.0245  2.0591
 1877TIP3    H227047   2.742   4.200  12.475  2.3109 -0.8243  2.0409
 1878TIP3   OH227048   0.237   4.919  15.455 -0.1359  1.1556 -0.0625
 1878TIP3    H127049   0.194   4.958  15.530 -0.2209 -2.2673  1.8739
 1878TIP3    H227050   0.288   4.847  15.491  0.2456 -0.3637 -3.2428
 1879TIP3   OH227051   1.369   5.113  16.964 -0.1795  0.3116 -0.0651
 1879TIP3    H127052   1.456   5.074  16.962  0.4166  1.6018 -1.6974
 1879TIP3    H227053   1.309   5.040  16.951  0.7180 -0.4460 -0.0364
 1880TIP3   OH227054   3.158   5.961   2.736  0.5266  0.3803  0.1022
 1880TIP3    H127055   3.106   5.920   2.667  2.6637 -0.6872 -0.9777
 1880TIP3    H227056   3.172   6.050   2.706  0.7615  0.1631 -0.4365
 1881TIP3   OH227057   6.005   5.723   2.117 -0.3034 -0.5332 -0.3233
 1881TIP3    H127058   6.065   5.709   2.190 -0.6292 -0.4185 -0.0265
 1881TIP3    H227059   6.003   5.818   2.105 -2.5708 -0.2428  1.5539
 1882TIP3   OH227060   0.473   6.532   3.986 -0.0355 -0.2727  0.3181
 1882TIP3    H127061   0.431   6.447   4.000 -2.0939  0.6520  0.1122
 1882TIP3    H227062   0.420   6.594   4.035  2.0273  0.8122  1.3038
 1883TIP3   OH227063   3.821   1.625  17.215  0.9561  0.6789  0.6415
 1883TIP3    H127064   3.762   1.699  17.229 -2.0653 -1.4709  0.2494
 1883TIP3    H227065   3.877   1.653  17.143 -0.5211  2.3753  0.0717
 1884TIP3   OH227066   1.816   0.153  12.516 -0.3781  0.3335  0.9350
 1884TIP3    H127067   1.897   0.172  12.563  1.0568  0.7447 -1.5145
 1884TIP3    H227068   1.807   0.223  12.452 -2.8624  0.4449  1.2813
 1885TIP3   OH227069   5.402   6.438   3.181  0.3135 -0.6365  0.8588
 1885TIP3    H127070   5.313   6.420   3.212 -1.2694  0.6420 -2.4700
 1885TIP3    H227071   5.422   6.525   3.216 -2.1058  1.5207 -2.4520
 1886TIP3   OH227072   3.796   6.334   1.287 -0.0467  0.0779 -0.2815
 1886TIP3    H127073   3.758   6.388   1.356 -0.7497 -0.1805 -0.4602
 1886TIP3    H227074   3.722   6.290   1.246  0.4988 -0.9799 -0.1905
 1887TIP3   OH227075   1.870   1.992  15.436 -0.0590  1.1695  0.4825
 1887TIP3    H127076   1.908   1.909  15.465  0.6786  1.4499  0.3353
 1887TIP3    H227077   1.910   2.057  15.494 -1.0085  1.3703  0.9247
 1888TIP3   OH227078   1.759   6.431  16.312  0.3410  0.1588  0.0666
 1888TIP3    H127079   1.818   6.361  16.286 -0.2569 -0.4331  0.2665
 1888TIP3    H227080   1.816   6.497  16.352  0.9226 -0.1590 -0.2316
 1889TIP3   OH227081   5.279   3.919   3.306  0.4801 -0.2894  0.0802
 1889TIP3    H127082   5.300   3.879   3.390 -0.4054 -1.3613 -0.1877
 1889TIP3    H227083   5.344   3.883   3.245  1.8124  1.3227  0.4815
 1890TIP3   OH227084   4.076   4.965  16.109  0.0320 -0.0352  0.3989
 1890TIP3    H127085   4.030   5.047  16.125  0.3441  0.4589 -1.0757
 1890TIP3    H227086   4.016   4.897  16.140 -1.8107  0.5720 -1.6004
 1891TIP3   OH227087   5.866   1.405   5.216 -0.7170  0.3586  0.3999
 1891TIP3    H127088   5.808   1.333   5.192 -0.3954  0.1920  0.1062
 1891TIP3    H227089   5.869   1.403   5.311  0.4153 -0.9358  0.3707
 1892TIP3   OH227090   3.290   5.154   2.864 -0.8829  0.5551  0.0757
 1892TIP3    H127091   3.330   5.211   2.930  0.6142  0.6035 -0.8139
 1892TIP3    H227092   3.256   5.215   2.798 -1.9258  0.4906  0.5339
 1893TIP3   OH227093   1.179   2.467   2.380 -0.0600  0.1666 -0.6375
 1893TIP3    H127094   1.159   2.513   2.461  0.0125 -1.2697  0.2243
 1893TIP3    H227095   1.245   2.402   2.405 -1.6112 -1.7778 -1.3579
 1894TIP3   OH227096   0.855   1.959   4.570 -0.2208 -0.1125  0.2303
 1894TIP3    H127097   0.850   2.051   4.596 -1.9021  0.5301 -2.0386
 1894TIP3    H227098   0.818   1.911   4.645 -1.1953  1.2455  0.6618
 1895TIP3   OH227099   1.642   2.605   5.556 -0.1425  0.8480  0.2178
 1895TIP3    H127100   1.596   2.651   5.487 -0.4325  0.6242  0.2586
 1895TIP3    H227101   1.731   2.641   5.555 -0.2563  1.1195 -0.0097
 1896TIP3   OH227102   0.127   2.302   3.000 -0.1052  0.0125  0.0172
 1896TIP3    H127103   0.082   2.273   3.080  0.2074 -2.2279 -0.5477
 1896TIP3    H227104   0.217   2.321   3.029 -0.0345 -0.6331  0.2309
 1897TIP3   OH227105   1.131   2.489   2.956 -0.3669 -0.5966 -0.4452
 1897TIP3    H127106   1.116   2.579   2.983 -0.7262 -0.7014 -0.2867
 1897TIP3    H227107   1.063   2.439   3.001  1.0778 -1.2405  1.1259
 1898TIP3   OH227108   0.643   0.354  11.943 -0.1023  0.1997  0.0344
 1898TIP3    H127109   0.649   0.416  12.016 -1.2536  2.2146 -1.4951
 1898TIP3    H227110   0.660   0.269  11.983 -0.3192  1.2607  2.5801
 1899TIP3   OH227111   5.281   2.750   1.791  0.2618 -0.1866 -0.2069
 1899TIP3    H127112   5.350   2.690   1.763  0.7180 -0.2652  1.0039
 1899TIP3    H227113   5.300   2.832   1.746  0.2504 -0.6477 -1.0599
 1900TIP3   OH227114   2.624   1.233   1.992  0.0668  0.1360 -0.3143
 1900TIP3    H127115   2.710   1.199   2.017  0.3519  0.7838 -0.3859
 1900TIP3    H227116   2.616   1.211   1.899  0.1182  0.0027 -0.2876
 1901TIP3   OH227117   4.407   6.371  16.518 -0.3607  0.6196 -0.4246
 1901TIP3    H127118   4.471   6.424  16.472 -0.9943  1.8197  0.0205
 1901TIP3    H227119   4.357   6.433  16.571 -0.1455 -0.6064  1.3152
 1902TIP3   OH227120   4.189   1.120  14.800  0.1955 -0.3169  0.7805
 1902TIP3    H127121   4.245   1.043  14.806  0.1917 -0.4366 -0.4727
 1902TIP3    H227122   4.239   1.183  14.748 -1.2167 -0.8293 -1.2975
 1903TIP3   OH227123   1.593   1.845  13.543 -0.0761  0.0646  0.4757
 1903TIP3    H127124   1.615   1.871  13.632  0.2690  0.2264  0.3448
 1903TIP3    H227125   1.532   1.912  13.512 -0.7486 -0.3717  0.8320
 1904TIP3   OH227126   3.335   3.890  17.117 -0.6353 -0.5599  0.0087
 1904TIP3    H127127   3.311   3.953  17.048  1.3460  0.4202  0.1351
 1904TIP3    H227128   3.328   3.805  17.075 -1.1530 -0.0961 -0.8790
 1905TIP3   OH227129   3.360   4.024  11.491 -0.4602 -0.1036 -0.8893
 1905TIP3    H127130   3.376   3.932  11.510 -0.5694 -0.1651 -1.0938
 1905TIP3    H227131   3.398   4.037  11.403  2.3541  0.7820  0.3226
 1906TIP3   OH227132   6.512   5.998   1.993 -0.5063  0.6401  0.2213
 1906TIP3    H127133   6.551   6.051   2.063 -0.7252  0.4058  0.5229
 1906TIP3    H227134   6.453   6.059   1.948  0.9690  1.2885 -0.8964
 1907TIP3   OH227135   5.540   2.053   4.159  0.1335 -0.2065  0.3539
 1907TIP3    H127136   5.550   2.041   4.253 -0.6877  3.1770  1.0107
 1907TIP3    H227137   5.622   2.094   4.131 -0.2535  0.3010 -0.0582
 1908TIP3   OH227138   6.133   1.233   5.315  0.5317  0.7261 -0.8077
 1908TIP3    H127139   6.207   1.262   5.369 -1.0635  1.9404  0.8839
 1908TIP3    H227140   6.115   1.308   5.258  1.7072 -0.2603 -2.5715
 1909TIP3   OH227141   1.791   5.567   2.510 -0.0913 -0.1020  0.0414
 1909TIP3    H127142   1.717   5.599   2.458 -1.6500  0.0142  2.1726
 1909TIP3    H227143   1.839   5.646   2.534 -1.1856  0.2318  1.3030
 1910TIP3   OH227144   3.396   2.778  17.083  0.1736  0.1007 -0.7204
 1910TIP3    H127145   3.327   2.718  17.054 -0.0426  1.0018 -2.2016
 1910TIP3    H227146   3.468   2.721  17.110 -0.8234 -0.8378  0.0530
 1911TIP3   OH227147   3.601   6.727   0.686  0.2124 -0.0235  0.0132
 1911TIP3    H127148   3.636   6.641   0.664  0.2925 -0.4198  1.5655
 1911TIP3    H227149   3.551   6.713   0.767  0.8592  1.5156  0.7203
 1912TIP3   OH227150   0.221   6.009  15.912  0.2773  0.3050 -0.1615
 1912TIP3    H127151   0.151   6.027  15.849  0.5563  2.1876  0.0025
 1912TIP3    H227152   0.277   5.944  15.868 -0.3732  0.4315 -1.2103
 1913TIP3   OH227153   1.805   2.857  16.712  0.5130  0.4196  0.2874
 1913TIP3    H127154   1.718   2.825  16.688  0.1221  0.9219  0.9879
 1913TIP3    H227155   1.846   2.881  16.628  0.2670 -0.5186 -0.1077
 1914TIP3   OH227156   2.723   3.302   2.141  0.0980  0.8238  0.0324
 1914TIP3    H127157   2.702   3.293   2.233  1.5233  2.2621  0.5420
 1914TIP3    H227158   2.657   3.362   2.106  0.0035  0.8782  0.3065
 1915TIP3   OH227159   5.100   0.294   2.385 -0.0562  0.1101 -0.0565
 1915TIP3    H127160   5.045   0.317   2.310 -0.9633  0.0137  0.5713
 1915TIP3    H227161   5.187   0.325   2.360 -0.8092  2.2996 -0.1491
 1916TIP3   OH227162   5.297   3.119  12.466 -0.0100  0.3141  0.3618
 1916TIP3    H127163   5.223   3.156  12.418 -0.4276 -0.0716  0.7035
 1916TIP3    H227164   5.261   3.097  12.552  0.3972 -0.2734  0.3860
 1917TIP3   OH227165   4.010   4.633  10.941  0.0522 -0.0488 -0.0776
 1917TIP3    H127166   3.993   4.726  10.925  1.6245  0.1954 -0.4287
 1917TIP3    H227167   4.015   4.594  10.854  2.1823  0.0863 -0.0692
 1918TIP3   OH227168   1.430   6.677   0.276  0.1895  0.1532 -0.4236
 1918TIP3    H127169   1.457   6.762   0.309 -1.8174  0.2755  1.1316
 1918TIP3    H227170   1.486   6.661   0.201  3.2938  1.0311  1.5411
 1919TIP3   OH227171   3.228   4.916  15.733  0.4335  0.2324 -0.5796
 1919TIP3    H127172   3.212   4.924  15.827 -1.0959 -1.3851 -0.6575
 1919TIP3    H227173   3.314   4.956  15.720 -0.7906  3.7705  0.9005
 1920TIP3   OH227174   3.266   4.233  11.106 -0.1464 -0.0113 -0.1639
 1920TIP3    H127175   3.329   4.296  11.140  0.6178 -0.4527 -0.7300
 1920TIP3    H227176   3.294   4.149  11.143 -1.1866 -0.0297  0.6245
 1921TIP3   OH227177   3.315   1.148  15.289  0.0830  0.7350  0.0698
 1921TIP3    H127178   3.291   1.120  15.377 -1.4760  0.3854 -0.4434
 1921TIP3    H227179   3.282   1.079  15.231  2.0194  0.4101 -0.7492
 1922TIP3   OH227180   3.384   6.221  15.203  0.0956 -0.2008  0.1038
 1922TIP3    H127181   3.353   6.171  15.127 -0.2498 -3.1096  2.0051
 1922TIP3    H227182   3.471   6.185  15.221  0.3377  0.7363  0.8471
 1923TIP3   OH227183   5.381   0.705  17.215  0.4345 -0.1317  0.0330
 1923TIP3    H127184   5.311   0.738  17.159 -1.1479 -1.7198  0.9572
 1923TIP3    H227185   5.351   0.725  17.304  2.9617  2.4925  0.4283
 1924TIP3   OH227186   0.977   3.871   3.819 -0.1979 -1.0788 -0.0296
 1924TIP3    H127187   1.034   3.797   3.840  1.2623  0.5411  2.2795
 1924TIP3    H227188   0.899   3.858   3.872 -0.2806 -1.3629 -0.2231
 1925TIP3   OH227189   4.862   0.536   6.849  0.6625  0.4574 -0.3175
 1925TIP3    H127190   4.769   0.517   6.846 -0.1005  3.3711  1.3321
 1925TIP3    H227191   4.901   0.462   6.896 -0.9048 -0.4474 -0.3885
 1926TIP3   OH227192   6.694   5.300   0.056  0.4575  0.3553 -0.5047
 1926TIP3    H127193   6.753   5.229   0.081  0.4561  1.1298  1.9532
 1926TIP3    H227194   6.611   5.256   0.036  0.3523 -0.3670  1.3312
 1927TIP3   OH227195   5.424   2.704  14.539 -0.2781  0.0396  0.5121
 1927TIP3    H127196   5.435   2.623  14.588 -0.1385 -0.6383 -0.5922
 1927TIP3    H227197   5.329   2.712  14.527 -0.2757 -0.1154  0.3833
 1928TIP3   OH227198   6.770   0.606  15.242  0.1556  0.2443 -0.2604
 1928TIP3    H127199   6.745   0.652  15.322  0.1729  0.8340 -0.5803
 1928TIP3    H227200   6.846   0.655  15.209 -0.4367  0.6001 -1.1320
 1929TIP3   OH227201   5.896   2.123   5.364  0.1733  0.2861 -0.5888
 1929TIP3    H127202   5.914   2.101   5.273  1.8486  2.4152 -0.8378
 1929TIP3    H227203   5.864   2.213   5.362 -2.9726 -0.6571  0.6867
 1930TIP3   OH227204   5.534   5.561   4.620 -0.4236  0.3208 -0.8348
 1930TIP3    H127205   5.596   5.495   4.650 -0.7839 -0.2401 -1.3059
 1930TIP3    H227206   5.448   5.523   4.636 -0.6312  0.4754 -1.5253
 1931TIP3   OH227207   4.350   0.032  11.076  0.0116  0.3679 -0.1224
 1931TIP3    H127208   4.316  -0.042  11.026  0.3190 -0.9662  1.5493
 1931TIP3    H227209   4.445   0.023  11.069  0.0777  1.5737 -1.2139
 1932TIP3   OH227210   5.467   5.915   2.383 -0.2692  0.3768  0.1409
 1932TIP3    H127211   5.391   5.971   2.389 -0.8908 -0.5361  1.0737
 1932TIP3    H227212   5.534   5.957   2.437 -0.9576 -0.1126  1.4087
 1933TIP3   OH227213   3.757   5.415   1.259 -0.5329 -0.4198  0.3258
 1933TIP3    H127214   3.830   5.423   1.321 -0.5399  1.9296  0.1327
 1933TIP3    H227215   3.681   5.396   1.314 -0.2693  0.1061  0.8856
 1934TIP3   OH227216   0.017   3.604   3.814  0.5934 -0.3751 -0.1027
 1934TIP3    H127217  -0.073   3.597   3.783  0.0614  0.5005  1.1677
 1934TIP3    H227218   0.039   3.516   3.845 -0.8370 -0.0265  2.1243
 1935TIP3   OH227219   0.275   3.028  12.123 -0.6125  0.0390 -0.2724
 1935TIP3    H127220   0.359   2.992  12.092 -0.7139 -0.1204 -0.3649
 1935TIP3    H227221   0.283   3.122  12.108 -0.3553  0.0530 -0.0568
 1936TIP3   OH227222   3.900   5.808  14.176 -0.1482  0.0080  0.0702
 1936TIP3    H127223   3.819   5.805  14.227  0.8406 -1.1139  1.6790
 1936TIP3    H227224   3.970   5.807  14.242  1.1843 -0.5672 -1.2913
 1937TIP3   OH227225   6.008   4.486   3.874  0.1570 -0.0333 -0.1670
 1937TIP3    H127226   5.925   4.525   3.845  0.1710  0.8158  0.8582
 1937TIP3    H227227   6.039   4.545   3.943  0.7214 -1.3250  0.7169
 1938TIP3   OH227228   3.728   6.278   5.616  0.2904  0.3208 -0.3611
 1938TIP3    H127229   3.636   6.286   5.644  0.2866 -1.0635  0.0834
 1938TIP3    H227230   3.725   6.215   5.544  1.2526 -2.5089  1.8954
 1939TIP3   OH227231   2.285   2.203  15.192 -0.2477 -0.8200  0.6608
 1939TIP3    H127232   2.372   2.234  15.216 -0.6577  2.1315 -1.2135
 1939TIP3    H227233   2.225   2.255  15.245 -0.9151 -0.3840 -0.4874
 1940TIP3   OH227234   2.509   2.594  13.204 -0.2155  0.2934  0.3703
 1940TIP3    H127235   2.593   2.637  13.191 -0.5522  1.2143  1.1332
 1940TIP3    H227236   2.444   2.660  13.178 -0.7311  0.1196  1.1915
 1941TIP3   OH227237   2.005   5.065  16.182  0.4049 -1.0021  0.6945
 1941TIP3    H127238   1.969   5.030  16.263  1.9277 -3.3009  0.4579
 1941TIP3    H227239   2.004   4.991  16.121  0.3932  0.3594 -1.0342
 1942TIP3   OH227240   1.606   1.507  10.569  0.6334  0.0377  0.3363
 1942TIP3    H127241   1.532   1.550  10.613  0.6882  0.4184  0.0568
 1942TIP3    H227242   1.600   1.535  10.478  0.3927 -0.9258  0.0419
 1943TIP3   OH227243   6.450   0.399   0.640  0.2094 -0.4101 -0.4786
 1943TIP3    H127244   6.525   0.403   0.581  0.2028 -2.6185 -0.7157
 1943TIP3    H227245   6.377   0.434   0.589  0.7887  0.4935 -0.7117
 1944TIP3   OH227246   1.444   1.692  13.981 -0.0248 -0.3643 -0.2471
 1944TIP3    H127247   1.459   1.599  13.968  0.5863 -0.4514  0.9525
 1944TIP3    H227248   1.414   1.724  13.896 -2.5988 -2.1060 -0.1115
 1945TIP3   OH227249   0.656   0.362   3.821  0.2176  0.0312 -0.5663
 1945TIP3    H127250   0.578   0.310   3.801  0.0684 -0.2076  0.5747
 1945TIP3    H227251   0.673   0.412   3.741  1.3063 -2.9347 -2.3415
 1946TIP3   OH227252   6.430   4.688   5.712 -0.0118  0.2529 -0.4263
 1946TIP3    H127253   6.375   4.692   5.790 -0.1982  1.1580 -0.5974
 1946TIP3    H227254   6.474   4.603   5.718 -2.1341 -0.9439 -0.7717
 1947TIP3   OH227255   2.321   5.147  13.015  0.5181  0.2884 -0.0255
 1947TIP3    H127256   2.355   5.176  13.100 -0.6426 -0.0045  0.5496
 1947TIP3    H227257   2.400   5.123  12.966  1.1676 -0.7383  1.4054
 1948TIP3   OH227258   5.787   1.954  17.134 -0.1636  0.0292 -0.2174
 1948TIP3    H127259   5.759   1.887  17.196  2.6781 -0.4177  0.6780
 1948TIP3    H227260   5.829   1.905  17.063 -1.2283  0.7087 -1.3753
 1949TIP3   OH227261   1.396   6.616  12.865 -0.1669  0.0838 -0.1305
 1949TIP3    H127262   1.467   6.602  12.804 -0.8324  0.3501 -0.9831
 1949TIP3    H227263   1.388   6.712  12.871  0.3611  0.0794  0.9413
 1950TIP3   OH227264   0.261   0.345  17.127  0.2456  0.4624  0.1253
 1950TIP3    H127265   0.191   0.366  17.188 -0.1104  0.8913 -0.4211
 1950TIP3    H227266   0.219   0.291  17.060  0.2358  1.4205 -0.6584
 1951TIP3   OH227267   3.469   1.608   6.246 -0.6681  0.0307  0.6177
 1951TIP3    H127268   3.517   1.647   6.319  3.1732 -0.5993 -1.2965
 1951TIP3    H227269   3.445   1.520   6.276  1.7325 -0.5940  0.9025
 1952TIP3   OH227270   2.666   5.646  14.342 -0.1360  0.1945  0.1680
 1952TIP3    H127271   2.707   5.722  14.384  1.1087 -0.1927 -0.2991
 1952TIP3    H227272   2.580   5.640  14.382  0.1615  1.2051  0.9982
 1953TIP3   OH227273   3.481   2.538   5.887 -0.2884  0.3611 -0.1631
 1953TIP3    H127274   3.564   2.580   5.866  0.0299 -0.3018 -0.2385
 1953TIP3    H227275   3.424   2.559   5.813  0.0821  0.0643 -0.5305
 1954TIP3   OH227276   6.701   4.581  12.459 -0.4478  0.7267  0.1941
 1954TIP3    H127277   6.747   4.517  12.514  0.4468  1.9328  0.9116
 1954TIP3    H227278   6.619   4.539  12.437  0.0260 -0.5912  0.8161
 1955TIP3   OH227279   3.428   6.366   3.521 -0.4009 -0.6097  0.2383
 1955TIP3    H127280   3.430   6.270   3.516  0.6106 -0.5456 -1.4404
 1955TIP3    H227281   3.336   6.389   3.507 -0.7293 -1.3236  1.0996
 1956TIP3   OH227282   3.016   5.541  15.351 -0.1550  0.3221 -0.4546
 1956TIP3    H127283   2.922   5.555  15.340  0.0409  0.7488 -1.7790
 1956TIP3    H227284   3.056   5.622  15.319  0.6619  0.2177  0.2731
 1957TIP3   OH227285   0.658   0.541  11.383  0.0124 -0.2709  0.2313
 1957TIP3    H127286   0.584   0.484  11.404 -0.6795  0.5720  0.1148
 1957TIP3    H227287   0.643   0.621  11.434 -0.0108  0.5445 -1.0276
 1958TIP3   OH227288   1.349   5.086  13.285 -0.5593  0.0227  0.0366
 1958TIP3    H127289   1.306   5.028  13.223  0.5912 -0.6412 -0.1681
 1958TIP3    H227290   1.437   5.049  13.296  0.1618  1.6336  0.0044
 1959TIP3   OH227291   1.877   2.872  12.790 -0.3209 -0.4257 -0.2382
 1959TIP3    H127292   1.956   2.912  12.752 -1.1327 -1.3443 -3.2054
 1959TIP3    H227293   1.899   2.779  12.798 -0.3192 -0.3121  1.2462
 1960TIP3   OH227294   1.386   2.785   2.651  0.1780  0.2607  0.3059
 1960TIP3    H127295   1.335   2.708   2.624  3.5224 -0.8358 -3.9560
 1960TIP3    H227296   1.452   2.750   2.711  0.8390  0.0435 -0.5366
 1961TIP3   OH227297   6.450   6.600   2.216  0.3593 -0.1716 -0.5410
 1961TIP3    H127298   6.380   6.605   2.151  0.5299  1.0179 -0.6592
 1961TIP3    H227299   6.491   6.687   2.213 -0.3296  0.3119  1.9194
 1962TIP3   OH227300   5.831   5.144   0.440  0.6773  0.1182 -0.3471
 1962TIP3    H127301   5.884   5.199   0.382 -0.4984  0.0165 -1.5846
 1962TIP3    H227302   5.780   5.206   0.492  0.5182  0.2218 -0.6206
 1963TIP3   OH227303   4.080   0.834  11.210 -0.4789 -0.4499  0.5642
 1963TIP3    H127304   4.001   0.846  11.158  0.8212 -1.9679 -1.9303
 1963TIP3    H227305   4.145   0.891  11.171  0.5053 -1.5264  0.5644
 1964TIP3   OH227306   2.957   5.751   5.734 -0.2452  0.2222  0.4080
 1964TIP3    H127307   3.052   5.746   5.749 -0.2661 -1.6957  0.1349
 1964TIP3    H227308   2.919   5.726   5.818 -0.4608 -0.7586  0.0375
 1965TIP3   OH227309   3.720   4.061  16.829  0.6394  0.3043 -0.8614
 1965TIP3    H127310   3.703   4.031  16.739 -2.1868  1.8382 -0.9464
 1965TIP3    H227311   3.677   3.995  16.884 -0.4454  1.0289 -0.8113
 1966TIP3   OH227312   2.650   1.262  16.501  0.3713  0.3531  0.2502
 1966TIP3    H127313   2.648   1.177  16.545 -1.4409 -1.0220 -2.2669
 1966TIP3    H227314   2.720   1.253  16.436  1.5652  1.5896  1.3010
 1967TIP3   OH227315   0.598   6.182   1.484  0.0100 -0.3671 -0.6178
 1967TIP3    H127316   0.653   6.247   1.528  0.9482 -1.4426 -0.1548
 1967TIP3    H227317   0.597   6.107   1.543 -1.6916 -0.5133 -0.7849
 1968TIP3   OH227318   5.586   2.540   4.826 -0.1008 -0.0133  0.0114
 1968TIP3    H127319   5.542   2.548   4.911 -0.7783 -2.0530 -0.0992
 1968TIP3    H227320   5.517   2.555   4.761 -0.2331 -1.2560 -0.1571
 1969TIP3   OH227321   5.181   3.669  12.174  1.0638 -0.1145  0.3169
 1969TIP3    H127322   5.120   3.665  12.248  0.3240 -2.5603 -0.3311
 1969TIP3    H227323   5.128   3.699  12.101  0.5855 -2.1554 -0.2266
 1970TIP3   OH227324   1.627   6.488  11.527  0.1200 -0.0027  0.6312
 1970TIP3    H127325   1.627   6.396  11.502 -1.3551  0.2191 -0.3119
 1970TIP3    H227326   1.709   6.500  11.576  1.4438 -1.2682 -1.1712
 1971TIP3   OH227327   3.704   5.431   0.978 -0.0838  0.4809  0.6807
 1971TIP3    H127328   3.773   5.394   0.924  0.8066 -0.1407  2.1806
 1971TIP3    H227329   3.738   5.427   1.067 -0.5335  3.6270  1.1026
 1972TIP3   OH227330   5.297   6.090  11.276  0.2888 -0.5607  0.6601
 1972TIP3    H127331   5.244   6.164  11.306 -1.4746 -0.9255 -1.3224
 1972TIP3    H227332   5.249   6.012  11.307 -0.0443 -0.8917 -0.6491
 1973TIP3   OH227333   3.412   1.164   0.580  0.6139  0.7254 -0.0854
 1973TIP3    H127334   3.372   1.250   0.564  1.1350  1.1710  0.9045
 1973TIP3    H227335   3.490   1.163   0.524  0.5318  0.8418 -0.2021
 1974TIP3   OH227336   2.522   1.218  12.785 -0.0362  0.5981  0.2832
 1974TIP3    H127337   2.568   1.262  12.715 -1.8586  1.1171 -0.6554
 1974TIP3    H227338   2.443   1.270  12.799  0.4401  0.7692  3.0465
 1975TIP3   OH227339   3.687   2.207  11.700 -0.2092 -0.1670 -0.0268
 1975TIP3    H127340   3.761   2.221  11.640  0.2628 -0.7665  0.4102
 1975TIP3    H227341   3.694   2.115  11.726  0.6957  0.5260  2.4093
 1976TIP3   OH227342   1.234   2.746  16.371 -0.3675  0.4279  0.3855
 1976TIP3    H127343   1.218   2.823  16.426  0.5638  1.4158 -0.6764
 1976TIP3    H227344   1.231   2.779  16.282 -0.4948 -0.8870 -0.1215
 1977TIP3   OH227345   3.777   2.711   5.889  0.0826  0.1851  0.0395
 1977TIP3    H127346   3.770   2.802   5.860 -1.5906 -0.6534 -2.5402
 1977TIP3    H227347   3.761   2.715   5.984 -1.6492  2.4036 -0.2486
 1978TIP3   OH227348   4.196   2.661   5.480 -0.0558  0.0499  0.4474
 1978TIP3    H127349   4.267   2.618   5.529 -0.1169  1.3064  1.7246
 1978TIP3    H227350   4.142   2.701   5.548  0.2784  2.5262 -0.6269
 1979TIP3   OH227351   1.029   3.668   5.904  0.2642  0.4482  0.4647
 1979TIP3    H127352   1.076   3.587   5.884  0.2969  0.3503  0.9168
 1979TIP3    H227353   1.088   3.737   5.874  0.7637  0.3299  1.1330
 1980TIP3   OH227354   0.614   5.049  14.019  0.2149  0.1315 -0.4825
 1980TIP3    H127355   0.557   4.974  14.035 -0.9113  0.7067 -1.6730
 1980TIP3    H227356   0.621   5.055  13.924  2.3967  0.0123 -0.3797
 1981TIP3   OH227357   0.243   6.135   1.137 -0.5387 -0.3928 -0.0078
 1981TIP3    H127358   0.195   6.213   1.163  0.6420  0.2951  0.1933
 1981TIP3    H227359   0.238   6.076   1.212 -1.4880 -0.5485 -0.1858
 1982TIP3   OH227360   5.778   0.876  14.829 -0.1399  0.1366 -0.1830
 1982TIP3    H127361   5.702   0.895  14.885  1.9691  0.3848  2.8349
 1982TIP3    H227362   5.815   0.796  14.865  1.5447  0.5276 -0.9513
 1983TIP3   OH227363   3.757   4.062  14.686  0.0971  0.4250  0.4393
 1983TIP3    H127364   3.722   4.053  14.597  1.5657 -2.3762  0.0270
 1983TIP3    H227365   3.699   4.011  14.741  0.9607 -0.5164  0.5068
 1984TIP3   OH227366   2.036   2.762  12.351 -0.0474  0.4721  0.0749
 1984TIP3    H127367   2.034   2.697  12.281  0.8829  1.3521 -0.8154
 1984TIP3    H227368   2.104   2.825  12.324  0.5552  0.6909  1.9149
 1985TIP3   OH227369   6.232   2.839  10.741  0.1234  0.2171 -0.3646
 1985TIP3    H127370   6.225   2.743  10.742 -0.6883  0.2295  2.0713
 1985TIP3    H227371   6.326   2.856  10.740  0.4370 -0.7477  2.6055
 1986TIP3   OH227372   3.475   4.572  16.023 -0.5384  0.2012 -0.0945
 1986TIP3    H127373   3.402   4.532  15.976 -1.9713  2.0344  0.4272
 1986TIP3    H227374   3.437   4.650  16.064  1.8154  1.4783 -0.1433
 1987TIP3   OH227375   0.864   3.570   5.087 -0.3265 -0.3600 -0.5352
 1987TIP3    H127376   0.800   3.575   5.016 -0.3616  0.9738 -0.4293
 1987TIP3    H227377   0.944   3.538   5.045 -0.4343  0.1301 -1.1262
 1988TIP3   OH227378   6.197   5.860  16.510 -0.0301 -0.1054 -0.7732
 1988TIP3    H127379   6.200   5.827  16.420  0.8310 -2.4814  0.0706
 1988TIP3    H227380   6.283   5.901  16.523 -0.5943  1.3610 -1.3608
 1989TIP3   OH227381   4.919   6.134  14.336 -0.0248 -0.4103  0.8658
 1989TIP3    H127382   4.946   6.042  14.335 -0.5980 -0.5898  1.7225
 1989TIP3    H227383   4.992   6.180  14.378  0.3670 -0.4202  0.2265
 1990TIP3   OH227384   2.585   0.482  12.484  0.3244  0.6044  0.3875
 1990TIP3    H127385   2.670   0.510  12.517  0.2436 -0.4066  1.5276
 1990TIP3    H227386   2.575   0.392  12.516 -1.0901  0.6392  0.1105
 1991TIP3   OH227387   4.601   4.285  11.608  0.1538 -0.8809 -0.3235
 1991TIP3    H127388   4.687   4.301  11.568  0.5728  0.8698  1.1215
 1991TIP3    H227389   4.618   4.223  11.678  0.1189 -1.0414 -0.4572
 1992TIP3   OH227390   2.499   3.974   3.624 -0.0490 -0.5693  0.0607
 1992TIP3    H127391   2.563   4.025   3.575  1.0402 -1.5875  0.3809
 1992TIP3    H227392   2.520   3.991   3.716 -1.5419  0.6645  0.2177
 1993TIP3   OH227393   6.368   3.941  11.740  0.0234 -0.0836  0.1304
 1993TIP3    H127394   6.306   3.989  11.685  1.3509  0.5302 -0.8763
 1993TIP3    H227395   6.313   3.879  11.788 -1.3256  0.1387 -1.0397
 1994TIP3   OH227396   1.179   4.587  11.865 -0.2318 -0.3906  0.3068
 1994TIP3    H127397   1.226   4.505  11.884  1.5242  0.7816  1.3242
 1994TIP3    H227398   1.247   4.647  11.834 -1.5828  0.5344 -0.9884
 1995TIP3   OH227399   1.753   2.242  16.959  0.2220  0.5179 -0.2288
 1995TIP3    H127400   1.846   2.236  16.977  0.3270 -1.3599 -1.1286
 1995TIP3    H227401   1.713   2.177  17.017 -0.0090 -1.6394 -2.6046
 1996TIP3   OH227402   4.511   5.178   2.077 -0.1527  0.7812  0.4113
 1996TIP3    H127403   4.538   5.266   2.104  0.6234  1.0182 -1.0672
 1996TIP3    H227404   4.435   5.192   2.021  0.7361  0.6516 -0.8812
 1997TIP3   OH227405   4.385   6.304  12.866  0.2732  0.0842 -0.5086
 1997TIP3    H127406   4.369   6.211  12.879 -0.9983  0.4467  0.9660
 1997TIP3    H227407   4.477   6.311  12.843  0.7695 -1.4316  0.8655
 1998TIP3   OH227408   6.301   4.559  16.310  1.0290  0.2282 -0.2218
 1998TIP3    H127409   6.246   4.635  16.325 -0.7848 -1.1880  0.6618
 1998TIP3    H227410   6.259   4.512  16.238  0.7093 -1.1762  0.8416
 1999TIP3   OH227411   0.087   2.439   1.425  0.3890 -0.2460  0.0776
 1999TIP3    H127412   0.051   2.504   1.365  0.7323  1.2216  1.3854
 1999TIP3    H227413   0.010   2.400   1.466  0.1719 -0.8216 -0.8533
 2000TIP3   OH227414   5.989   5.486  15.572  0.0156 -0.3622 -0.0373
 2000TIP3    H127415   6.013   5.460  15.661  1.2574 -1.5182 -0.6640
 2000TIP3    H227416   5.914   5.545  15.583  1.3535  1.1224  1.8886
 2001TIP3   OH227417   0.278   3.870  14.629  0.5136  0.1503  0.4617
 2001TIP3    H127418   0.195   3.826  14.612  2.0341 -2.7466 -0.0665
 2001TIP3    H227419   0.283   3.877  14.724 -0.3143  0.3259  0.4925
 2002TIP3   OH227420   1.483   0.190  12.990  0.2202 -0.1496 -0.4471
 2002TIP3    H127421   1.497   0.285  12.991  0.1277 -0.1202 -1.1954
 2002TIP3    H227422   1.469   0.169  12.897  1.2027 -1.0349 -0.4134
 2003TIP3   OH227423   5.683   4.785   2.273  0.1074  0.6131 -0.1235
 2003TIP3    H127424   5.759   4.762   2.326 -0.1710 -0.4169 -0.1446
 2003TIP3    H227425   5.609   4.742   2.316 -0.2806  0.6335 -0.7547
 2004TIP3   OH227426   0.450   6.175   2.103 -0.1096 -0.3061 -0.1752
 2004TIP3    H127427   0.446   6.208   2.013  1.6494 -1.9508 -0.9158
 2004TIP3    H227428   0.440   6.080   2.094 -0.9126 -0.4111  1.4912
 2005TIP3   OH227429   5.993   0.145  11.649 -0.1686  0.3393  0.1742
 2005TIP3    H127430   5.958   0.210  11.709  0.2575  1.5091 -0.8092
 2005TIP3    H227431   6.067   0.188  11.606  1.9886 -1.7318  1.5415
 2006TIP3   OH227432   5.963   3.726  15.067  0.1266  0.4039  0.6473
 2006TIP3    H127433   6.033   3.714  15.002 -1.2765  0.1318 -0.8922
 2006TIP3    H227434   5.959   3.820  15.081  0.2898  0.4862  0.1481
 2007TIP3   OH227435   2.288   5.128  16.274 -0.3390 -0.0743 -0.3429
 2007TIP3    H127436   2.292   5.215  16.235 -1.1981 -0.5427 -1.5675
 2007TIP3    H227437   2.196   5.104  16.270 -0.2426 -0.7047  0.7784
 2008TIP3   OH227438   5.522   0.969  16.104  0.1501 -0.1784  0.6587
 2008TIP3    H127439   5.612   0.953  16.133 -0.2299 -0.4643  1.7211
 2008TIP3    H227440   5.480   0.883  16.110 -0.3545  0.0770  0.7645
 2009TIP3   OH227441   6.654   5.307  14.246  0.1785  0.1884  0.4196
 2009TIP3    H127442   6.596   5.335  14.175  1.6633  4.2068  0.5463
 2009TIP3    H227443   6.737   5.287  14.203  0.4373  0.4638  0.7807
 2010TIP3   OH227444   1.470   1.223   2.041  0.0448 -0.4071  0.0402
 2010TIP3    H127445   1.529   1.165   1.992 -0.1301  0.5202 -1.3063
 2010TIP3    H227446   1.520   1.246   2.120  0.4336 -1.7148  0.2061
 2011TIP3   OH227447   1.077   2.093   0.203  0.2517  0.1672 -0.5615
 2011TIP3    H127448   1.067   1.998   0.197  0.6056  0.1063 -0.1859
 2011TIP3    H227449   1.070   2.113   0.296 -1.0647  0.6579 -0.7373
 2012TIP3   OH227450   0.549   5.962  10.225  0.3666  0.5957 -0.0308
 2012TIP3    H127451   0.499   6.042  10.207 -0.8196 -0.0616  0.2246
 2012TIP3    H227452   0.489   5.891  10.202  0.8626 -0.2293  1.1490
 2013TIP3   OH227453   4.594   2.222  15.563  0.3134 -0.3284  0.2287
 2013TIP3    H127454   4.651   2.286  15.607 -0.6081 -0.7804  2.1896
 2013TIP3    H227455   4.646   2.143  15.558  0.3269 -0.3737  0.8857
 2014TIP3   OH227456   0.193   5.982  13.208 -0.0210 -0.0725 -0.4008
 2014TIP3    H127457   0.106   5.943  13.205 -0.2534  0.4448 -0.4458
 2014TIP3    H227458   0.232   5.961  13.123 -0.2997  0.1472 -0.5848
 2015TIP3   OH227459   3.134   1.149  11.975 -1.2659  0.4302 -0.3355
 2015TIP3    H127460   3.204   1.094  12.011 -0.8581  0.9767 -0.2790
 2015TIP3    H227461   3.058   1.091  11.971 -0.8100 -0.1740 -0.4049
 2016TIP3   OH227462   0.952   3.768   2.998 -0.0271  0.0965  0.3831
 2016TIP3    H127463   0.949   3.672   3.004  0.5416  0.0904  0.5721
 2016TIP3    H227464   1.014   3.795   3.065  0.5697  0.5344 -0.3382
 2017TIP3   OH227465   3.100   4.649  14.453 -0.2064 -0.2709  0.4667
 2017TIP3    H127466   3.160   4.656  14.527 -1.3002  0.4697  1.3332
 2017TIP3    H227467   3.149   4.683  14.379 -0.0332  1.9095  1.4799
 2018TIP3   OH227468   0.949   6.575  13.585 -0.0286  0.0834 -0.3065
 2018TIP3    H127469   1.017   6.526  13.631  0.1285  1.8306  1.4582
 2018TIP3    H227470   0.995   6.621  13.515  0.6351  1.1660  0.8077
 2019TIP3   OH227471   4.437   0.588   4.429 -0.3539 -0.1996 -0.0080
 2019TIP3    H127472   4.403   0.657   4.485 -1.9984  0.2823 -1.5138
 2019TIP3    H227473   4.428   0.508   4.482 -3.5367 -0.0399 -0.0834
 2020TIP3   OH227474   4.821   0.449  15.879  0.6454 -0.1885  0.4694
 2020TIP3    H127475   4.728   0.442  15.899  0.4577  2.9340  1.1297
 2020TIP3    H227476   4.838   0.377  15.818 -2.5757  0.0812 -0.9358
 2021TIP3   OH227477   2.923   5.111   2.906 -0.2880  0.1292  0.3883
 2021TIP3    H127478   2.947   5.202   2.894 -0.0837  0.1344  0.8346
 2021TIP3    H227479   2.827   5.112   2.909 -0.5344 -0.0833 -3.0454
 2022TIP3   OH227480   2.874   4.568  13.111  0.1715 -0.4053 -0.3829
 2022TIP3    H127481   2.786   4.533  13.098  0.3897 -2.5093  2.7144
 2022TIP3    H227482   2.912   4.572  13.024 -2.4454 -0.9041 -1.6335
 2023TIP3   OH227483   4.621   1.979   4.561 -0.2975 -0.3312  0.1269
 2023TIP3    H127484   4.527   1.991   4.577 -0.2782  0.6164 -0.3529
 2023TIP3    H227485   4.629   1.889   4.529 -0.6238 -1.5131  3.0239
 2024TIP3   OH227486   1.014   5.943   1.288 -0.2615 -0.3192  0.3920
 2024TIP3    H127487   0.958   5.897   1.352 -0.4187  1.0441  1.2820
 2024TIP3    H227488   1.074   5.994   1.342  2.1407 -2.0005 -0.5397
 2025TIP3   OH227489   0.100   4.634  13.442 -0.1694 -0.1107 -0.0262
 2025TIP3    H127490   0.187   4.638  13.482 -0.4168 -1.3042  0.6742
 2025TIP3    H227491   0.039   4.653  13.514 -0.5351 -0.2606 -0.2936
 2026TIP3   OH227492   3.176   5.163  13.345 -0.2259 -0.1369 -0.8382
 2026TIP3    H127493   3.242   5.212  13.296  1.1837 -0.7177  0.3922
 2026TIP3    H227494   3.165   5.212  13.427 -0.3356 -0.7498 -0.4755
 2027TIP3   OH227495   2.810   0.126   4.951 -0.3657 -0.0702  0.4635
 2027TIP3    H127496   2.838   0.196   5.011  2.2135  1.4449 -2.2684
 2027TIP3    H227497   2.839   0.045   4.993  1.0084  0.8981  1.4577
 2028TIP3   OH227498   5.186   6.126   2.088 -0.8154  0.1422  0.2014
 2028TIP3    H127499   5.278   6.102   2.076 -0.3860  1.4874  0.6068
 2028TIP3    H227500   5.160   6.081   2.168  0.4435  2.1221  1.8454
 2029TIP3   OH227501   5.697   3.758  14.297 -0.2516 -0.7050 -0.0041
 2029TIP3    H127502   5.712   3.760  14.391 -0.1923  1.0008 -0.0166
 2029TIP3    H227503   5.782   3.780  14.259 -0.7094  0.5017 -0.3706
 2030TIP3   OH227504   1.086   3.798  16.311  0.5864  0.3433 -0.0015
 2030TIP3    H127505   1.044   3.838  16.235 -4.6051 -0.8272  1.8035
 2030TIP3    H227506   1.088   3.868  16.377  0.4818  0.1150  0.2455
 2031TIP3   OH227507   5.271   5.093   1.991 -0.3078 -0.0605  0.0358
 2031TIP3    H127508   5.362   5.084   1.962 -0.6053 -2.0458 -0.4238
 2031TIP3    H227509   5.258   5.188   2.000  1.7822  0.2711  0.0899
 2032TIP3   OH227510   1.902   3.067   0.363 -0.0020 -0.0169 -0.0798
 2032TIP3    H127511   1.824   3.012   0.352  1.0158 -1.8441  1.2202
 2032TIP3    H227512   1.904   3.087   0.456 -0.8374  3.1503 -0.6284
 2033TIP3   OH227513   4.307   5.841  11.390  0.3425  0.0816  0.4484
 2033TIP3    H127514   4.225   5.803  11.358  0.2776  1.8425 -1.7261
 2033TIP3    H227515   4.281   5.919  11.438  0.6896  0.0391  0.7125
 2034TIP3   OH227516   1.381   1.596   3.124  0.0056  0.3248  0.4544
 2034TIP3    H127517   1.434   1.676   3.127 -0.8002  0.8748  0.7861
 2034TIP3    H227518   1.309   1.618   3.065  0.8635 -0.8886 -1.0962
 2035TIP3   OH227519   1.552   5.712   0.784  0.8368 -0.3113  0.4010
 2035TIP3    H127520   1.636   5.684   0.747  1.0283  0.9601 -0.1840
 2035TIP3    H227521   1.543   5.803   0.757 -1.1634 -0.6747 -0.3374
 2036TIP3   OH227522   4.949   3.062  11.362 -0.0016 -0.0868 -0.2757
 2036TIP3    H127523   5.020   3.029  11.416  0.0881  0.0550 -0.3078
 2036TIP3    H227524   4.935   2.994  11.297 -0.3373 -0.4098  0.1332
 2037TIP3   OH227525   3.295   5.680   0.491 -0.3974  0.7215  0.5384
 2037TIP3    H127526   3.258   5.636   0.568 -1.0812 -0.3028 -0.3508
 2037TIP3    H227527   3.244   5.761   0.483 -0.8004  0.4896  0.7458
 2038TIP3   OH227528   2.255   4.641   2.284  0.5272  0.5472 -0.2799
 2038TIP3    H127529   2.294   4.625   2.370 -0.4852 -0.4437  0.0314
 2038TIP3    H227530   2.161   4.642   2.301  0.3741  2.2377 -1.1051
 2039TIP3   OH227531   5.120   0.590   2.823  0.0703 -0.0129 -0.2432
 2039TIP3    H127532   5.178   0.630   2.888  0.1176  1.0200 -0.9047
 2039TIP3    H227533   5.033   0.594   2.863 -0.0275  1.3681 -0.5584
 2040TIP3   OH227534   2.709   2.877   6.181 -0.5940  0.2654  0.5502
 2040TIP3    H127535   2.661   2.951   6.142 -0.6447 -0.6822 -1.3076
 2040TIP3    H227536   2.650   2.842   6.248 -1.6663  0.3555 -0.3242
 2041TIP3   OH227537   0.979   0.450   5.677 -0.5639  0.0500  0.2724
 2041TIP3    H127538   0.956   0.467   5.768 -0.5256 -3.7484  1.1851
 2041TIP3    H227539   0.895   0.436   5.633 -0.5999 -3.2146  1.0932
 2042TIP3   OH227540   4.961   3.692   1.385 -0.0500 -0.3500  0.1510
 2042TIP3    H127541   4.949   3.603   1.418 -2.1360 -0.7260 -1.4468
 2042TIP3    H227542   4.931   3.689   1.294  1.0199  1.7151 -0.3421
 2043TIP3   OH227543   4.247   0.899   2.553  0.1415  0.0445  0.4182
 2043TIP3    H127544   4.318   0.900   2.617 -1.2088 -1.0254  2.0222
 2043TIP3    H227545   4.211   0.988   2.555  2.0520  0.9341 -1.2336
 2044TIP3   OH227546   6.503   3.442   6.313 -0.2779  0.1387  0.5134
 2044TIP3    H127547   6.408   3.448   6.321 -0.2612  0.0945  0.7631
 2044TIP3    H227548   6.528   3.519   6.262 -0.3046  0.9563  1.6871
 2045TIP3   OH227549   2.079   6.290   0.635 -0.4050  0.3636 -0.3507
 2045TIP3    H127550   2.115   6.375   0.609 -0.4921  0.6750  0.4927
 2045TIP3    H227551   2.012   6.312   0.699 -1.1692 -0.2913 -0.9171
 2046TIP3   OH227552   5.962   5.907  11.341 -0.0709 -0.4050 -0.0905
 2046TIP3    H127553   5.915   5.968  11.284  0.5209  1.0713  0.9415
 2046TIP3    H227554   6.039   5.881  11.291  0.0158  0.2289 -0.2950
 2047TIP3   OH227555   4.637   3.616   4.830 -0.2090 -0.5921  0.4061
 2047TIP3    H127556   4.638   3.548   4.763 -1.3767 -2.7553  2.4704
 2047TIP3    H227557   4.720   3.663   4.817 -0.1665 -1.2417 -2.1810
 2048TIP3   OH227558   3.141   1.878  12.655 -0.5732 -0.5831 -0.0987
 2048TIP3    H127559   3.116   1.969  12.669  2.0368 -0.0026  1.5426
 2048TIP3    H227560   3.195   1.856  12.731 -2.2371 -3.9908  0.3055
 2049TIP3   OH227561   5.036   0.084   2.129  0.1913 -0.1231 -0.2503
 2049TIP3    H127562   5.043  -0.002   2.087  0.7934  0.9096 -2.4300
 2049TIP3    H227563   5.123   0.100   2.166 -0.4387 -1.1877  1.8305
 2050TIP3   OH227564   0.414   0.106   0.734  0.0621 -0.4641  0.3545
 2050TIP3    H127565   0.456   0.190   0.752  0.3505 -0.6181  0.4133
 2050TIP3    H227566   0.329   0.112   0.776 -0.6557  0.4745 -1.1257
 2051TIP3   OH227567   4.082   1.816  12.476  0.0449 -0.1839  0.2783
 2051TIP3    H127568   4.075   1.809  12.571 -1.2502  0.4631  0.2469
 2051TIP3    H227569   3.997   1.850  12.448  0.2296 -0.8480 -1.1665
 2052TIP3   OH227570   5.465   4.682   4.261  0.3498 -0.7269 -0.3012
 2052TIP3    H127571   5.501   4.763   4.224 -2.2398  0.4127 -0.5322
 2052TIP3    H227572   5.399   4.711   4.324  0.5030 -2.6892  0.8610
 2053TIP3   OH227573   0.210   6.006  12.720 -0.0921  0.0086 -0.0570
 2053TIP3    H127574   0.151   5.952  12.774 -1.7562  2.0793  0.3041
 2053TIP3    H227575   0.227   5.952  12.643 -0.4448 -1.6278  0.9396
 2054TIP3   OH227576   6.738   4.988   5.472 -0.2370  0.3780 -0.2509
 2054TIP3    H127577   6.719   4.908   5.522 -0.6662  1.1784  0.9022
 2054TIP3    H227578   6.832   5.002   5.484  0.2292 -0.8977 -1.9360
 2055TIP3   OH227579   2.516   5.584   4.796  0.7157 -0.1379 -0.5881
 2055TIP3    H127580   2.587   5.632   4.754 -0.0088  1.7117  0.1735
 2055TIP3    H227581   2.443   5.646   4.798  0.0035 -0.9557  1.2829
 2056TIP3   OH227582   4.214   4.265  16.114  0.8306  0.1744  0.3527
 2056TIP3    H127583   4.301   4.305  16.121  0.8639  0.1311  0.1876
 2056TIP3    H227584   4.157   4.338  16.089  1.0892 -0.0976 -1.0999
 2057TIP3   OH227585   1.226   3.147   0.293 -0.6834  0.2828  0.3219
 2057TIP3    H127586   1.186   3.210   0.233  0.5319  0.0126 -0.8174
 2057TIP3    H227587   1.268   3.201   0.360  1.3695  0.8118 -1.2880
 2058TIP3   OH227588   0.962   4.589   3.720  0.9346  0.2518 -0.0957
 2058TIP3    H127589   0.944   4.510   3.670  0.5626 -0.5440  1.2459
 2058TIP3    H227590   0.895   4.589   3.789  0.6437  1.9721 -0.3229
 2059TIP3   OH227591   3.705   3.650  11.602 -0.5577 -0.3390  0.0753
 2059TIP3    H127592   3.709   3.728  11.658 -1.4609  0.2814 -0.6946
 2059TIP3    H227593   3.795   3.638  11.571 -0.4649  0.5783 -0.0315
 2060TIP3   OH227594   4.925   3.453   1.687 -0.6856 -0.0121 -0.1027
 2060TIP3    H127595   4.988   3.423   1.752  0.9989  0.4143 -1.4679
 2060TIP3    H227596   4.877   3.523   1.731  0.7270  0.5813  0.5528
 2061TIP3   OH227597   5.492   2.486  14.804 -0.0825 -0.0454  0.4566
 2061TIP3    H127598   5.535   2.481  14.889  2.1199 -0.6726 -0.6325
 2061TIP3    H227599   5.455   2.399  14.790 -0.8122  0.1756  0.9008
 2062TIP3   OH227600   3.942   6.448  13.885  0.5830  0.1846  0.1207
 2062TIP3    H127601   3.867   6.446  13.944  0.8175  0.9693  0.4614
 2062TIP3    H227602   3.930   6.526  13.832  0.8814  0.0186 -0.1971
 2063TIP3   OH227603   0.951   5.035  12.714  0.3637 -0.0823 -0.2799
 2063TIP3    H127604   0.928   4.946  12.737 -0.2997  0.6949  2.3732
 2063TIP3    H227605   0.869   5.075  12.686  0.4913 -0.0399 -0.6057
 2064TIP3   OH227606   5.232   2.250   0.308  0.5672 -0.0762  0.1562
 2064TIP3    H127607   5.191   2.336   0.305 -1.4211 -0.9497  0.2060
 2064TIP3    H227608   5.269   2.243   0.395  2.0819  1.2615 -0.3392
 2065TIP3   OH227609   3.023   4.861   5.754  0.6999  0.2340 -0.0697
 2065TIP3    H127610   2.967   4.923   5.800  0.5292  0.9288 -1.1929
 2065TIP3    H227611   2.982   4.776   5.769 -1.2322  0.8328 -1.6872
 2066TIP3   OH227612   2.956   6.228   4.824 -0.0067  0.4785 -0.1913
 2066TIP3    H127613   2.914   6.200   4.906  0.6818  3.2336  1.2101
 2066TIP3    H227614   3.049   6.215   4.839  0.1550  1.3922 -0.3234
 2067TIP3   OH227615   0.785   4.496   6.495  0.0379 -0.3186  0.7082
 2067TIP3    H127616   0.819   4.432   6.433 -0.9116 -0.5905  0.4558
 2067TIP3    H227617   0.692   4.475   6.504 -0.0550  0.3377  1.4625
 2068TIP3   OH227618   4.547   0.076   2.491  0.5313  0.0306  0.2535
 2068TIP3    H127619   4.538   0.127   2.410  0.6630 -1.0373 -0.4436
 2068TIP3    H227620   4.532  -0.015   2.464 -0.1031 -0.2681  1.5587
 2069TIP3   OH227621   6.609   1.889   5.158  0.4742 -0.4916 -0.0128
 2069TIP3    H127622   6.546   1.922   5.093  1.5174 -0.6240 -1.1368
 2069TIP3    H227623   6.694   1.900   5.115  1.7503  3.5216  2.9307
 2070TIP3   OH227624   4.802   5.821  15.236  0.1755  0.0659 -0.4428
 2070TIP3    H127625   4.709   5.821  15.216 -0.0100  0.6324  0.3432
 2070TIP3    H227626   4.845   5.838  15.152 -0.4806  0.8070 -0.6453
 2071TIP3   OH227627   3.031   1.035   6.626 -0.3115  0.3278  0.0525
 2071TIP3    H127628   3.094   0.990   6.682 -1.6533  0.2813  1.6032
 2071TIP3    H227629   3.062   1.020   6.537  0.9310 -1.0812  0.6874
 2072TIP3   OH227630   2.422   6.465   1.811 -0.6258 -0.9746 -0.3051
 2072TIP3    H127631   2.346   6.518   1.833 -0.1339 -0.8789  1.2289
 2072TIP3    H227632   2.435   6.408   1.887  0.8200 -1.0071 -0.5453
 2073TIP3   OH227633   5.874   0.856  11.812 -0.2969 -0.2553  0.8714
 2073TIP3    H127634   5.794   0.817  11.848 -1.6870  1.0917 -0.6210
 2073TIP3    H227635   5.869   0.838  11.718  1.8044 -1.1867  0.8806
 2074TIP3   OH227636   3.131   3.350   3.906  0.2511  0.6270  0.0018
 2074TIP3    H127637   3.079   3.289   3.959 -0.7069  0.6952 -0.8203
 2074TIP3    H227638   3.127   3.314   3.817  0.6447  1.2604 -0.2802
 2075TIP3   OH227639   4.199   0.877   4.171 -0.1059 -0.0156 -0.5957
 2075TIP3    H127640   4.123   0.878   4.112 -0.2734  0.0099 -0.3797
 2075TIP3    H227641   4.232   0.967   4.169 -0.0315 -0.0460 -0.7533
 2076TIP3   OH227642   3.696   4.228  13.578 -1.0969 -0.7310  0.1634
 2076TIP3    H127643   3.744   4.220  13.660  0.4361 -0.2779 -0.6377
 2076TIP3    H227644   3.691   4.322  13.562  0.5122 -0.8218 -1.2450
 2077TIP3   OH227645   6.344   4.367  14.041  0.3152  0.0756 -0.0703
 2077TIP3    H127646   6.291   4.339  14.115 -1.8894  0.4754 -1.4018
 2077TIP3    H227647   6.382   4.287  14.007  0.4788 -0.2421  0.8340
 2078TIP3   OH227648   2.184   1.842  12.984 -0.1600 -0.1904  0.6951
 2078TIP3    H127649   2.169   1.902  13.056 -1.2312 -0.0385  0.3538
 2078TIP3    H227650   2.157   1.890  12.906 -2.6388 -1.6395  0.5661
 2079TIP3   OH227651   3.945   2.130  16.432  0.1567  0.8599 -0.0201
 2079TIP3    H127652   4.013   2.085  16.381 -1.2045 -0.1322 -1.0051
 2079TIP3    H227653   3.921   2.206  16.379  0.0000  0.8189 -0.0090
 2080TIP3   OH227654   1.396   2.347   5.843 -0.1829  0.1746 -0.3680
 2080TIP3    H127655   1.311   2.357   5.884 -1.1410 -1.1777 -1.8932
 2080TIP3    H227656   1.437   2.433   5.851 -1.8382  0.9575  0.0918
 2081TIP3   OH227657   4.402   5.817  13.250 -0.2291  0.3271  0.6961
 2081TIP3    H127658   4.497   5.820  13.251 -0.2352  0.8630 -0.0453
 2081TIP3    H227659   4.375   5.884  13.313 -0.1272  2.8538 -1.7578
 2082TIP3   OH227660   0.272   0.263  15.485 -0.7819  0.3440  0.3005
 2082TIP3    H127661   0.283   0.354  15.512  0.6360  0.2002  0.2728
 2082TIP3    H227662   0.325   0.256  15.405 -0.9868 -0.4676  0.2352
 2083TIP3   OH227663   1.590   3.697  11.993  0.1309  0.0096 -0.2507
 2083TIP3    H127664   1.621   3.718  12.081  0.7224 -3.6092  0.5696
 2083TIP3    H227665   1.495   3.697  12.000  0.1611  0.5878  0.1577
 2084TIP3   OH227666   4.959   1.987  16.010  0.2054 -0.0542 -0.5511
 2084TIP3    H127667   4.905   1.931  16.066  1.7185 -0.3198  0.7023
 2084TIP3    H227668   4.980   1.933  15.934  0.1007 -0.5402 -0.2408
 2085TIP3   OH227669   2.686   3.827  16.639  0.0428 -0.1884  0.2088
 2085TIP3    H127670   2.778   3.838  16.618  0.5387  0.7932  2.6097
 2085TIP3    H227671   2.676   3.867  16.725 -2.6085 -0.3840  0.0715
 2086TIP3   OH227672   0.406   5.032  11.458  0.1176 -0.9411  0.0221
 2086TIP3    H127673   0.408   4.936  11.467  1.1842 -0.8292  1.2692
 2086TIP3    H227674   0.314   5.054  11.464 -0.0583 -1.8128  0.8368
 2087TIP3   OH227675   0.251   1.175  11.912  0.3897  0.5801  0.1185
 2087TIP3    H127676   0.226   1.211  11.998 -0.1162  3.4655 -1.1032
 2087TIP3    H227677   0.329   1.225  11.887  1.1890 -0.9939 -0.6695
 2088TIP3   OH227678   0.830   4.665  14.515  0.0258 -0.4627  0.0566
 2088TIP3    H127679   0.886   4.610  14.461  1.8466 -0.2543  1.6293
 2088TIP3    H227680   0.888   4.733  14.549 -1.5928  0.8417  0.3109
 2089TIP3   OH227681   5.948   1.832  15.608  0.0365  0.4527 -0.3977
 2089TIP3    H127682   5.945   1.742  15.574 -1.2411  0.2573  0.1858
 2089TIP3    H227683   5.905   1.885  15.541 -1.4624  0.2336  0.3464
 2090TIP3   OH227684   0.942   2.461  13.141 -0.0451 -0.6872  0.5425
 2090TIP3    H127685   0.920   2.389  13.081  0.9859 -0.4295 -0.1776
 2090TIP3    H227686   1.002   2.516  13.090  0.6132 -0.3029  1.7090
 2091TIP3   OH227687   5.695   6.268   5.814 -0.0524 -0.3641  0.8277
 2091TIP3    H127688   5.768   6.321   5.845  0.8471 -0.3517 -1.1465
 2091TIP3    H227689   5.619   6.299   5.864  0.2728  3.2576 -0.6172
 2092TIP3   OH227690   2.088   5.691   1.534  0.3649 -0.4014  0.0565
 2092TIP3    H127691   2.098   5.776   1.577 -2.4738 -0.6768  1.4416
 2092TIP3    H227692   2.129   5.703   1.448  0.6148  2.1489  0.4671
 2093TIP3   OH227693   2.268   1.784   0.124 -0.0039  0.2106 -0.3925
 2093TIP3    H127694   2.328   1.729   0.174 -1.1841 -0.4788  0.3021
 2093TIP3    H227695   2.324   1.852   0.087  1.3672 -0.9876 -0.6233
 2094TIP3   OH227696   2.441   3.814   5.884  0.7408  0.1638 -0.0328
 2094TIP3    H127697   2.529   3.842   5.910  0.0073  1.2517  1.3881
 2094TIP3    H227698   2.391   3.895   5.877 -0.6724 -0.5489  1.1944
 2095TIP3   OH227699   4.444   3.394   0.056 -0.0944  0.0700 -0.1915
 2095TIP3    H127700   4.416   3.363  -0.030 -1.1088 -0.3104  0.2577
 2095TIP3    H227701   4.507   3.463   0.037  1.0626 -1.2105 -1.2206
 2096TIP3   OH227702   0.593   1.932   3.690 -0.3372  0.9858  0.0192
 2096TIP3    H127703   0.633   2.003   3.740 -0.6058  1.5422 -0.5434
 2096TIP3    H227704   0.503   1.929   3.721 -0.4132  1.1076 -0.1895
 2097TIP3   OH227705   3.820   3.178   3.147 -0.0102 -0.1420  0.0178
 2097TIP3    H127706   3.737   3.150   3.186  0.2431 -0.2171  0.5137
 2097TIP3    H227707   3.820   3.273   3.156 -0.3235 -0.0871 -0.5539
 2098TIP3   OH227708   0.518   5.436  14.888 -0.1270 -0.2972  0.0009
 2098TIP3    H127709   0.567   5.498  14.942  0.5307 -1.1859  0.4329
 2098TIP3    H227710   0.573   5.358  14.883  0.1403 -0.0564 -2.4494
 2099TIP3   OH227711   4.577   5.799   0.419 -0.3551  0.3568 -0.1215
 2099TIP3    H127712   4.634   5.850   0.361  0.3919  0.0086  0.2963
 2099TIP3    H227713   4.490   5.804   0.377  0.5165 -1.5787 -2.4015
 2100TIP3   OH227714   0.767   5.027   2.511 -0.5367 -0.0969 -0.4090
 2100TIP3    H127715   0.691   5.057   2.561  0.9792  0.8716  1.4284
 2100TIP3    H227716   0.804   5.107   2.474  0.2904 -0.3942 -0.2386
 2101TIP3   OH227717   1.262   2.108   2.860  0.1728 -0.2173  0.1455
 2101TIP3    H127718   1.198   2.100   2.790  0.2160  0.0977  0.0666
 2101TIP3    H227719   1.289   2.200   2.857  0.9127 -0.4358 -0.0712
 2102TIP3   OH227720   0.609   2.098   2.998  0.6448 -0.0764 -0.1166
 2102TIP3    H127721   0.578   2.022   2.949  1.1959 -0.6285  0.3695
 2102TIP3    H227722   0.702   2.105   2.976  0.9807 -0.5151  1.0435
 2103TIP3   OH227723   4.406   0.530   0.277 -0.3133 -0.0854 -0.0495
 2103TIP3    H127724   4.337   0.576   0.325  0.1109  1.3992 -0.7950
 2103TIP3    H227725   4.380   0.538   0.185  0.7743  0.3963 -0.3283
 2104TIP3   OH227726   2.617   0.077  14.386 -0.2840 -0.7252  0.2121
 2104TIP3    H127727   2.699   0.113  14.420 -0.2303 -0.5844 -0.0683
 2104TIP3    H227728   2.594   0.134  14.312 -0.6240 -0.7742  0.2774
 2105TIP3   OH227729   4.140   1.908   0.323  0.0511 -0.1849  0.6813
 2105TIP3    H127730   4.202   1.961   0.372  0.0294  0.3998  0.0866
 2105TIP3    H227731   4.064   1.898   0.381  0.7360 -1.0289  1.4749
 2106TIP3   OH227732   0.612   1.976   1.139  0.7477 -0.0889  0.0460
 2106TIP3    H127733   0.588   1.954   1.050  1.1169  0.4043 -0.1820
 2106TIP3    H227734   0.703   1.946   1.148  1.5340  1.9236 -0.5182
 2107TIP3   OH227735   1.522   4.658   2.791 -0.8149 -0.3028 -0.2994
 2107TIP3    H127736   1.448   4.620   2.743 -0.2117 -1.4736 -0.3295
 2107TIP3    H227737   1.574   4.583   2.819  0.7393  0.5205 -0.8590
 2108TIP3   OH227738   5.696   1.079   1.552 -0.2505 -0.7314  0.2013
 2108TIP3    H127739   5.728   1.053   1.638 -2.3300  0.9436  1.5951
 2108TIP3    H227740   5.613   1.033   1.542 -0.0275 -0.9245 -0.9449
 2109TIP3   OH227741   6.406   0.683  12.899 -0.6022  0.1116  0.0868
 2109TIP3    H127742   6.499   0.666  12.917 -1.0663 -3.5705 -0.1872
 2109TIP3    H227743   6.360   0.653  12.977 -1.6583  1.1664 -0.0959
 2110TIP3   OH227744   4.775   4.238   3.375  0.4403 -0.2041 -0.0173
 2110TIP3    H127745   4.712   4.171   3.401  1.4349 -0.7832  0.9842
 2110TIP3    H227746   4.858   4.209   3.413  1.6660 -0.2458 -2.4919
 2111TIP3   OH227747   1.864   3.070  14.927  0.2411 -0.1760  0.3252
 2111TIP3    H127748   1.958   3.075  14.912  0.1571 -3.6101 -2.7548
 2111TIP3    H227749   1.826   3.125  14.858  0.0357 -2.0401 -1.1150
 2112TIP3   OH227750   3.985   0.079  15.491 -0.4173  0.0848  0.0282
 2112TIP3    H127751   4.045   0.132  15.438  1.0269  0.3637  1.8366
 2112TIP3    H227752   4.035  -0.000  15.511 -0.3580  0.5805  2.0610
 2113TIP3   OH227753   6.411   6.554  15.588 -0.1398  0.0530  0.6286
 2113TIP3    H127754   6.425   6.648  15.599  0.7677  0.3962 -2.5479
 2113TIP3    H227755   6.484   6.514  15.634  0.0950  0.9247  1.0506
 2114TIP3   OH227756   4.892   4.610   4.259  0.1544  0.6177 -0.2534
 2114TIP3    H127757   4.915   4.645   4.345 -0.8369  0.2213  0.2006
 2114TIP3    H227758   4.956   4.541   4.243  0.0992  0.4148  0.3625
 2115TIP3   OH227759   0.280   4.971  14.970  1.1796 -0.4195 -0.3308
 2115TIP3    H127760   0.326   5.023  14.904 -0.4649 -1.4658 -2.4318
 2115TIP3    H227761   0.190   5.004  14.968  0.4671 -2.2689 -0.6092
 2116TIP3   OH227762   6.196   1.677   5.908  0.1205  0.4013  0.3074
 2116TIP3    H127763   6.185   1.755   5.962  1.2087 -0.9513  2.6255
 2116TIP3    H227764   6.262   1.702   5.843  0.2470  1.4953  0.8306
 2117TIP3   OH227765   0.542   0.822  15.295  0.2445  0.2611  0.7574
 2117TIP3    H127766   0.485   0.777  15.232 -0.5098  1.5242  0.5050
 2117TIP3    H227767   0.577   0.897  15.246  3.6355 -1.4248  0.2882
 2118TIP3   OH227768   0.374   1.333   0.231 -0.1036 -0.2972  0.2400
 2118TIP3    H127769   0.352   1.240   0.224 -0.1411 -0.4926  2.4158
 2118TIP3    H227770   0.423   1.340   0.313  1.6491  1.3172 -0.8524
 2119TIP3   OH227771   6.117   0.272  13.293 -0.3852 -0.0817 -0.9341
 2119TIP3    H127772   6.109   0.217  13.370  0.7234 -0.7964 -1.3192
 2119TIP3    H227773   6.062   0.230  13.227 -0.0475 -0.3698 -1.0311
 2120TIP3   OH227774   0.822   4.182  11.986 -0.1022 -0.5876  0.4146
 2120TIP3    H127775   0.885   4.167  12.057 -2.5197 -2.5557  2.3484
 2120TIP3    H227776   0.792   4.094  11.962 -1.4844  0.2266 -1.0086
 2121TIP3   OH227777   1.131   1.660   5.014  0.0795  0.2350 -0.0566
 2121TIP3    H127778   1.038   1.658   5.035  0.4498  0.7901  1.9350
 2121TIP3    H227779   1.141   1.602   4.939 -1.6944 -0.7632  0.4232
 2122TIP3   OH227780   0.468   2.579  11.214  0.1253  0.2577  0.1347
 2122TIP3    H127781   0.459   2.498  11.265 -0.9574  0.0420 -0.3614
 2122TIP3    H227782   0.537   2.559  11.151  1.4216  0.5009  1.4340
 2123TIP3   OH227783   0.912   0.059   3.363  0.0792 -0.2669 -0.5138
 2123TIP3    H127784   0.912   0.153   3.380 -0.5948 -0.5799  1.5613
 2123TIP3    H227785   0.848   0.047   3.293 -1.5066  0.6490  0.7011
 2124TIP3   OH227786   1.530   2.721   4.768 -0.0311  0.3306  0.4908
 2124TIP3    H127787   1.589   2.792   4.743 -0.1667  0.4384  0.4789
 2124TIP3    H227788   1.447   2.743   4.726  0.1610 -0.2771 -0.2350
 2125TIP3   OH227789   2.775   3.630  16.909 -0.8800 -0.2011  0.1542
 2125TIP3    H127790   2.740   3.560  16.854 -2.2714 -0.2872  1.0794
 2125TIP3    H227791   2.697   3.677  16.940  0.0130  2.0394 -0.7558
 2126TIP3   OH227792   1.123   0.724   2.945  0.5571 -0.3358  0.4370
 2126TIP3    H127793   1.059   0.745   2.878  2.2270 -0.1230 -1.1521
 2126TIP3    H227794   1.077   0.739   3.028 -1.2977  0.1458 -0.6386
 2127TIP3   OH227795   0.772   4.372  12.452 -0.0954 -0.8019 -0.3933
 2127TIP3    H127796   0.867   4.379  12.448 -0.0323 -1.2100  0.2156
 2127TIP3    H227797   0.744   4.456  12.489  0.1062 -1.0179  0.2729
 2128TIP3   OH227798   0.666   6.499  13.507 -0.0467 -0.3257  0.1489
 2128TIP3    H127799   0.664   6.450  13.590  1.0578 -0.1636  0.2820
 2128TIP3    H227800   0.746   6.551  13.512 -0.8642  1.0211 -0.2712
 2129TIP3   OH227801   5.004   5.153  14.362  0.2738  0.1477 -0.6539
 2129TIP3    H127802   5.038   5.098  14.292  1.1629 -1.5751  1.0325
 2129TIP3    H227803   5.053   5.126  14.440 -1.6885  0.9051  0.9480
 2130TIP3   OH227804   3.223   4.576   0.240  0.3966 -0.1510 -0.0385
 2130TIP3    H127805   3.145   4.598   0.190  0.6599 -0.4342 -0.5763
 2130TIP3    H227806   3.203   4.606   0.329  0.0138  0.5333 -0.3509
 2131TIP3   OH227807   5.730   4.792   3.258 -0.3712  0.3705 -0.0203
 2131TIP3    H127808   5.772   4.708   3.277  0.3948  0.5599 -0.8203
 2131TIP3    H227809   5.784   4.856   3.303 -1.2575  0.4151  1.0349
 2132TIP3   OH227810   4.198   1.421  14.465  0.4104 -0.1739  0.8727
 2132TIP3    H127811   4.195   1.503  14.415  0.8643 -0.4737  0.3379
 2132TIP3    H227812   4.107   1.405  14.489  0.0180 -0.5147 -0.6940
 2133TIP3   OH227813   3.524   5.130  13.410  0.0343  0.0003 -0.0219
 2133TIP3    H127814   3.497   5.051  13.363  0.9444 -0.9737  1.0318
 2133TIP3    H227815   3.486   5.202  13.359 -1.9280 -1.1372 -0.2960
 2134TIP3   OH227816   6.247   6.193   3.123 -0.0167 -0.0836 -0.3658
 2134TIP3    H127817   6.226   6.247   3.047 -1.8057 -0.0273  0.1001
 2134TIP3    H227818   6.273   6.256   3.190 -0.2478  0.0465 -0.3945
 2135TIP3   OH227819   6.565   6.693  15.238  0.2758  0.8867  0.3280
 2135TIP3    H127820   6.555   6.734  15.152  0.6253  0.6850  0.1896
 2135TIP3    H227821   6.512   6.614  15.234 -0.6518  1.4775  0.6995
 2136TIP3   OH227822   4.403   3.725   5.160 -0.1288  0.2686 -0.3059
 2136TIP3    H127823   4.458   3.721   5.238  0.3605 -0.9525 -0.7014
 2136TIP3    H227824   4.328   3.780   5.187 -0.5677 -1.0688  1.3909
 2137TIP3   OH227825   0.090   3.639  12.659  0.3834  0.0089 -0.5369
 2137TIP3    H127826   0.015   3.687  12.694  0.5473  0.5165 -0.8638
 2137TIP3    H227827   0.121   3.585  12.731  1.0637  1.4500  0.2805
 2138TIP3   OH227828   3.905   2.869  14.330  0.7105 -0.2652  0.1049
 2138TIP3    H127829   3.879   2.960  14.319  0.6933 -0.4208 -1.2022
 2138TIP3    H227830   3.996   2.865  14.301  0.1622 -1.0006 -1.6524
 2139TIP3   OH227831   3.283   4.157   0.828  0.4457  0.0706  0.2754
 2139TIP3    H127832   3.277   4.251   0.810  0.2141 -0.1943 -1.0939
 2139TIP3    H227833   3.218   4.142   0.896 -1.6423  0.4261 -1.5350
 2140TIP3   OH227834   3.242   0.710  16.618  0.6962  0.1877  0.2874
 2140TIP3    H127835   3.218   0.692  16.527  2.9220 -0.6792 -0.2003
 2140TIP3    H227836   3.192   0.646  16.669  2.5436 -2.2670 -0.7612
 2141TIP3   OH227837   3.600   3.059  14.613 -0.7614  0.3825  0.2280
 2141TIP3    H127838   3.687   3.041  14.648 -0.5411  0.7204 -0.1378
 2141TIP3    H227839   3.581   2.984  14.556 -0.1869  0.8961 -0.6606
 2142TIP3   OH227840   3.865   1.851   0.447 -0.2536 -0.2827  0.5228
 2142TIP3    H127841   3.799   1.920   0.449  0.0147 -0.0353  1.2155
 2142TIP3    H227842   3.815   1.770   0.434 -0.6784 -0.0778  0.8507
 2143TIP3   OH227843   2.926   5.434   5.680  0.1566  0.0313 -0.5426
 2143TIP3    H127844   2.911   5.526   5.701  0.4060 -0.0491 -0.0153
 2143TIP3    H227845   3.019   5.429   5.658  0.3683 -0.2685  0.3776
 2144TIP3   OH227846   1.712   4.824   0.516  0.2233  0.3545 -0.1377
 2144TIP3    H127847   1.735   4.860   0.430  0.5848 -0.7482 -0.5164
 2144TIP3    H227848   1.710   4.900   0.574  0.5688  1.0344 -0.9990
 2145TIP3   OH227849   0.874   6.194   0.476  0.7686 -0.1338  0.1120
 2145TIP3    H127850   0.894   6.101   0.473 -1.1950 -0.8105  3.0880
 2145TIP3    H227851   0.952   6.234   0.516  1.6916 -0.4090 -1.3424
 2146TIP3   OH227852   3.492   6.330  13.728  0.0379  0.1117 -0.3937
 2146TIP3    H127853   3.439   6.341  13.650  0.9625 -3.6084 -1.7883
 2146TIP3    H227854   3.577   6.368  13.705  0.6022 -1.7727 -1.7120
 2147TIP3   OH227855   2.722   1.180   0.777  0.1594  0.5358 -0.4108
 2147TIP3    H127856   2.813   1.211   0.771  0.4626  0.2193  1.7827
 2147TIP3    H227857   2.694   1.205   0.864 -1.0184 -1.5730 -0.1097
 2148TIP3   OH227858   5.406   3.315   2.689  0.2028 -0.2067 -0.6814
 2148TIP3    H127859   5.455   3.245   2.731  2.2120  0.5554 -1.6412
 2148TIP3    H227860   5.420   3.302   2.595  0.7363  1.5306 -0.8811
 2149TIP3   OH227861   4.965   5.309  11.567  0.2140 -0.0229 -0.1146
 2149TIP3    H127862   5.060   5.299  11.556  0.5046  2.8132 -0.7239
 2149TIP3    H227863   4.929   5.296  11.480 -0.1877 -2.3215  0.3100
 2150TIP3   OH227864   1.882   0.564   0.829 -0.8097 -0.0230  0.2449
 2150TIP3    H127865   1.858   0.640   0.775 -0.4658 -0.0611  0.0320
 2150TIP3    H227866   1.822   0.495   0.801  1.1315 -0.8964 -2.1411
 2151TIP3   OH227867   0.312   2.952   4.655  0.2212 -0.2586  0.4999
 2151TIP3    H127868   0.262   2.977   4.577  0.0894 -2.5240 -0.2125
 2151TIP3    H227869   0.249   2.957   4.727 -0.1133  0.1739  0.1847
 2152TIP3   OH227870   4.659   5.387   0.707  0.6138  0.1244  0.4567
 2152TIP3    H127871   4.662   5.446   0.631 -0.2185  2.0793  1.8643
 2152TIP3    H227872   4.567   5.382   0.730  0.9874  0.7865  2.2239
 2153TIP3   OH227873   3.301   5.262   6.171  0.2319 -0.4472 -0.7381
 2153TIP3    H127874   3.389   5.296   6.185 -0.3426  0.4761  0.8275
 2153TIP3    H227875   3.289   5.197   6.239 -0.2457 -0.6806 -1.0380
 2154TIP3   OH227876   2.254   2.748  16.229 -0.3135  0.0621 -0.7966
 2154TIP3    H127877   2.219   2.797  16.154 -0.3392 -0.5516 -1.1859
 2154TIP3    H227878   2.345   2.776  16.236 -0.5012  0.6450 -0.6192
 2155TIP3   OH227879   1.303   2.561   1.570  0.3691  0.9441 -0.2248
 2155TIP3    H127880   1.268   2.640   1.529  1.1426  2.3396  1.6669
 2155TIP3    H227881   1.322   2.502   1.497 -2.1948  1.6308 -1.5746
 2156TIP3   OH227882   4.044   6.048  16.706 -0.4534 -0.7994  0.4790
 2156TIP3    H127883   4.095   5.978  16.745 -1.1654 -2.5867 -1.5587
 2156TIP3    H227884   4.005   6.008  16.628 -0.4565  2.0300 -1.0918
 2157TIP3   OH227885   6.467   5.915   1.524 -0.3936 -0.4152 -0.0343
 2157TIP3    H127886   6.525   5.851   1.483 -0.3493 -0.1429 -0.4018
 2157TIP3    H227887   6.526   5.983   1.556 -0.5605  0.3452 -1.2598
 2158TIP3   OH227888   1.978   6.210   2.842  0.0727  0.6733 -0.3182
 2158TIP3    H127889   1.910   6.195   2.907  1.4861  0.0788  1.0685
 2158TIP3    H227890   1.975   6.133   2.786 -0.7681  0.9308 -0.6553
 2159TIP3   OH227891   4.011   0.058   4.855  0.1713  0.2801 -0.2589
 2159TIP3    H127892   4.019   0.004   4.777  0.8452 -0.0024 -0.0006
 2159TIP3    H227893   4.072   0.019   4.918 -2.1992 -1.1099  1.3348
 2160TIP3   OH227894   4.043   1.082  12.852 -0.0411  0.7087 -0.3331
 2160TIP3    H127895   4.082   1.026  12.919  0.2625  0.9411 -0.3141
 2160TIP3    H227896   4.090   1.165  12.859 -0.2943  0.8729 -0.5525
 2161TIP3   OH227897   1.929   3.183  11.132 -0.0777 -0.1680  0.5237
 2161TIP3    H127898   1.918   3.168  11.226  0.5919  1.0449  0.8114
 2161TIP3    H227899   2.018   3.155  11.113 -0.0480  0.0376  0.3511
 2162TIP3   OH227900   0.248   5.915  15.032  0.0702  0.1080 -0.5080
 2162TIP3    H127901   0.264   5.821  15.033  2.1794  0.4114  0.4852
 2162TIP3    H227902   0.311   5.949  14.968 -0.4040  0.8731 -0.5814
 2163TIP3   OH227903   1.602   4.570   3.248 -0.1788 -0.3730  0.3323
 2163TIP3    H127904   1.522   4.621   3.237 -0.0244  0.3018  2.0320
 2163TIP3    H227905   1.612   4.561   3.343  0.6379 -2.2604  0.1276
 2164TIP3   OH227906   5.058   2.601  16.853  0.0870 -0.0430 -0.1747
 2164TIP3    H127907   5.107   2.530  16.893  2.9836  3.0359  2.3964
 2164TIP3    H227908   5.009   2.640  16.925  0.0401  1.6301 -1.0515
 2165TIP3   OH227909   4.414   1.465  15.252 -0.4737 -0.0399 -0.2997
 2165TIP3    H127910   4.478   1.394  15.255  0.4167  0.7014 -0.9217
 2165TIP3    H227911   4.381   1.464  15.162  2.3864  2.6611 -1.5699
 2166TIP3   OH227912   2.588   3.278  14.141  0.5372 -0.0677  0.0662
 2166TIP3    H127913   2.649   3.222  14.188 -0.4885 -0.2187  1.2898
 2166TIP3    H227914   2.516   3.219  14.117  0.0680  0.4486  0.1900
 2167TIP3   OH227915   1.015   3.154  14.707  0.4890  0.0533 -0.0042
 2167TIP3    H127916   1.097   3.128  14.748  0.3973  0.2950  0.3423
 2167TIP3    H227917   1.032   3.147  14.613  1.5259  1.8543 -0.0088
 2168TIP3   OH227918   2.625   5.316  12.117 -0.6298  0.4127  0.3877
 2168TIP3    H127919   2.682   5.290  12.045 -1.2607 -0.9590  0.3547
 2168TIP3    H227920   2.553   5.362  12.076 -1.7059 -1.5595 -0.0713
 2169TIP3   OH227921   3.031   4.205   3.958 -0.0575  0.6024 -0.2879
 2169TIP3    H127922   3.045   4.267   4.030  0.4383  0.6865 -0.4484
 2169TIP3    H227923   3.108   4.148   3.960 -0.8554 -0.4611  0.2985
 2170TIP3   OH227924   2.929   3.361  16.143 -0.4934 -0.4991 -0.4124
 2170TIP3    H127925   2.850   3.411  16.167 -0.1397 -0.1316 -0.0044
 2170TIP3    H227926   2.984   3.424  16.097 -0.2477 -0.6402 -0.3136
 2171TIP3   OH227927   6.403   0.931  16.628  0.3789  0.7894  0.5078
 2171TIP3    H127928   6.463   0.948  16.700  2.1691  2.2544 -1.2419
 2171TIP3    H227929   6.416   0.838  16.607  0.7250  0.6614  1.2724
 2172TIP3   OH227930   3.728   3.254   0.687  0.0697  0.7825 -0.3784
 2172TIP3    H127931   3.793   3.323   0.703  0.0866  1.0055 -1.3338
 2172TIP3    H227932   3.660   3.270   0.752  0.6059  1.0206  0.1331
 2173TIP3   OH227933   1.017   0.027  14.003  0.5213  0.2014  0.1973
 2173TIP3    H127934   0.962  -0.041  13.963 -0.4910  0.3218  1.3251
 2173TIP3    H227935   0.998   0.021  14.097  0.2624  2.1733  0.3100
 2174TIP3   OH227936   6.239   4.942   3.461  0.0106 -0.2624 -0.4441
 2174TIP3    H127937   6.304   4.997   3.417 -0.7072 -1.2358 -2.9092
 2174TIP3    H227938   6.257   4.853   3.430  0.5769 -1.3801  2.7561
 2175TIP3   OH227939   5.007   3.271   0.550  0.1540 -0.2274  0.3138
 2175TIP3    H127940   5.021   3.325   0.472  2.6439 -2.8423 -1.2398
 2175TIP3    H227941   5.053   3.318   0.620  0.1053  0.8803 -0.3793
 2176TIP3   OH227942   5.014   0.169  10.412  0.4347  0.9701  0.1385
 2176TIP3    H127943   4.968   0.195  10.333 -0.4611 -0.1826  0.2558
 2176TIP3    H227944   4.945   0.159  10.478  0.9474  0.0897  0.5607
 2177TIP3   OH227945   2.877   0.500   3.795 -0.0888 -0.2556 -0.1656
 2177TIP3    H127946   2.791   0.472   3.826  0.8127 -2.6393  0.4545
 2177TIP3    H227947   2.862   0.586   3.755 -2.6264 -0.3617  0.3894
 2178TIP3   OH227948   2.028   4.092  15.996 -0.4406 -0.5463  0.3290
 2178TIP3    H127949   1.956   4.075  15.936 -0.1047 -0.2210 -0.1792
 2178TIP3    H227950   2.049   4.184  15.983  2.6486 -1.4424 -2.5140
 2179TIP3   OH227951   5.594   3.652   1.520  0.0153  0.1528 -0.1756
 2179TIP3    H127952   5.577   3.564   1.553  0.5161 -0.1337 -0.6523
 2179TIP3    H227953   5.584   3.644   1.425  2.5379 -0.0249 -0.5097
 2180TIP3   OH227954   2.464   0.968  16.004 -0.0034 -0.0049 -0.2081
 2180TIP3    H127955   2.373   0.939  16.011  0.1601 -0.3245  0.8251
 2180TIP3    H227956   2.498   0.923  15.927 -1.4516  2.2119 -2.2886
 2181TIP3   OH227957   3.685   0.966  13.001 -0.1032  0.0764  0.4850
 2181TIP3    H127958   3.596   0.950  12.968  0.3134 -0.3608 -0.4516
 2181TIP3    H227959   3.739   0.972  12.922  1.0123 -1.5706  1.0818
 2182TIP3   OH227960   5.305   6.058  10.191  0.6672  0.5330 -0.0853
 2182TIP3    H127961   5.229   6.088  10.240  0.9840  0.2072  0.6257
 2182TIP3    H227962   5.361   6.135  10.185  0.9599  0.3945  0.7278
 2183TIP3   OH227963   3.713   1.816  12.220 -0.4202  0.1985  0.0361
 2183TIP3    H127964   3.671   1.854  12.297  0.5887  0.2193  0.5981
 2183TIP3    H227965   3.730   1.891  12.162 -2.1867  0.0438 -0.7311
 2184TIP3   OH227966   2.304   1.518   5.398 -0.3029  0.2884 -0.1893
 2184TIP3    H127967   2.279   1.445   5.342  0.0319 -0.4763  0.6306
 2184TIP3    H227968   2.236   1.521   5.465 -0.2155  0.6223 -0.1132
 2185TIP3   OH227969   4.299   4.970   0.667  0.6912  0.2835  0.3811
 2185TIP3    H127970   4.358   4.907   0.624 -0.8663 -1.0706  0.1402
 2185TIP3    H227971   4.319   5.053   0.624  0.2076 -0.7373 -2.0191
 2186TIP3   OH227972   5.576   5.623  11.037 -0.1044 -0.8547  0.3257
 2186TIP3    H127973   5.650   5.595  10.983 -0.0944  0.0492 -0.1512
 2186TIP3    H227974   5.568   5.555  11.104  1.5522 -0.6618  0.7685
 2187TIP3   OH227975   1.164   6.363   2.371  0.6634 -0.1746 -0.4093
 2187TIP3    H127976   1.151   6.456   2.388 -0.9442 -0.0193 -2.1653
 2187TIP3    H227977   1.255   6.346   2.395  1.1938  1.9939 -0.6986
 2188TIP3   OH227978   1.651   5.914  14.591  0.6691  0.0367  0.2548
 2188TIP3    H127979   1.571   5.962  14.568 -1.0842 -3.5174 -1.9408
 2188TIP3    H227980   1.721   5.965  14.552 -0.7728  1.8995 -0.0823
 2189TIP3   OH227981   3.156   0.677  16.366  0.2296 -0.2376 -0.0086
 2189TIP3    H127982   3.187   0.623  16.292  0.2339 -0.1716 -0.0549
 2189TIP3    H227983   3.063   0.690  16.348  0.5222  0.9868 -0.7665
 2190TIP3   OH227984   5.226   2.636   5.383 -0.2097 -0.7502  0.1402
 2190TIP3    H127985   5.194   2.547   5.395 -0.5886 -0.5872  0.3790
 2190TIP3    H227986   5.197   2.661   5.295  0.2058 -0.9861 -0.0665
 2191TIP3   OH227987   1.207   3.293  16.082  0.7028 -0.4615 -0.5586
 2191TIP3    H127988   1.164   3.315  15.999  1.3981 -1.0554 -1.0887
 2191TIP3    H227989   1.292   3.259  16.056  1.6049  0.8944  0.4867
 2192TIP3   OH227990   6.770   2.342  16.615 -0.1721  0.4490  0.8216
 2192TIP3    H127991   6.825   2.300  16.549 -2.0947 -0.3311 -0.3499
 2192TIP3    H227992   6.775   2.436  16.595 -2.3150  0.1098 -1.8372
 2193TIP3   OH227993   2.717   6.560   3.193 -0.1541 -0.3352  0.5467
 2193TIP3    H127994   2.742   6.485   3.138  0.6970  0.1815  0.2267
 2193TIP3    H227995   2.657   6.522   3.258  0.9474 -1.4715  0.9337
 2194TIP3   OH227996   4.869   1.915  11.424  0.3541  0.0405  0.2547
 2194TIP3    H127997   4.790   1.954  11.387  0.2017 -1.4169 -1.0431
 2194TIP3    H227998   4.843   1.886  11.511 -0.7311 -0.9029 -0.3514
 2195TIP3   OH227999   6.281   4.548   5.515  0.0002  0.7026 -0.4511
 2195TIP3    H128000   6.341   4.604   5.565 -0.3174  0.9724 -0.3726
 2195TIP3    H228001   6.203   4.542   5.570  1.2125 -2.5798  1.2190
 2196TIP3   OH228002   3.352   3.370  15.435  0.5514  0.1677  0.0798
 2196TIP3    H128003   3.313   3.450  15.401  1.1213  0.3687 -0.1115
 2196TIP3    H228004   3.364   3.387  15.529  0.5797  0.2691  0.0578
 2197TIP3   OH228005   3.799   4.510  12.701 -0.0097 -0.5934 -0.5780
 2197TIP3    H128006   3.731   4.478  12.761  0.3012 -1.9627 -0.9207
 2197TIP3    H228007   3.778   4.469  12.617  0.0517  0.6302 -1.2025
 2198TIP3   OH228008   6.174   1.954   1.060  0.0835 -0.2488 -0.1890
 2198TIP3    H128009   6.204   2.037   1.023  1.0737 -0.4459  0.1582
 2198TIP3    H228010   6.248   1.895   1.052 -0.5073 -1.0211 -0.1414
 2199TIP3   OH228011   5.907   0.499   0.021 -0.2411 -0.3603  0.5048
 2199TIP3    H128012   5.861   0.574   0.058  0.0910 -0.5940  1.4242
 2199TIP3    H228013   5.876   0.424   0.073 -0.5326 -0.8646 -0.3634
 2200TIP3   OH228014   5.024   0.869   3.786 -0.5507  0.1980  0.0652
 2200TIP3    H128015   4.946   0.910   3.824 -1.1069 -1.3652  0.7263
 2200TIP3    H228016   5.090   0.874   3.855 -0.0089  1.6116 -0.5310
 2201TIP3   OH228017   0.527   1.827  12.957 -0.0515 -0.3014 -0.3346
 2201TIP3    H128018   0.613   1.850  12.993 -1.1520 -0.0613  2.3331
 2201TIP3    H228019   0.513   1.736  12.984 -1.7230  0.4874  1.6943
 2202TIP3   OH228020   5.621   4.018  13.082 -0.1521 -0.2954 -0.3156
 2202TIP3    H128021   5.621   3.959  13.158  2.8257 -0.4122 -0.2844
 2202TIP3    H228022   5.610   4.105  13.119 -1.2785 -0.5411 -0.0378
 2203TIP3   OH228023   6.074   0.312  15.470 -0.2772  0.6643 -0.1469
 2203TIP3    H128024   6.038   0.227  15.496 -0.8727  1.0283  0.2597
 2203TIP3    H228025   6.167   0.307  15.491 -0.4892  0.4578  0.7843
 2204TIP3   OH228026   0.904   0.990   2.729  0.0032 -0.2036 -0.6076
 2204TIP3    H128027   0.955   1.051   2.783  0.5284 -0.4599 -0.8110
 2204TIP3    H228028   0.834   1.043   2.692 -0.9359 -0.2026  1.0690
 2205TIP3   OH228029   5.157   5.530  15.678  0.4283  0.4663 -0.6631
 2205TIP3    H128030   5.157   5.438  15.704 -1.1535  0.7163  0.3011
 2205TIP3    H228031   5.219   5.572  15.738  1.4405  0.0068 -1.3433
 2206TIP3   OH228032   5.325   6.641  12.145 -0.2709 -0.1440 -0.8053
 2206TIP3    H128033   5.364   6.669  12.228 -1.9440 -0.3715  0.1224
 2206TIP3    H228034   5.399   6.621  12.088  1.0103  2.7736 -0.3680
 2207TIP3   OH228035   5.047   6.430   0.165 -0.0028 -0.0109 -0.4844
 2207TIP3    H128036   5.101   6.389   0.232 -0.8228 -0.5430 -0.1433
 2207TIP3    H228037   5.103   6.499   0.129  0.7579 -0.2881  0.1343
 2208TIP3   OH228038   0.186   3.484  13.860  0.0897 -0.0317 -0.0779
 2208TIP3    H128039   0.105   3.434  13.869  0.1520  0.1757  2.1011
 2208TIP3    H228040   0.168   3.547  13.790 -1.4392 -0.3363  0.0140
 2209TIP3   OH228041   5.703   5.963  14.230  0.3046 -0.0383  0.1764
 2209TIP3    H128042   5.674   6.051  14.204 -0.4871 -0.5688 -0.8052
 2209TIP3    H228043   5.653   5.904  14.174  0.0384 -1.1740  1.5662
 2210TIP3   OH228044   2.562   5.753   5.685  0.2693 -0.5908 -0.0967
 2210TIP3    H128045   2.518   5.753   5.599  0.2170 -1.8019 -0.0844
 2210TIP3    H228046   2.506   5.809   5.740  0.3929  0.3385 -0.8808
 2211TIP3   OH228047   0.555   4.208   5.355  0.9557  0.3186  0.3125
 2211TIP3    H128048   0.614   4.228   5.283 -0.8333 -1.3047 -1.7462
 2211TIP3    H228049   0.593   4.129   5.395 -0.0254 -1.0716 -1.3782
 2212TIP3   OH228050   4.856   4.279   3.848  0.3020 -0.1546 -0.9062
 2212TIP3    H128051   4.913   4.203   3.836  0.8735  0.3592 -1.5789
 2212TIP3    H228052   4.812   4.264   3.931  0.2336 -1.3291 -1.1487
 2213TIP3   OH228053   1.756   3.950  16.201 -0.1808  0.3664 -0.3131
 2213TIP3    H128054   1.674   3.996  16.219 -0.3873 -0.0317 -0.2293
 2213TIP3    H228055   1.825   4.014  16.224 -0.4648  0.9393 -1.0168
 2214TIP3   OH228056   6.618   2.866  11.351 -0.2869  0.0903  0.1778
 2214TIP3    H128057   6.699   2.895  11.394 -0.9540 -0.4986  1.9453
 2214TIP3    H228058   6.635   2.774  11.329  0.0809  0.4140 -0.9125
 2215TIP3   OH228059   0.409   3.827  16.024  0.3889 -0.2408  1.0076
 2215TIP3    H128060   0.459   3.813  16.104 -0.1302  1.0551  1.5763
 2215TIP3    H228061   0.456   3.775  15.958  1.9465  0.1960  1.7139
 2216TIP3   OH228062   2.139   4.964   2.342 -0.1742  0.0919  0.1794
 2216TIP3    H128063   2.223   4.981   2.385  0.8240  1.1368 -2.0666
 2216TIP3    H228064   2.118   4.874   2.367  1.0454  0.1819  1.6682
 2217TIP3   OH228065   6.771   6.147  15.132 -0.2892  0.0664  0.0068
 2217TIP3    H128066   6.693   6.187  15.095 -0.1537  1.9685  1.6295
 2217TIP3    H228067   6.841   6.170  15.071 -0.4874  0.9943  0.1220
 2218TIP3   OH228068   3.928   0.243   2.875  0.4976  0.1266  0.9852
 2218TIP3    H128069   3.834   0.262   2.884 -0.6271 -2.7513 -2.4833
 2218TIP3    H228070   3.947   0.258   2.783  3.1536 -0.6725  1.3274
 2219TIP3   OH228071   4.070   3.748  15.002  0.0515  1.1176 -0.6143
 2219TIP3    H128072   4.144   3.699  14.967 -0.9298 -1.4262  0.5903
 2219TIP3    H228073   4.004   3.745  14.932 -0.3675 -0.2348 -0.1883
 2220TIP3   OH228074   0.505   2.203   2.616  0.1128  0.3914 -0.1245
 2220TIP3    H128075   0.440   2.258   2.659 -0.2226  1.7218 -2.1737
 2220TIP3    H228076   0.489   2.216   2.522 -0.3364 -3.6500 -0.7973
 2221TIP3   OH228077   2.958   3.976   4.133 -0.0911  0.1443 -0.2817
 2221TIP3    H128078   2.869   3.944   4.118 -0.0513 -1.4208  2.2149
 2221TIP3    H228079   2.959   4.065   4.097 -2.2048 -0.3407 -1.6486
 2222TIP3   OH228080   5.786   5.443  12.270  0.8082  0.0472 -0.3199
 2222TIP3    H128081   5.852   5.512  12.279  1.5001 -0.7822  1.8009
 2222TIP3    H228082   5.829   5.365  12.308 -1.5100 -0.4123  1.6172
 2223TIP3   OH228083   0.417   1.897   1.889  0.6855  0.3613  0.2478
 2223TIP3    H128084   0.408   1.952   1.812  1.8539 -0.9120 -0.8622
 2223TIP3    H228085   0.335   1.909   1.937 -0.9720 -0.3235 -2.2190
 2224TIP3   OH228086   0.754   3.932   2.864  0.2441 -0.3521 -0.0748
 2224TIP3    H128087   0.818   3.876   2.909 -1.0278 -0.7807  1.3026
 2224TIP3    H228088   0.800   4.015   2.852  1.5272 -1.0781 -0.4380
 2225TIP3   OH228089   2.053   6.721  17.213 -0.1252 -0.2815  0.0152
 2225TIP3    H128090   2.074   6.795  17.157  0.3537 -0.6421 -0.2927
 2225TIP3    H228091   2.100   6.647  17.174 -0.0388 -0.6039  0.7098
 2226TIP3   OH228092   0.970   0.726  14.521 -0.3607  0.0433  0.3659
 2226TIP3    H128093   0.887   0.680  14.511  0.3191 -0.8195 -1.9722
 2226TIP3    H228094   0.975   0.784  14.444  1.5155 -0.5149  0.0134
 2227TIP3   OH228095   4.455   2.212   0.666 -0.5037  0.3353  0.6771
 2227TIP3    H128096   4.479   2.265   0.743 -1.0835  2.0286 -0.2670
 2227TIP3    H228097   4.521   2.233   0.601 -0.7313 -0.1414  0.2875
 2228TIP3   OH228098   1.448   0.926  13.740  0.1449 -0.0911  0.2988
 2228TIP3    H128099   1.511   0.854  13.745  1.4809  0.8987 -1.2472
 2228TIP3    H228100   1.368   0.885  13.706  0.3710 -1.1067  0.9370
 2229TIP3   OH228101   1.424   4.025   4.553  0.6145 -0.1817  0.8848
 2229TIP3    H128102   1.487   3.976   4.501  0.5291 -0.6393  1.2026
 2229TIP3    H228103   1.364   3.958   4.587 -0.8709  0.3514 -0.5134
 2230TIP3   OH228104   2.184   2.118   5.769 -0.0024  0.1620 -0.1456
 2230TIP3    H128105   2.259   2.071   5.805 -0.7661 -0.7537  0.3112
 2230TIP3    H228106   2.218   2.163   5.691  1.3924  1.1452  0.9703
 2231TIP3   OH228107   6.748   0.143  14.050 -0.5985  0.4664 -0.4918
 2231TIP3    H128108   6.728   0.053  14.022  0.2893 -0.0999  0.5780
 2231TIP3    H228109   6.663   0.186  14.056 -1.0157 -0.2065 -1.3167
 2232TIP3   OH228110   5.387   5.139   5.547  0.6726  0.0446  0.2562
 2232TIP3    H128111   5.433   5.074   5.602  1.8163  0.3838 -0.2781
 2232TIP3    H228112   5.449   5.159   5.477 -0.8864 -0.6325 -1.3950
 2233TIP3   OH228113   6.674   6.075  15.372 -0.1292  0.3249  0.7349
 2233TIP3    H128114   6.719   6.113  15.297 -1.1922  0.6345  0.2340
 2233TIP3    H228115   6.583   6.066  15.344 -0.3763 -0.3553  1.6911
 2234TIP3   OH228116   2.031   1.718   1.701 -0.5508 -0.4349  0.2250
 2234TIP3    H128117   1.944   1.756   1.692 -0.1511  0.4323 -0.0577
 2234TIP3    H228118   2.061   1.746   1.788  0.4444  1.4425 -0.6552
 2235TIP3   OH228119   6.117   5.056  15.559  0.6261 -0.5301  0.1697
 2235TIP3    H128120   6.063   5.034  15.483 -0.6836 -0.5517  1.0697
 2235TIP3    H228121   6.151   4.971  15.589 -0.9857 -0.8810  1.1254
 2236TIP3   OH228122   1.578   3.173  13.625  0.0217 -0.2055 -0.0930
 2236TIP3    H128123   1.622   3.258  13.628  0.7074 -0.5695  0.4298
 2236TIP3    H228124   1.603   3.136  13.540  2.3120 -1.2091  0.9395
 2237TIP3   OH228125   5.635   4.449   0.007  0.8152  0.1734 -0.0229
 2237TIP3    H128126   5.668   4.522  -0.045  2.0539 -0.1829  0.2414
 2237TIP3    H228127   5.589   4.393  -0.056 -1.8893  2.1182  0.0698
 2238TIP3   OH228128   1.454   4.670   6.075 -0.1125 -0.2962 -0.0870
 2238TIP3    H128129   1.456   4.754   6.120  0.0305 -0.0428 -0.5630
 2238TIP3    H228130   1.505   4.611   6.132  0.0920  0.0258  0.0674
 2239TIP3   OH228131   0.214   3.882  16.313  0.2533  0.0656  0.7272
 2239TIP3    H128132   0.232   3.916  16.226  1.4094  0.7333  1.1980
 2239TIP3    H228133   0.134   3.927  16.340  0.1374  0.1900  0.1869
 2240TIP3   OH228134   1.838   6.548  13.541  0.5476  0.0302 -0.2007
 2240TIP3    H128135   1.755   6.531  13.496  1.9117 -1.0012 -2.4584
 2240TIP3    H228136   1.828   6.636  13.576 -1.9219 -0.4900  0.6353
 2241TIP3   OH228137   1.012   1.675  10.988  0.2606 -0.1900  0.6847
 2241TIP3    H128138   0.928   1.712  10.962  0.2041  0.2398  1.4448
 2241TIP3    H228139   1.064   1.675  10.907  0.1436  1.2489  0.5765
 2242TIP3   OH228140   5.334   4.931  15.036 -0.0316  0.7122  0.2593
 2242TIP3    H128141   5.275   4.962  14.966 -0.7993 -1.1303  0.0215
 2242TIP3    H228142   5.304   4.842  15.054  1.3541  0.4928  1.6639
 2243TIP3   OH228143   5.914   5.185   2.656 -0.3525 -0.3265  0.1699
 2243TIP3    H128144   5.878   5.166   2.742 -1.0381 -1.4611 -0.3506
 2243TIP3    H228145   5.989   5.126   2.647  0.0799  0.2002  0.2064
 2244TIP3   OH228146   2.173   2.841  16.480  0.2690 -0.2118 -0.1618
 2244TIP3    H128147   2.227   2.805  16.410 -0.7445 -0.4280 -0.8536
 2244TIP3    H228148   2.084   2.843  16.443 -0.1900  0.1744  0.9295
 2245TIP3   OH228149   6.675   5.463  11.003 -0.0850 -0.1413  0.3752
 2245TIP3    H128150   6.749   5.513  10.969 -0.9676 -0.0103 -1.4725
 2245TIP3    H228151   6.606   5.528  11.018 -0.3232 -0.4466  0.6317
 2246TIP3   OH228152   4.396   6.402   3.525  0.0844 -0.4141  0.3100
 2246TIP3    H128153   4.426   6.491   3.545 -1.8287  1.4190 -3.7339
 2246TIP3    H228154   4.304   6.402   3.551 -0.1755 -0.8651 -0.5861
 2247TIP3   OH228155   3.339   3.612   2.117  0.4678  0.6750  0.2247
 2247TIP3    H128156   3.316   3.638   2.028 -0.4542 -0.0536  0.2289
 2247TIP3    H228157   3.258   3.623   2.167  0.2573 -1.3225  0.4085
 2248TIP3   OH228158   5.919   3.474  12.901  0.6610 -0.5053  0.3929
 2248TIP3    H128159   5.901   3.516  12.817 -0.2371  2.0809  1.7493
 2248TIP3    H228160   5.923   3.381  12.881 -1.0602 -0.1285 -2.2726
 2249TIP3   OH228161   1.227   2.221  15.479 -0.3900 -0.6794 -0.1579
 2249TIP3    H128162   1.301   2.161  15.484 -1.4612 -1.9473  0.9533
 2249TIP3    H228163   1.149   2.166  15.487 -1.4820  0.6325 -1.1085
 2250TIP3   OH228164   5.369   1.071  15.467  0.2706 -0.1320  0.1364
 2250TIP3    H128165   5.305   1.008  15.433  0.1214 -0.5468  1.1443
 2250TIP3    H228166   5.342   1.085  15.558  0.7696  0.7980  0.1558
 2251TIP3   OH228167   6.685   0.705   1.030  0.0543  0.0930  0.0537
 2251TIP3    H128168   6.659   0.643   0.961  0.8620 -0.9331  0.6364
 2251TIP3    H228169   6.607   0.759   1.044 -0.5388 -0.5160 -0.7735
 2252TIP3   OH228170   6.551   2.202   0.886 -0.3715  0.2564  0.3385
 2252TIP3    H128171   6.579   2.172   0.973 -0.4339  0.9323  0.6022
 2252TIP3    H228172   6.629   2.192   0.831 -0.0512  0.6808  0.6983
 2253TIP3   OH228173   1.370   2.157   1.356  0.4150  0.4255 -0.2717
 2253TIP3    H128174   1.357   2.227   1.293  1.3691 -0.2559 -1.2781
 2253TIP3    H228175   1.411   2.200   1.431  0.6644  1.0124 -0.7311
 2254TIP3   OH228176   4.976   5.287   5.969  0.6708 -0.3733  0.8331
 2254TIP3    H128177   5.045   5.236   6.011  0.1917 -1.8654 -0.0996
 2254TIP3    H228178   4.926   5.325   6.041  2.1450  0.3222  1.5251
 2255TIP3   OH228179   5.157   6.711  14.733  0.2137 -0.0671  0.3825
 2255TIP3    H128180   5.068   6.745  14.726 -1.1638 -3.4372 -0.7012
 2255TIP3    H228181   5.206   6.757  14.664 -0.9216  1.0996  0.3184
 2256TIP3   OH228182   6.336   2.661  16.973  0.0399 -0.1629  0.3922
 2256TIP3    H128183   6.308   2.577  16.938  1.6798 -0.4267 -0.3931
 2256TIP3    H228184   6.419   2.679  16.929  1.2453  0.4366  2.7207
 2257TIP3   OH228185   0.357   5.643  11.311 -0.5781 -0.4073  0.1213
 2257TIP3    H128186   0.395   5.639  11.399 -1.1932 -2.2722  0.3378
 2257TIP3    H228187   0.418   5.594  11.256 -0.0423  1.0057 -0.5855
 2258TIP3   OH228188   6.394   1.116   3.455 -0.2502 -0.1952 -0.6225
 2258TIP3    H128189   6.478   1.076   3.477 -0.6153 -0.3468  0.5541
 2258TIP3    H228190   6.414   1.172   3.380  1.0378  0.2633  0.0255
 2259TIP3   OH228191   6.219   3.126  16.495  0.1028 -0.1880 -0.5301
 2259TIP3    H128192   6.126   3.141  16.477  0.2961  1.4223 -0.3434
 2259TIP3    H228193   6.220   3.065  16.569 -0.8242  0.4785  0.0443
 2260TIP3   OH228194   5.580   5.702  14.181  0.4255  0.2359 -0.1823
 2260TIP3    H128195   5.542   5.626  14.224 -0.9188  1.0865  0.1852
 2260TIP3    H228196   5.514   5.730  14.117  0.6512  1.3966  0.0585
 2261TIP3   OH228197   3.202   4.869   5.138 -0.3470  0.1982 -0.4740
 2261TIP3    H128198   3.298   4.872   5.133 -0.2851  2.3491  0.9934
 2261TIP3    H228199   3.175   4.960   5.146 -2.4624 -0.4377  0.3264
 2262TIP3   OH228200   0.583   0.751   0.517 -0.8452 -0.0986 -0.3478
 2262TIP3    H128201   0.522   0.818   0.487 -1.2972 -0.3417  0.0095
 2262TIP3    H228202   0.559   0.673   0.467 -1.6920 -0.5427  0.7014
 2263TIP3   OH228203   1.529   0.508   2.714 -0.0422 -0.0372  0.3678
 2263TIP3    H128204   1.522   0.595   2.675 -0.2386  0.3756  1.2854
 2263TIP3    H228205   1.619   0.502   2.746  0.1592 -0.4270 -0.2547
 2264TIP3   OH228206   1.629   5.898   5.392  0.0218 -0.3127 -0.2521
 2264TIP3    H128207   1.687   5.943   5.330 -0.3783 -0.1308 -0.4976
 2264TIP3    H228208   1.541   5.916   5.360 -0.2871  1.0549  1.2125
 2265TIP3   OH228209   0.711   3.984   3.937  0.3590  0.4154  0.0306
 2265TIP3    H128210   0.703   4.054   4.002 -0.6301 -0.9251  1.4243
 2265TIP3    H228211   0.631   3.990   3.886  0.3207  0.3598  0.0844
 2266TIP3   OH228212   0.979   5.723  14.384 -0.0616  0.5635  0.1402
 2266TIP3    H128213   0.905   5.781  14.369 -0.1666  1.6394  3.8029
 2266TIP3    H228214   0.940   5.636  14.398 -0.6455  1.0473  1.6555
 2267TIP3   OH228215   0.640   5.448   3.043  0.4566 -0.3113 -0.0946
 2267TIP3    H128216   0.639   5.353   3.052  0.6517 -0.2709  0.3325
 2267TIP3    H228217   0.590   5.480   3.118  1.7279 -0.0071  0.6409
 2268TIP3   OH228218   3.297   2.524  13.315  0.0801  0.0160 -0.2845
 2268TIP3    H128219   3.222   2.529  13.255 -0.0751 -0.4337 -0.1280
 2268TIP3    H228220   3.262   2.553  13.399  0.5111  1.5246 -0.5881
 2269TIP3   OH228221   4.546   3.426   4.423  0.1216  0.2827 -0.2005
 2269TIP3    H128222   4.524   3.489   4.355 -0.3142 -3.1510 -3.6017
 2269TIP3    H228223   4.542   3.341   4.379  1.9824 -2.0908  3.6563
 2270TIP3   OH228224   4.605   1.157   3.519  0.3146  0.0539 -0.4637
 2270TIP3    H128225   4.562   1.072   3.532  0.5456 -0.2233 -1.4303
 2270TIP3    H228226   4.534   1.216   3.492  0.0090  0.3884  1.0017
 2271TIP3   OH228227   6.615   4.926   3.188 -0.0641  0.3815  0.0513
 2271TIP3    H128228   6.531   4.947   3.149 -0.0671 -1.0907 -0.8094
 2271TIP3    H228229   6.680   4.956   3.124 -0.0753 -2.3605 -1.3980
 2272TIP3   OH228230   6.282   4.027  11.276  0.3395 -0.3963  0.6793
 2272TIP3    H128231   6.261   3.975  11.354  1.1636  0.6814  1.6458
 2272TIP3    H228232   6.377   4.035  11.276  0.2652  0.7612  0.3402
 2273TIP3   OH228233   3.254   3.465  13.571  0.3024  0.1945  0.0541
 2273TIP3    H128234   3.161   3.479  13.549  1.3347  3.1240 -3.4594
 2273TIP3    H228235   3.278   3.541  13.623  1.1250  0.5307 -0.7778
 2274TIP3   OH228236   3.647   4.191   6.290  0.0661  0.4127 -0.1632
 2274TIP3    H128237   3.566   4.154   6.254 -0.3505  0.9612  0.2071
 2274TIP3    H228238   3.618   4.246   6.363  0.7396  0.9452 -0.2952
 2275TIP3   OH228239   4.830   1.759  12.307 -1.2091 -0.2193  0.2619
 2275TIP3    H128240   4.784   1.687  12.264 -0.5357 -2.0522  2.4134
 2275TIP3    H228241   4.856   1.724  12.392 -0.2848  2.3966  1.1676
 2276TIP3   OH228242   5.269   5.450   1.455 -0.0409  0.2173 -0.6434
 2276TIP3    H128243   5.332   5.404   1.399  2.7036 -0.0559  2.3716
 2276TIP3    H228244   5.258   5.392   1.531 -1.5824  1.6550  0.3059
 2277TIP3   OH228245   0.872   3.463  11.886  0.1392  0.3897 -0.2222
 2277TIP3    H128246   0.777   3.468  11.880  0.0975  0.4597  0.3861
 2277TIP3    H228247   0.904   3.529  11.825 -0.0847 -2.2887 -3.5559
 2278TIP3   OH228248   1.267   5.540   0.571  0.2971  0.4118 -0.3892
 2278TIP3    H128249   1.324   5.593   0.515  0.7955  0.8120  0.4757
 2278TIP3    H228250   1.324   5.509   0.642 -0.4371  0.3712  0.2018
 2279TIP3   OH228251   6.181   4.338   2.093  0.3799 -0.8835 -0.7495
 2279TIP3    H128252   6.235   4.364   2.019  0.6007 -0.4127 -0.4286
 2279TIP3    H228253   6.091   4.356   2.066  0.3839 -1.5919 -1.2535
 2280TIP3   OH228254   1.017   2.408  15.535  0.1289  0.1319  0.0771
 2280TIP3    H128255   1.090   2.387  15.477 -0.1715 -0.2644 -0.1665
 2280TIP3    H228256   1.059   2.433  15.618  0.5737  1.1694 -0.4424
 2281TIP3   OH228257   3.140   5.194  16.136 -0.7031 -0.1572  0.1787
 2281TIP3    H128258   3.173   5.283  16.147  2.6832 -1.1697 -0.7037
 2281TIP3    H228259   3.202   5.139  16.184 -1.6112 -2.1911 -0.8434
 2282TIP3   OH228260   2.800   2.693  11.705  0.4760 -0.7936  0.2817
 2282TIP3    H128261   2.706   2.673  11.701  0.4183 -0.8307  1.4368
 2282TIP3    H228262   2.814   2.723  11.795  1.3444  0.3949 -0.2307
 2283TIP3   OH228263   6.423   2.660  11.824  0.2514 -0.0567  0.4434
 2283TIP3    H128264   6.434   2.599  11.897  0.8957 -0.2844  0.1594
 2283TIP3    H228265   6.494   2.723  11.833  0.7256 -0.4597 -0.3482
 2284TIP3   OH228266   5.114   0.995  11.342 -0.5847  0.5569  0.0802
 2284TIP3    H128267   5.113   0.919  11.400  1.4251 -0.4314 -1.0848
 2284TIP3    H228268   5.202   1.033  11.352 -0.2786  0.5428 -2.0184
 2285TIP3   OH228269   0.019   3.575  13.409 -0.6915  0.0576  0.2594
 2285TIP3    H128270   0.109   3.570  13.378 -0.9146 -0.3124 -0.3348
 2285TIP3    H228271  -0.029   3.617  13.338 -1.1585 -0.5552  0.2095
 2286TIP3   OH228272   1.526   1.040  14.627 -0.1724 -0.0321 -0.8915
 2286TIP3    H128273   1.531   0.958  14.578  1.0037  0.3123 -1.3975
 2286TIP3    H228274   1.467   1.021  14.700  0.2956 -1.4187 -0.8396
 2287TIP3   OH228275   5.160   4.350   2.954  0.6256 -0.2055  0.0521
 2287TIP3    H128276   5.112   4.283   3.004 -1.1465  0.7076 -0.3373
 2287TIP3    H228277   5.100   4.425   2.951  1.3568  0.3594 -2.0340
 2288TIP3   OH228278   2.640   3.608   5.453  0.1988 -0.2504  0.5890
 2288TIP3    H128279   2.678   3.692   5.481 -1.0194  0.6488 -0.3585
 2288TIP3    H228280   2.624   3.619   5.360  1.7806 -2.2583  0.0059
 2289TIP3   OH228281   6.200   6.276   4.448 -0.0726 -0.3135  0.4370
 2289TIP3    H128282   6.260   6.278   4.374  0.2448 -0.8887  0.6762
 2289TIP3    H228283   6.245   6.329   4.515 -1.1170  1.6599 -0.3242
 2290TIP3   OH228284   2.500   6.743  13.810 -0.1601 -0.2686  0.1056
 2290TIP3    H128285   2.493   6.753  13.905  1.2727 -0.3587  0.2312
 2290TIP3    H228286   2.491   6.649  13.796 -0.5400 -0.2393  0.1190
 2291TIP3   OH228287   2.171   2.542   2.188 -0.5091  0.4212  0.3648
 2291TIP3    H128288   2.122   2.466   2.220 -1.8021  1.1837  0.3089
 2291TIP3    H228289   2.256   2.537   2.232  0.3791 -2.3338 -1.4222
 2292TIP3   OH228290   2.355   5.784   4.735  0.0939  0.1650  0.3445
 2292TIP3    H128291   2.270   5.821   4.756 -0.0118  0.9333 -1.3095
 2292TIP3    H228292   2.387   5.836   4.661  1.4669 -0.8729  0.1565
 2293TIP3   OH228293   5.803   4.953   5.755 -0.4575 -0.2417 -0.2488
 2293TIP3    H128294   5.806   4.998   5.839  0.2528  0.0931 -0.4443
 2293TIP3    H228295   5.890   4.965   5.718 -0.6238 -0.7694 -0.8353
 2294TIP3   OH228296   2.731   3.285   3.080  0.2471 -0.6088 -0.2364
 2294TIP3    H128297   2.757   3.321   3.165 -2.3327  0.9084  0.0096
 2294TIP3    H228298   2.712   3.362   3.027 -1.4884 -1.5344 -1.0429
 2295TIP3   OH228299   6.054   1.559  13.734 -0.0613 -0.4380  0.0422
 2295TIP3    H128300   6.099   1.511  13.665  0.8965 -0.3068  0.5684
 2295TIP3    H228301   5.980   1.503  13.758 -0.0788 -0.7382 -0.6970
 2296TIP3   OH228302   0.397   3.506   6.071  0.2691 -0.3537 -0.1142
 2296TIP3    H128303   0.378   3.436   6.008  0.6322 -1.5608  1.0884
 2296TIP3    H228304   0.341   3.486   6.146 -1.0460  1.7274 -0.4467
 2297TIP3   OH228305   4.548   3.638  16.989 -0.0575 -1.1201 -0.1753
 2297TIP3    H128306   4.593   3.573  17.043 -0.4214 -2.2146 -1.1537
 2297TIP3    H228307   4.560   3.721  17.036  0.9568 -1.7795  0.7730
 2298TIP3   OH228308   3.196   4.055  16.975 -0.1556 -0.1514  0.5250
 2298TIP3    H128309   3.196   4.129  17.035  1.7905 -0.2561  0.7349
 2298TIP3    H228310   3.174   4.092  16.889 -1.1969  0.2968  0.9691
 2299TIP3   OH228311   6.276   6.207   5.829 -0.0933  0.1264  0.1712
 2299TIP3    H128312   6.324   6.179   5.907 -0.4411 -0.5735  0.1436
 2299TIP3    H228313   6.193   6.242   5.863  0.1006  0.6074  0.1646
 2300TIP3   OH228314   3.995   0.192   4.447 -0.2213  0.1991 -0.2089
 2300TIP3    H128315   4.023   0.129   4.514  0.0438 -0.8065 -1.2333
 2300TIP3    H228316   3.960   0.138   4.376  1.2397  1.0885 -1.6917
 2301TIP3   OH228317   3.219   0.529  11.754  0.0930  0.2683  0.4622
 2301TIP3    H128318   3.195   0.620  11.773 -1.2825  0.5913 -2.2565
 2301TIP3    H228319   3.279   0.536  11.680  0.2977 -1.0419  0.4861
 2302TIP3   OH228320   6.006   6.044  15.783  0.1986 -0.3160 -0.3833
 2302TIP3    H128321   5.976   6.108  15.849  1.8929 -1.1742  1.3194
 2302TIP3    H228322   5.982   6.084  15.699 -2.7888  0.4710  0.7015
 2303TIP3   OH228323   4.170   1.765   2.381  0.5704  0.0816 -0.0514
 2303TIP3    H128324   4.257   1.732   2.400  1.7642  1.5935 -2.4068
 2303TIP3    H228325   4.160   1.754   2.286 -2.3508 -1.1879  0.2917
 2304TIP3   OH228326   1.226   0.516  16.256  0.0029 -0.0262  0.2121
 2304TIP3    H128327   1.312   0.529  16.216 -0.3444 -0.3355 -0.6744
 2304TIP3    H228328   1.199   0.603  16.286  0.1497  0.2806 -0.5166
 2305TIP3   OH228329   4.411   1.246  16.005  0.7924  0.0746  0.3218
 2305TIP3    H128330   4.395   1.312  16.073  3.0021  0.2390  0.7311
 2305TIP3    H228331   4.436   1.297  15.928  2.8356 -0.2347  0.7298
 2306TIP3   OH228332   1.290   5.726  11.728  0.1179 -0.5173 -0.3113
 2306TIP3    H128333   1.308   5.767  11.643  0.1587  1.2326  0.4864
 2306TIP3    H228334   1.359   5.661  11.738  1.4589  0.7815 -0.6893
 2307TIP3   OH228335   5.818   3.064   1.092 -0.0752 -0.2302  0.5144
 2307TIP3    H128336   5.862   3.001   1.149 -1.5394 -1.7896  0.0318
 2307TIP3    H228337   5.848   3.040   1.004  0.0394  0.3336  0.3997
 2308TIP3   OH228338   6.622   1.017   4.133  0.1480  0.1371 -0.3377
 2308TIP3    H128339   6.555   0.952   4.155 -0.5287  0.7701 -0.4957
 2308TIP3    H228340   6.606   1.039   4.041  0.7823  0.0577 -0.4743
 2309TIP3   OH228341   6.637   0.675  16.507 -0.3438  0.1009  0.2556
 2309TIP3    H128342   6.731   0.685  16.493 -0.6177  3.6684  0.0607
 2309TIP3    H228343   6.626   0.676  16.602 -0.1991 -0.7267  0.2910
 2310TIP3   OH228344   3.003   2.505   5.413  0.2905 -0.0194  0.2151
 2310TIP3    H128345   3.082   2.552   5.384  1.4646 -1.1864  1.4004
 2310TIP3    H228346   2.981   2.447   5.340 -0.2774  1.2279 -0.6461
 2311TIP3   OH228347   2.879   4.322   1.490  0.3749 -0.1978 -0.3234
 2311TIP3    H128348   2.892   4.359   1.403  0.9251  0.4199  0.0141
 2311TIP3    H228349   2.949   4.360   1.543  0.0113 -0.5228  0.4046
 2312TIP3   OH228350   5.595   3.628   0.587 -0.8549 -0.4029  0.0283
 2312TIP3    H128351   5.520   3.688   0.589  0.8611  1.8728  0.6022
 2312TIP3    H228352   5.640   3.650   0.506 -1.2207 -2.3915 -0.7769
 2313TIP3   OH228353   3.550   4.768  13.980 -0.0177  0.0772 -0.3370
 2313TIP3    H128354   3.634   4.748  14.020 -0.3422 -0.9839 -0.1511
 2313TIP3    H228355   3.498   4.807  14.051  0.6012  1.6414 -0.6909
 2314TIP3   OH228356   4.104   6.046   1.641  0.4138  0.5206 -0.9599
 2314TIP3    H128357   4.164   6.000   1.582  0.3643 -1.2763  0.3430
 2314TIP3    H228358   4.030   5.987   1.652  0.8549  0.3645  1.6521
 2315TIP3   OH228359   1.269   5.213  11.076  0.4285 -0.1676  0.3728
 2315TIP3    H128360   1.342   5.157  11.050  1.0461  0.2322  1.1892
 2315TIP3    H228361   1.209   5.154  11.122 -1.4723 -1.2491 -3.1462
 2316TIP3   OH228362   1.186   2.885   4.897 -0.1126 -0.0444 -0.2055
 2316TIP3    H128363   1.108   2.917   4.851 -1.5390 -3.1673 -0.2547
 2316TIP3    H228364   1.238   2.842   4.829  0.0322 -0.7252  0.3216
 2317TIP3   OH228365   2.678   0.625  17.027 -0.2727  0.0631 -0.3326
 2317TIP3    H128366   2.716   0.553  16.977 -0.7121 -0.0470 -0.5071
 2317TIP3    H228367   2.717   0.616  17.114  1.5903  1.1039 -1.0047
 2318TIP3   OH228368   1.816   5.827  16.935 -0.5801 -0.2173 -0.1738
 2318TIP3    H128369   1.834   5.891  17.004  0.0341  0.9801 -1.4035
 2318TIP3    H228370   1.722   5.836  16.919 -1.5340 -2.9197  2.7694
 2319TIP3   OH228371   0.987   1.170  11.002  0.1085 -0.2530 -0.5477
 2319TIP3    H128372   0.892   1.185  11.002 -0.0708 -1.1339  1.5660
 2319TIP3    H228373   0.997   1.080  10.973  0.3499 -0.0863 -1.0047
 2320TIP3   OH228374   2.608   1.120   6.269  0.4841  0.5099 -0.4132
 2320TIP3    H128375   2.563   1.203   6.251 -2.3910 -1.2153 -1.9438
 2320TIP3    H228376   2.546   1.070   6.321  1.8541 -0.9816 -0.1233
 2321TIP3   OH228377   0.201   5.528   5.242  0.4690  0.5799 -0.2232
 2321TIP3    H128378   0.249   5.452   5.276  0.5257  1.3651  1.5369
 2321TIP3    H228379   0.109   5.499   5.241  0.5640  0.2717 -0.2400
 2322TIP3   OH228380   5.843   4.994   3.393  0.7557  0.9984 -0.4051
 2322TIP3    H128381   5.851   5.036   3.479  1.3106  1.3563 -0.6271
 2322TIP3    H228382   5.808   5.063   3.337  2.5144  1.4637 -0.9818
 2323TIP3   OH228383   5.818   1.128  11.295  0.0542 -0.2724 -0.0418
 2323TIP3    H128384   5.858   1.208  11.259 -0.1611  0.2057  0.7516
 2323TIP3    H228385   5.862   1.057  11.249 -0.5649  0.3228 -1.6151
 2324TIP3   OH228386   4.663   5.643   4.586  0.2393 -0.0593  0.6068
 2324TIP3    H128387   4.742   5.627   4.535 -0.1412  0.6054 -0.2227
 2324TIP3    H228388   4.591   5.628   4.524 -0.4028 -2.4768  1.8207
 2325TIP3   OH228389   1.086   2.957   4.642 -0.3406  0.0365 -0.0421
 2325TIP3    H128390   0.999   2.933   4.610 -0.5487  2.3468 -1.3820
 2325TIP3    H228391   1.111   3.033   4.590  0.4943  2.3997  3.4661
 2326TIP3   OH228392   0.313   5.079  13.917 -0.2260 -0.4888 -0.2107
 2326TIP3    H128393   0.360   5.099  13.998  0.2353 -0.8513 -0.3750
 2326TIP3    H228394   0.269   5.160  13.892 -1.0176 -0.5921  0.8181
 2327TIP3   OH228395   3.169   2.386   3.363  0.6173 -0.2352 -0.2536
 2327TIP3    H128396   3.181   2.294   3.388 -2.1242 -0.4972  0.4244
 2327TIP3    H228397   3.112   2.422   3.431 -0.0570  1.4011 -1.6175
 2328TIP3   OH228398   6.056   1.076  15.791  0.6483  0.5129  0.1146
 2328TIP3    H128399   6.092   1.139  15.854  1.4174  0.7896 -0.5781
 2328TIP3    H228400   6.079   1.112  15.705 -1.2643  0.6677 -0.3730
 2329TIP3   OH228401   5.372   6.528  11.377 -0.1980  0.3954  0.2169
 2329TIP3    H128402   5.402   6.537  11.467  0.0870  0.5588  0.1073
 2329TIP3    H228403   5.431   6.462  11.339 -1.0158 -0.5033  0.4579
 2330TIP3   OH228404   6.778   5.790  13.597  0.0778 -1.0473 -0.2366
 2330TIP3    H128405   6.836   5.839  13.655 -0.8765  0.2576 -0.3420
 2330TIP3    H228406   6.836   5.756  13.528  0.7882 -0.2299 -0.0514
 2331TIP3   OH228407   5.756   5.352  11.554 -0.2339  0.1620 -0.5871
 2331TIP3    H128408   5.708   5.297  11.492  0.4442  0.5769 -1.4998
 2331TIP3    H228409   5.711   5.436  11.551 -0.4853  0.0462 -0.1563
 2332TIP3   OH228410   3.143   4.236  11.896  0.6281 -0.2354  0.1292
 2332TIP3    H128411   3.056   4.195  11.901 -0.5730  2.0937 -0.0598
 2332TIP3    H228412   3.153   4.260  11.804  0.4406  1.4827  0.5195
 2333TIP3   OH228413   1.637   3.475  16.191 -0.2291  0.4811  0.7520
 2333TIP3    H128414   1.698   3.548  16.186 -0.9795  1.0186 -1.1368
 2333TIP3    H228415   1.597   3.484  16.278  2.4086 -0.0000  2.1329
 2334TIP3   OH228416   1.299   4.723  12.386 -0.0405 -0.1516 -0.1153
 2334TIP3    H128417   1.344   4.777  12.452  1.9226  1.3043 -2.4341
 2334TIP3    H228418   1.357   4.648  12.374 -1.2833 -1.3299  0.9991
 2335TIP3   OH228419   6.486   5.207  16.214 -0.1783 -0.8788  0.2679
 2335TIP3    H128420   6.434   5.229  16.137 -1.1407  1.1885  1.4087
 2335TIP3    H228421   6.576   5.229  16.189 -0.3348 -1.1568 -0.5686
 2336TIP3   OH228422   3.629   2.945   1.286  0.1860  0.1207  0.0351
 2336TIP3    H128423   3.650   2.979   1.199 -1.6386  0.7697 -0.1993
 2336TIP3    H228424   3.685   2.995   1.345  0.9725  0.1353 -0.6998
 2337TIP3   OH228425   3.230   5.434  15.487  0.7585 -0.4935  0.5653
 2337TIP3    H128426   3.154   5.457  15.433  0.3791 -0.0253  1.2764
 2337TIP3    H228427   3.269   5.518  15.510 -1.2546 -0.3125  4.0701
 2338TIP3   OH228428   3.969   5.189  13.517  0.0482  0.6402 -0.0004
 2338TIP3    H128429   3.971   5.152  13.429 -0.5058 -1.1634  0.6910
 2338TIP3    H228430   4.032   5.260  13.515 -1.7713  2.3468 -2.5610
 2339TIP3   OH228431   0.989   4.728  16.123  0.0825  0.0590  0.0367
 2339TIP3    H128432   0.952   4.658  16.176  1.7883 -0.8500  0.0988
 2339TIP3    H228433   1.067   4.756  16.171 -0.3205  1.7447 -0.2056
 2340TIP3   OH228434   4.971   2.606   1.864  0.3830 -0.0874 -0.0904
 2340TIP3    H128435   4.987   2.585   1.956 -0.2318  0.2965  0.1117
 2340TIP3    H228436   5.036   2.556   1.816  0.7481 -0.2438  0.5619
 2341TIP3   OH228437   5.601   3.369  12.446  0.5282 -0.3815 -0.1360
 2341TIP3    H128438   5.631   3.336  12.531 -0.4254  1.5741  1.0582
 2341TIP3    H228439   5.506   3.364  12.451  0.4725 -1.4754 -1.6758
 2342TIP3   OH228440   1.694   3.639   3.061  0.0577  0.4970  0.0270
 2342TIP3    H128441   1.723   3.549   3.077  0.2574  0.2097 -1.8008
 2342TIP3    H228442   1.774   3.687   3.042 -0.0631  1.0487  0.8652
 2343TIP3   OH228443   6.586   6.013  13.510  0.0431 -0.5082  0.0730
 2343TIP3    H128444   6.527   5.944  13.481 -0.8526  0.7446 -1.2351
 2343TIP3    H228445   6.653   5.968  13.561 -1.8055 -2.0341  1.2696
 2344TIP3   OH228446   5.697   0.683  16.341  0.3116 -0.0688 -0.0052
 2344TIP3    H128447   5.662   0.646  16.422  0.0806  1.9425  0.8713
 2344TIP3    H228448   5.775   0.631  16.323  0.4303 -0.5035  1.5685
 2345TIP3   OH228449   2.116   3.675  13.218 -0.3303 -0.8173 -0.0728
 2345TIP3    H128450   2.085   3.760  13.184 -1.2757 -1.2012 -0.2154
 2345TIP3    H228451   2.042   3.642  13.269  0.7084 -0.7251  1.5411
 2346TIP3   OH228452   1.689   5.442   1.584 -0.3726 -0.2576  0.1820
 2346TIP3    H128453   1.651   5.528   1.600  1.0206  0.6667 -1.1960
 2346TIP3    H228454   1.644   5.410   1.505  1.3084  0.6626 -1.2128
 2347TIP3   OH228455   5.328   0.573  10.637  0.5420  0.6109 -0.0232
 2347TIP3    H128456   5.276   0.534  10.567  1.7787  1.8923 -1.7375
 2347TIP3    H228457   5.281   0.550  10.717 -0.8827 -0.9821 -1.2387
 2348TIP3   OH228458   6.460   2.801   1.318  0.2337  0.2212 -0.2103
 2348TIP3    H128459   6.391   2.801   1.252 -1.2653  1.5333  1.2540
 2348TIP3    H228460   6.500   2.887   1.310 -0.0257  0.4303  0.6123
 2349TIP3   OH228461   0.426   2.677  11.526  0.4181  0.2301  0.0656
 2349TIP3    H128462   0.434   2.589  11.488  0.7011  0.2097  0.1716
 2349TIP3    H228463   0.502   2.685  11.583 -0.3992 -0.0513  1.2474
 2350TIP3   OH228464   5.196   4.754   2.851  0.2577  0.2836  0.4508
 2350TIP3    H128465   5.132   4.688   2.877  0.5193 -0.2934 -0.3224
 2350TIP3    H228466   5.250   4.768   2.929  0.8216 -1.1629  0.3538
 2351TIP3   OH228467   0.285   4.534   1.253 -0.7470 -0.0941 -0.0280
 2351TIP3    H128468   0.331   4.452   1.237  1.1273  0.6183  1.3714
 2351TIP3    H228469   0.336   4.601   1.207 -0.2235  0.7428  1.7011
 2352TIP3   OH228470   4.331   6.498  12.602 -0.1142 -0.0781 -0.4726
 2352TIP3    H128471   4.341   6.524  12.693 -2.2370  1.2302 -0.5396
 2352TIP3    H228472   4.370   6.570  12.552  0.3256 -0.4111 -0.6197
 2353TIP3   OH228473   2.784   5.941   4.798 -0.1894 -0.4270  0.1030
 2353TIP3    H128474   2.732   6.016   4.828  0.8295  0.0531  0.7274
 2353TIP3    H228475   2.874   5.966   4.817  0.1706 -1.8372  0.3638
 2354TIP3   OH228476   4.303   1.135  16.457  0.0480 -0.3015  0.6461
 2354TIP3    H128477   4.266   1.216  16.424  0.3354  0.0570  1.1838
 2354TIP3    H228478   4.360   1.162  16.529  0.0063 -0.9904  0.9529
 2355TIP3   OH228479   1.679   5.983   3.056  0.4590  0.0083  0.3776
 2355TIP3    H128480   1.717   5.909   3.104  1.0523  0.3809  0.4872
 2355TIP3    H228481   1.703   6.060   3.108  1.0845  0.4200 -0.4979
 2356TIP3   OH228482   3.321   1.596  13.279  0.1387 -0.0309 -0.2259
 2356TIP3    H128483   3.257   1.667  13.285 -1.0185 -1.0994  0.2441
 2356TIP3    H228484   3.321   1.555  13.365  1.1360 -0.3411 -0.3532
 2357TIP3   OH228485   1.296   4.819   1.965  0.2535  0.0804  0.3535
 2357TIP3    H128486   1.311   4.736   1.920  2.3621  0.7246 -0.2739
 2357TIP3    H228487   1.224   4.860   1.917 -0.0589 -0.8928 -0.0298
 2358TIP3   OH228488   4.706   3.213  13.194 -0.2904 -0.2739  0.8183
 2358TIP3    H128489   4.728   3.216  13.287  0.2972 -1.5567  0.7399
 2358TIP3    H228490   4.759   3.142  13.159 -0.7415 -0.0139 -0.4401
 2359TIP3   OH228491   2.128   2.515   2.604  0.0783  0.0817 -0.1351
 2359TIP3    H128492   2.149   2.426   2.633  0.3168  0.4510  0.8731
 2359TIP3    H228493   2.038   2.529   2.632  0.0030  0.1146 -0.3956
 2360TIP3   OH228494   0.426   1.655  14.836  0.4160 -0.1790 -0.1877
 2360TIP3    H128495   0.340   1.695  14.849 -0.1186 -1.0844 -0.7803
 2360TIP3    H228496   0.480   1.689  14.908 -0.7608 -0.4847  0.8777
 2361TIP3   OH228497   2.641   6.514   2.464 -0.6185 -0.4906 -0.0472
 2361TIP3    H128498   2.566   6.535   2.408 -1.1739 -0.4180  0.7015
 2361TIP3    H228499   2.696   6.456   2.410 -1.0487 -0.2831 -0.7196
 2362TIP3   OH228500   1.987   1.816   0.998 -0.1228  0.2636 -0.4386
 2362TIP3    H128501   1.992   1.754   0.926  0.3492  0.9533 -1.0172
 2362TIP3    H228502   2.016   1.767   1.075  1.4887  0.0897 -1.1041
 2363TIP3   OH228503   0.482   5.928   5.829  0.6788 -0.0699  0.1188
 2363TIP3    H128504   0.500   5.835   5.841  0.5925 -0.1215 -0.1470
 2363TIP3    H228505   0.545   5.957   5.763  1.5516  0.3488  1.1155
 2364TIP3   OH228506   3.350   2.033  12.084  0.8251 -0.6381 -0.0665
 2364TIP3    H128507   3.262   2.060  12.060  1.7362  1.9490 -0.8592
 2364TIP3    H228508   3.395   2.019  12.001  1.3046 -1.5212  0.3220
 2365TIP3   OH228509   4.404   4.706  15.880  0.1155  0.0424  0.3633
 2365TIP3    H128510   4.408   4.739  15.791  2.2091  1.4853  0.9054
 2365TIP3    H228511   4.436   4.616  15.874 -0.5391 -0.1399 -0.4371
 2366TIP3   OH228512   5.099   6.211   2.954 -0.2208 -0.0887 -0.2060
 2366TIP3    H128513   5.099   6.275   3.026 -0.1382  1.3278 -1.4075
 2366TIP3    H228514   5.170   6.240   2.897  0.4273 -1.8273 -0.3504
 2367TIP3   OH228515   1.868   5.930  13.032  0.3174 -0.5800 -0.2788
 2367TIP3    H128516   1.789   5.893  13.072  0.1121 -0.9666 -1.0245
 2367TIP3    H228517   1.859   6.025  13.044 -1.2874 -0.4341 -2.1471
 2368TIP3   OH228518   3.001   2.895   1.104 -0.3845  0.1728  0.2832
 2368TIP3    H128519   3.077   2.878   1.159  0.8608  2.4156 -0.6294
 2368TIP3    H228520   2.996   2.819   1.045  1.4877  0.2246  0.0155
 2369TIP3   OH228521   0.770   1.110  14.879 -0.6161 -0.7867 -1.1390
 2369TIP3    H128522   0.700   1.146  14.824 -1.5653 -1.2504 -0.2804
 2369TIP3    H228523   0.817   1.050  14.821 -1.3727 -1.0060 -1.5467
 2370TIP3   OH228524   3.018   3.804  13.958 -0.3015  0.2040  0.3010
 2370TIP3    H128525   3.087   3.790  13.893 -0.6333 -0.7026  0.1331
 2370TIP3    H228526   2.976   3.886  13.931 -1.2197 -0.7607 -1.3565
 2371TIP3   OH228527   2.742   1.058  14.327  0.6288  0.0654 -0.4000
 2371TIP3    H128528   2.669   1.009  14.366  0.3791 -0.2921 -1.3046
 2371TIP3    H228529   2.718   1.150  14.340 -0.2464 -0.0449 -1.1478
 2372TIP3   OH228530   0.116   2.353  14.676 -0.4971 -0.3612  0.1369
 2372TIP3    H128531   0.166   2.433  14.663 -0.8585 -0.5298 -2.9204
 2372TIP3    H228532   0.181   2.282  14.675 -0.4401 -0.3079  0.0986
 2373TIP3   OH228533   0.225   1.108  15.698  0.1699 -0.6526 -0.1764
 2373TIP3    H128534   0.135   1.104  15.730  0.3354  0.2014  0.4557
 2373TIP3    H228535   0.218   1.136  15.607 -0.1779  0.4274  0.1655
 2374TIP3   OH228536   1.767   5.747  13.443 -0.1397 -0.1316  0.7501
 2374TIP3    H128537   1.776   5.744  13.347  1.9929 -0.1808  0.8860
 2374TIP3    H228538   1.678   5.716  13.460  0.0350 -1.9188 -1.1450
 2375TIP3   OH228539   0.988   2.236   4.049 -0.2221  0.2287  0.0910
 2375TIP3    H128540   1.008   2.164   3.989 -0.9050 -1.0902  1.3701
 2375TIP3    H228541   1.049   2.223   4.122 -0.2022  1.0991  0.2400
 2376TIP3   OH228542   4.690   3.892   0.481  0.2819 -0.2844  0.5121
 2376TIP3    H128543   4.686   3.829   0.554  0.5829 -1.7660 -0.6896
 2376TIP3    H228544   4.720   3.973   0.521  1.1130 -1.2436  1.9422
 2377TIP3   OH228545   6.077   5.749   1.641 -0.0984 -0.2226 -0.3108
 2377TIP3    H128546   6.018   5.673   1.636 -0.8951  0.2659  1.2245
 2377TIP3    H228547   6.022   5.820   1.674  0.4989  1.2196 -2.2280
 2378TIP3   OH228548   4.577   5.239  15.937  0.1731  0.3001 -0.2353
 2378TIP3    H128549   4.500   5.246  15.881  0.5443 -0.9810 -0.9623
 2378TIP3    H228550   4.640   5.301  15.899 -0.3226  1.0001  0.0760
 2379TIP3   OH228551   5.449   3.555   3.327  0.6069  0.0627  0.3037
 2379TIP3    H128552   5.424   3.640   3.364  1.3431  0.5797 -0.3696
 2379TIP3    H228553   5.539   3.567   3.298  0.2138 -0.4812 -1.1848
 2380TIP3   OH228554   0.753   6.641   0.661  0.7270  0.2395 -0.2036
 2380TIP3    H128555   0.779   6.571   0.602 -0.6996 -0.0603 -0.5137
 2380TIP3    H228556   0.657   6.642   0.657  0.6752  3.3053 -1.5234
 2381TIP3   OH228557   5.478   3.460  14.988  0.4273 -0.0770  0.4257
 2381TIP3    H128558   5.566   3.498  14.984  0.6711 -0.5853  0.8546
 2381TIP3    H228559   5.425   3.517  14.932  1.0367  0.2078  0.1260
 2382TIP3   OH228560   5.706   5.356   4.686  0.4391 -0.4193 -0.5204
 2382TIP3    H128561   5.743   5.275   4.652  3.5238 -0.3201  2.1664
 2382TIP3    H228562   5.636   5.328   4.744  1.6066 -1.2316  0.5390
 2383TIP3   OH228563   1.030   1.542   5.402 -0.1971 -0.5627 -0.0313
 2383TIP3    H128564   1.100   1.582   5.350 -2.1663  1.0824 -1.6298
 2383TIP3    H228565   1.065   1.458   5.430  1.9037 -0.4108 -1.9238
 2384TIP3   OH228566   4.876   3.690  15.534 -0.0920 -0.3694  0.0905
 2384TIP3    H128567   4.825   3.738  15.600 -0.9079 -0.3827 -0.5124
 2384TIP3    H228568   4.902   3.758  15.471 -2.1650 -0.8152 -1.3473
 2385TIP3   OH228569   1.088   6.424  15.062  0.3190  0.0391 -0.7343
 2385TIP3    H128570   1.171   6.471  15.066 -0.8275  2.1128  1.5409
 2385TIP3    H228571   1.076   6.390  15.151 -1.9393  1.1278 -0.5522
 2386TIP3   OH228572   4.155   2.040   2.625 -0.5866 -0.2472  0.0076
 2386TIP3    H128573   4.172   1.987   2.703  0.3245 -1.6731 -1.1067
 2386TIP3    H228574   4.088   1.991   2.577 -1.0625  0.5666 -0.1750
 2387TIP3   OH228575   6.170   4.397  15.245 -0.0951  1.0086 -0.0762
 2387TIP3    H128576   6.136   4.387  15.334 -0.5354 -1.3702 -0.4670
 2387TIP3    H228577   6.247   4.453  15.256 -1.0303  2.0771  1.5502
 2388TIP3   OH228578   5.098   6.177  15.173  0.4270 -0.4585  0.6064
 2388TIP3    H128579   5.012   6.219  15.178  1.3276  1.3689  2.0486
 2388TIP3    H228580   5.152   6.240  15.126  1.5756 -0.4096  1.9446
 2389TIP3   OH228581   6.654   1.832   3.489 -0.4086 -0.2619 -0.0589
 2389TIP3    H128582   6.640   1.760   3.551 -0.3374 -0.3749 -0.1722
 2389TIP3    H228583   6.678   1.906   3.543  0.7640 -0.6498 -0.0336
 2390TIP3   OH228584   0.528   3.936   3.033 -0.6958 -0.0279 -0.2375
 2390TIP3    H128585   0.584   3.907   3.104  0.2272 -0.3094 -1.0609
 2390TIP3    H228586   0.583   3.931   2.955 -1.8140 -0.1633 -1.0467
 2391TIP3   OH228587   5.505   6.073   5.576 -0.3324  0.0903 -0.6074
 2391TIP3    H128588   5.443   6.122   5.631 -1.0145 -2.4734  1.0813
 2391TIP3    H228589   5.569   6.038   5.638  1.5377  0.7796 -2.0612
 2392TIP3   OH228590   0.929   1.136   2.112  0.1208 -1.0393 -0.3336
 2392TIP3    H128591   0.919   1.111   2.204  0.5068  0.7042  0.2165
 2392TIP3    H228592   0.846   1.110   2.071 -1.8681  1.8918  1.4430
 2393TIP3   OH228593   0.023   4.652   1.133  0.2799 -0.0276 -0.0936
 2393TIP3    H128594   0.090   4.598   1.175  0.5699 -0.8889 -1.5956
 2393TIP3    H228595  -0.057   4.632   1.181  0.6745 -0.6648  0.3204
 2394TIP3   OH228596   2.873   2.374  13.107  0.3245 -0.2432 -0.2680
 2394TIP3    H128597   2.809   2.335  13.167 -2.1128  2.1147 -1.1312
 2394TIP3    H228598   2.860   2.327  13.025 -0.6719  0.4975 -0.5562
 2395TIP3   OH228599   1.263   5.005  16.136  0.5900  0.1408 -0.8349
 2395TIP3    H128600   1.248   5.020  16.043  0.0574 -1.7838 -1.0839
 2395TIP3    H228601   1.357   4.987  16.143  0.0826 -3.5277 -1.6447
 2396TIP3   OH228602   5.896   6.146  15.563 -0.0398  0.0902 -0.6439
 2396TIP3    H128603   5.887   6.235  15.597 -0.0497  0.4503 -1.5594
 2396TIP3    H228604   5.819   6.133  15.507  0.8882  0.1972 -1.9901
 2397TIP3   OH228605   5.053   2.195  14.094  0.1203  0.2462  0.4402
 2397TIP3    H128606   5.143   2.204  14.126  0.9402  0.8325 -1.8185
 2397TIP3    H228607   5.029   2.105  14.114  1.4922 -0.1323  0.4737
 2398TIP3   OH228608   4.588   0.368   5.837  0.4445 -0.4053 -0.1206
 2398TIP3    H128609   4.593   0.290   5.892 -1.5154  0.7445  1.8132
 2398TIP3    H228610   4.592   0.334   5.747  0.4201 -2.6259  0.6571
 2399TIP3   OH228611   2.011   2.139  14.433  0.5508 -0.3177 -0.8054
 2399TIP3    H128612   2.049   2.200  14.496 -0.2387 -1.0252  0.4049
 2399TIP3    H228613   1.919   2.165  14.426  0.6681 -0.1264 -1.8445
 2400TIP3   OH228614   1.861   6.249   4.988  0.2781  0.0857 -0.3721
 2400TIP3    H128615   1.929   6.192   5.025 -0.3959  0.3078  1.3032
 2400TIP3    H228616   1.791   6.189   4.962 -0.1546  0.0602  0.7807
 2401TIP3   OH228617   2.456   0.909   1.558  0.4326 -0.2734  0.4792
 2401TIP3    H128618   2.455   0.843   1.627  1.4981 -0.1683  0.6172
 2401TIP3    H228619   2.380   0.889   1.504  0.2578 -1.0817  1.0121
 2402TIP3   OH228620   1.997   2.752  14.216  0.0443  0.0921 -0.2243
 2402TIP3    H128621   2.030   2.718  14.132 -0.4131  2.4922 -1.4438
 2402TIP3    H228622   1.906   2.773  14.199 -0.8129 -1.7366  1.6845
 2403TIP3   OH228623   2.900   2.204   5.451  0.5249  0.2551 -0.1956
 2403TIP3    H128624   2.919   2.235   5.363  1.5641 -0.7731 -0.3546
 2403TIP3    H228625   2.980   2.220   5.500  0.5528 -0.7435  0.1095
 2404TIP3   OH228626   5.578   0.801   4.520 -0.1585 -0.0388  0.0672
 2404TIP3    H128627   5.609   0.789   4.610  1.5245  0.0295 -0.4685
 2404TIP3    H228628   5.540   0.889   4.519  1.3821  0.6687  0.3358
 2405TIP3   OH228629   0.957   2.813  15.770 -0.1481 -0.1836 -0.4398
 2405TIP3    H128630   0.947   2.746  15.702  0.9366  0.2361 -1.0386
 2405TIP3    H228631   0.980   2.893  15.722  1.5534 -0.0835  0.4484
 2406TIP3   OH228632   1.171   0.039  11.760  0.6206 -0.2355 -0.5873
 2406TIP3    H128633   1.258   0.022  11.725  1.1576  0.5731  0.3042
 2406TIP3    H228634   1.148  -0.039  11.809  1.1994 -0.1224 -0.1336
 2407TIP3   OH228635   2.995   5.839   2.539  0.1559  0.2324  0.4915
 2407TIP3    H128636   3.046   5.790   2.474 -0.6270 -0.8693  0.6952
 2407TIP3    H228637   2.945   5.902   2.487  0.8838  0.5756  0.1929
 2408TIP3   OH228638   1.628   0.457   1.128  0.6468 -0.3330  0.1405
 2408TIP3    H128639   1.720   0.474   1.105  0.2572  0.3616 -0.9904
 2408TIP3    H228640   1.589   0.544   1.136 -0.4157 -0.5917 -1.5935
 2409TIP3   OH228641   2.752   5.196  15.505  0.5823  0.5108  0.2323
 2409TIP3    H128642   2.821   5.222  15.445  0.2774  0.8139  0.0056
 2409TIP3    H228643   2.755   5.260  15.575  0.7637  0.3155  0.4005
 2410TIP3   OH228644   5.657   0.990   2.192  0.1821  0.3883  0.1464
 2410TIP3    H128645   5.596   0.957   2.126 -0.1554 -1.7911  1.4257
 2410TIP3    H228646   5.742   0.956   2.164  0.1441  0.0181  0.4748
 2411TIP3   OH228647   1.092   0.512  12.029  0.3508  0.0255  0.2615
 2411TIP3    H128648   1.045   0.596  12.022  0.0338 -0.2210 -0.9184
 2411TIP3    H228649   1.173   0.526  11.981 -0.0543 -0.5579 -0.6302
 2412TIP3   OH228650   4.828   2.552   0.549 -0.6606 -0.5593 -0.0981
 2412TIP3    H128651   4.857   2.643   0.538 -0.0250 -0.9743 -2.3668
 2412TIP3    H228652   4.908   2.504   0.574 -0.6093 -0.7606 -0.6317
 2413TIP3   OH228653   4.695   2.940  16.878  0.2159  0.7076  1.0855
 2413TIP3    H128654   4.604   2.960  16.900 -0.0887 -0.7082  1.1860
 2413TIP3    H228655   4.699   2.844  16.874  1.5925  0.7567  0.6096
 2414TIP3   OH228656   3.778   6.779  13.035  0.5495 -0.5329 -0.2470
 2414TIP3    H128657   3.698   6.817  13.070  0.6562 -0.7108  0.1937
 2414TIP3    H228658   3.773   6.687  13.058  0.1808 -0.8569 -1.5159
 2415TIP3   OH228659   1.251   2.390   0.613  0.2477  0.4834  0.1093
 2415TIP3    H128660   1.314   2.376   0.542  0.3496 -0.0108  0.2926
 2415TIP3    H228661   1.166   2.388   0.569  0.3187  0.3752 -0.0248
 2416TIP3   OH228662   1.351   1.873   6.825 -0.5193 -0.0677 -0.4673
 2416TIP3    H128663   1.432   1.884   6.774  0.2900 -2.0496  0.2911
 2416TIP3    H228664   1.357   1.784   6.859 -2.3852  0.2466  0.7752
 2417TIP3   OH228665   0.699   4.543   2.567  0.2106  0.1804 -0.0612
 2417TIP3    H128666   0.674   4.520   2.478  1.2464 -0.3336 -0.2326
 2417TIP3    H228667   0.691   4.639   2.571  2.0938  0.4489 -1.3481
 2418TIP3   OH228668   3.175   3.037   4.767 -0.7198  0.3644  0.1790
 2418TIP3    H128669   3.149   3.125   4.740 -2.0042 -0.3249 -0.9265
 2418TIP3    H228670   3.106   2.980   4.734  0.0695 -1.0718  0.9086
 2419TIP3   OH228671   2.772   1.958  15.928  0.0113  0.5133  0.2068
 2419TIP3    H128672   2.764   1.932  16.020  0.3887 -1.0358 -0.1790
 2419TIP3    H228673   2.802   2.049  15.932  0.2380  0.4055  1.6164
 2420TIP3   OH228674   0.331   1.342  16.970  0.2877 -0.2553 -0.4303
 2420TIP3    H128675   0.260   1.397  16.936  0.2991 -0.0946 -0.1951
 2420TIP3    H228676   0.395   1.405  17.004  1.4075 -0.2949 -2.2902
 2421TIP3   OH228677   0.860   0.569  16.363 -0.0699 -0.2671  0.0918
 2421TIP3    H128678   0.924   0.613  16.418 -0.5970  0.1256  0.3991
 2421TIP3    H228679   0.819   0.639  16.312 -0.1561 -0.5299 -0.2083
 2422TIP3   OH228680   4.591   1.016  11.319 -0.0914 -0.4694  0.0074
 2422TIP3    H128681   4.642   0.939  11.295 -0.2485 -0.6801  0.3401
 2422TIP3    H228682   4.502   0.983  11.333 -0.3504 -0.0857 -0.6705
 2423TIP3   OH228683   5.268   3.033  13.386  0.4096 -0.1057 -0.2529
 2423TIP3    H128684   5.350   3.078  13.366  0.5117 -0.3389 -0.3582
 2423TIP3    H228685   5.229   3.015  13.301  1.3329 -2.0064 -0.3130
 2424TIP3   OH228686   1.940   3.475   1.153 -0.3349 -0.3476  0.0932
 2424TIP3    H128687   1.977   3.520   1.228 -0.8115 -0.8588  0.6447
 2424TIP3    H228688   2.014   3.464   1.092 -0.2611  1.3715 -0.1679
 2425TIP3   OH228689   3.341   0.001   6.231  0.3858 -0.1432 -0.6954
 2425TIP3    H128690   3.321  -0.074   6.287  0.9709  0.3655  0.2106
 2425TIP3    H228691   3.412   0.047   6.276 -0.8578  1.7212 -0.5186
 2426TIP3   OH228692   0.448   3.304   2.822 -0.3189 -0.1908  0.5647
 2426TIP3    H128693   0.482   3.347   2.900 -0.5497  1.3423 -0.1420
 2426TIP3    H228694   0.386   3.367   2.784 -0.1107 -0.8258 -0.9155
 2427TIP3   OH228695   0.893   0.625   6.290 -0.0820 -0.3232 -0.5952
 2427TIP3    H128696   0.954   0.696   6.274  0.2518 -0.5785 -0.4557
 2427TIP3    H228697   0.939   0.566   6.349 -0.6480 -0.2672 -0.0858
 2428TIP3   OH228698   4.809   5.040  10.334  0.0589 -0.2248 -0.0289
 2428TIP3    H128699   4.898   5.054  10.302 -0.0547  0.2267 -0.1515
 2428TIP3    H228700   4.805   4.946  10.353  1.0446  0.0034  1.4395
 2429TIP3   OH228701   4.199   0.195  17.062 -0.2658  0.2615 -0.3346
 2429TIP3    H128702   4.170   0.143  17.137 -0.3919 -2.0847 -1.8997
 2429TIP3    H228703   4.143   0.273  17.064 -2.3131 -1.1254  0.3792
 2430TIP3   OH228704   3.065   5.932  12.553  0.3383 -0.1778 -0.3298
 2430TIP3    H128705   2.972   5.922  12.537 -0.3169  2.0679  1.4123
 2430TIP3    H228706   3.100   5.969  12.472 -0.1530 -1.5238 -1.1778
 2431TIP3   OH228707   3.004   0.422   5.971  0.0402 -0.2006 -0.0553
 2431TIP3    H128708   2.990   0.345   5.915  0.0346  0.5972 -1.1946
 2431TIP3    H228709   2.967   0.495   5.921 -0.2963  0.4981  1.1694
 2432TIP3   OH228710   6.130   3.325  13.536 -0.3415 -0.0822 -0.1338
 2432TIP3    H128711   6.082   3.332  13.454 -1.6826  1.5314  0.7308
 2432TIP3    H228712   6.202   3.387  13.528 -0.7506  0.4282  0.0641
 2433TIP3   OH228713   6.287   3.227  16.226 -0.2869 -0.4029  0.2486
 2433TIP3    H128714   6.289   3.170  16.303 -0.3721  0.7473  1.1267
 2433TIP3    H228715   6.378   3.252  16.212 -0.5344  1.5558  1.6807
 2434TIP3   OH228716   1.793   1.270   0.401 -0.0311 -0.5834 -0.0547
 2434TIP3    H128717   1.709   1.304   0.433  0.4603  1.3785 -0.7242
 2434TIP3    H228718   1.792   1.178   0.426 -2.0854 -0.4497  0.5622
 2435TIP3   OH228719   2.551   5.816  14.731 -0.4832 -0.6372 -0.4960
 2435TIP3    H128720   2.485   5.756  14.768 -1.4179 -0.0377 -1.1354
 2435TIP3    H228721   2.630   5.798  14.782 -1.5567 -0.2311  1.4470
 2436TIP3   OH228722   1.127   4.503  10.933 -0.2441  0.3660 -0.0338
 2436TIP3    H128723   1.065   4.432  10.919  0.2605 -0.8262  3.1743
 2436TIP3    H228724   1.200   4.483  10.874 -1.4075 -0.0147 -1.4082
 2437TIP3   OH228725   4.973   2.859  11.183  0.3564  0.0966 -0.2562
 2437TIP3    H128726   4.988   2.923  11.114 -0.4653  0.3470 -0.2163
 2437TIP3    H228727   5.004   2.776  11.145 -0.7248  0.0993 -1.2204
 2438TIP3   OH228728   1.912   5.060  17.041  0.3194 -0.5232 -0.3638
 2438TIP3    H128729   1.955   5.020  16.965  0.7012  0.0322 -0.4436
 2438TIP3    H228730   1.979   5.064  17.108 -0.3039 -2.0410  0.4164
 2439TIP3   OH228731   6.253   3.759  13.498 -0.0494 -0.4889 -0.0547
 2439TIP3    H128732   6.175   3.801  13.536 -0.2114 -0.9705  0.1495
 2439TIP3    H228733   6.323   3.824  13.511 -0.3065 -0.2573  0.2140
 2440TIP3   OH228734   2.996   2.583  16.516  0.4007  0.5890  0.2646
 2440TIP3    H128735   2.984   2.488  16.514  0.2595  0.5963  0.6575
 2440TIP3    H228736   2.923   2.616  16.568  0.3706  0.9268  0.0134
 2441TIP3   OH228737   4.168   4.557  12.080  0.3115  0.5140 -0.3032
 2441TIP3    H128738   4.201   4.467  12.083 -0.1163  0.2909 -1.7144
 2441TIP3    H228739   4.097   4.554  12.016 -0.6336  1.5697  0.6779
 2442TIP3   OH228740   3.993   1.716   4.438  0.0978 -0.2183  0.5624
 2442TIP3    H128741   4.089   1.722   4.432  0.0599 -0.0592 -0.0236
 2442TIP3    H228742   3.972   1.753   4.523  0.6389 -1.3025  1.1834
 2443TIP3   OH228743   0.744   6.066  15.060 -0.7174 -0.0238 -0.2712
 2443TIP3    H128744   0.746   6.118  14.979  0.7371  0.3365 -0.0240
 2443TIP3    H228745   0.749   6.131  15.130  0.4888 -0.4440  0.0535
 2444TIP3   OH228746   2.620   3.572   4.632  0.2363  0.0491 -0.8341
 2444TIP3    H128747   2.690   3.593   4.694  0.4318 -0.7109 -0.7906
 2444TIP3    H228748   2.657   3.504   4.577 -0.5829 -0.5971 -0.6030
 2445TIP3   OH228749   5.559   5.618   0.540  0.1353 -0.3825 -0.9297
 2445TIP3    H128750   5.465   5.601   0.528 -0.0047 -0.1701 -0.2399
 2445TIP3    H228751   5.566   5.643   0.632  0.7317  0.5317 -1.2128
 2446TIP3   OH228752   2.885   0.668   5.342 -0.3935  0.3924 -0.3591
 2446TIP3    H128753   2.902   0.575   5.328  0.3043  0.2175  1.3726
 2446TIP3    H228754   2.963   0.712   5.306 -0.1224  0.2007 -0.0146
 2447TIP3   OH228755   1.244   6.247  11.922 -0.2320 -0.0142 -0.9097
 2447TIP3    H128756   1.174   6.299  11.883  0.0446  0.9808 -0.1446
 2447TIP3    H228757   1.199   6.177  11.968 -0.5641 -1.2379 -2.9743
 2448TIP3   OH228758   3.352   5.990  12.677  0.1685  0.1208  0.8146
 2448TIP3    H128759   3.351   5.949  12.764  1.7629 -0.6899  0.4861
 2448TIP3    H228760   3.286   5.942  12.627  1.8741 -2.0062  0.4948
 2449TIP3   OH228761   0.469   2.398   0.407 -0.1088  0.0049 -0.2803
 2449TIP3    H128762   0.452   2.315   0.452  1.4520  0.8429  2.0358
 2449TIP3    H228763   0.385   2.422   0.367 -1.4687 -1.0923  1.7834
 2450TIP3   OH228764   4.248   0.489  15.439 -0.1079  0.2737  0.0559
 2450TIP3    H128765   4.186   0.529  15.378  0.3426 -0.7602 -1.1153
 2450TIP3    H228766   4.200   0.484  15.522 -1.3612  0.0951 -0.6542
 2451TIP3   OH228767   6.645   4.891   3.703  1.0051  0.3063  0.2404
 2451TIP3    H128768   6.634   4.796   3.690 -1.6040  0.7702 -1.7494
 2451TIP3    H228769   6.701   4.918   3.631  0.5813  0.4799 -0.0229
 2452TIP3   OH228770   2.283   2.567   0.745 -0.4730 -0.1137  0.0611
 2452TIP3    H128771   2.189   2.571   0.759 -0.5334 -0.9480 -0.0176
 2452TIP3    H228772   2.293   2.532   0.657 -0.0990 -0.3805  0.2027
 2453TIP3   OH228773   0.433   2.631   4.235  0.7416  0.4323 -0.0159
 2453TIP3    H128774   0.434   2.575   4.157 -0.8555  1.8382 -1.1080
 2453TIP3    H228775   0.434   2.569   4.308 -1.4501 -1.1190 -1.1690
 2454TIP3   OH228776   4.062   2.119  12.397 -0.2117  0.4817  0.5261
 2454TIP3    H128777   3.979   2.100  12.439 -0.5477  1.1705  0.1839
 2454TIP3    H228778   4.089   2.035  12.359 -1.4236  0.5513 -0.5465
 2455TIP3   OH228779   6.429   5.929   4.498 -0.2153 -0.2768  0.6654
 2455TIP3    H128780   6.365   5.859   4.485  0.4655 -0.5601 -1.4131
 2455TIP3    H228781   6.376   6.005   4.522 -1.4187 -0.4289 -1.2792
 2456TIP3   OH228782   5.941   5.785  10.825  0.0759 -0.2036  1.0126
 2456TIP3    H128783   5.927   5.879  10.813  1.8775  0.2179  1.8449
 2456TIP3    H228784   5.887   5.744  10.758 -1.8673  1.3397  1.5369
 2457TIP3   OH228785   5.061   6.557   1.111  0.3491  0.1190 -0.1336
 2457TIP3    H128786   5.005   6.617   1.063  0.1848  0.7092  0.7762
 2457TIP3    H228787   5.037   6.470   1.078 -0.1888  0.4644 -0.6651
 2458TIP3   OH228788   4.122   5.907   2.904  0.4537  0.0183  0.1286
 2458TIP3    H128789   4.087   5.972   2.842  0.2885  0.0978  0.3070
 2458TIP3    H228790   4.074   5.923   2.985  0.2532 -0.4785  0.1064
 2459TIP3   OH228791   0.440   1.057   0.579 -0.1495  0.1295 -0.6418
 2459TIP3    H128792   0.375   1.064   0.649  0.9295  1.2752  0.2860
 2459TIP3    H228793   0.514   1.013   0.620 -0.0690 -0.5530 -1.5017
 2460TIP3   OH228794   5.155   0.146   5.276 -0.3986  0.1084  0.1014
 2460TIP3    H128795   5.242   0.106   5.276  0.4892  1.9107  1.0156
 2460TIP3    H228796   5.139   0.168   5.184 -0.8239 -2.0785 -0.3904
 2461TIP3   OH228797   2.974   3.405   2.201  0.0857  0.2596  0.0706
 2461TIP3    H128798   2.916   3.329   2.192 -1.1624  1.2308 -0.6151
 2461TIP3    H228799   2.978   3.421   2.295  1.3330 -1.3318  0.3290
 2462TIP3   OH228800   5.285   4.264  15.553  0.0099 -0.2520  0.0005
 2462TIP3    H128801   5.194   4.237  15.537  0.3892 -0.3648 -2.4720
 2462TIP3    H228802   5.280   4.326  15.625 -1.8894 -1.0432  0.6063
 2463TIP3   OH228803   1.862   3.331   5.493 -0.0744 -0.0867  0.0542
 2463TIP3    H128804   1.907   3.251   5.465 -0.1510  0.1072 -0.6535
 2463TIP3    H228805   1.872   3.333   5.588  0.0042 -0.8912  0.0667
 2464TIP3   OH228806   5.212   2.527   0.761 -0.6336 -0.1723  0.1494
 2464TIP3    H128807   5.301   2.491   0.753 -0.2154  1.0057 -0.8029
 2464TIP3    H228808   5.224   2.622   0.761 -2.0281  0.1425 -2.9976
 2465TIP3   OH228809   1.567   3.438  14.279 -0.3633  0.4577 -0.0304
 2465TIP3    H128810   1.491   3.462  14.332  0.5684  0.5120  1.3105
 2465TIP3    H228811   1.642   3.450  14.337  0.8227  1.7618 -1.7401
 2466TIP3   OH228812   5.241   4.444   0.655 -0.4894  0.2407 -0.3577
 2466TIP3    H128813   5.216   4.361   0.696  0.7984 -0.2144 -0.4358
 2466TIP3    H228814   5.231   4.427   0.561 -1.1012  0.4804 -0.3382
 2467TIP3   OH228815   1.958   1.326  15.200 -0.2181 -0.3413  0.1807
 2467TIP3    H128816   1.927   1.353  15.114  0.0559 -0.0840  0.1574
 2467TIP3    H228817   1.988   1.408  15.241 -0.8894 -0.3712  0.7480
 2468TIP3   OH228818   0.324   3.917  12.714  0.4601  0.7364  0.2785
 2468TIP3    H128819   0.380   3.881  12.646 -2.5245  0.6457 -2.3999
 2468TIP3    H228820   0.326   3.852  12.784  1.0694 -0.9046 -1.1890
 2469TIP3   OH228821   3.360   3.008   3.805 -0.2670 -0.0375  0.2242
 2469TIP3    H128822   3.417   2.958   3.746  0.6346  1.2000 -0.0027
 2469TIP3    H228823   3.296   3.049   3.746 -1.6152 -1.6405  0.5049
 2470TIP3   OH228824   1.116   4.393  11.229 -0.4358 -0.7719  0.0398
 2470TIP3    H128825   1.162   4.463  11.184  0.1971 -0.9509  0.4010
 2470TIP3    H228826   1.084   4.335  11.159 -3.7696  1.4904 -0.5492
 2471TIP3   OH228827   3.524   4.791   4.846  0.4463  0.3548 -0.1881
 2471TIP3    H128828   3.539   4.852   4.918  0.9317 -0.2674  0.2534
 2471TIP3    H228829   3.612   4.771   4.813  0.4083 -1.0844  0.5069
 2472TIP3   OH228830   2.035   3.690   5.793 -0.4175 -0.1740  0.1166
 2472TIP3    H128831   2.025   3.785   5.786  1.5527  0.0989  0.4497
 2472TIP3    H228832   1.982   3.665   5.868 -0.3216  0.7771  0.5037
 2473TIP3   OH228833   4.683   3.826  16.238  0.1361 -0.2278  0.0419
 2473TIP3    H128834   4.631   3.755  16.200  0.5855 -0.0700 -0.9185
 2473TIP3    H228835   4.626   3.903  16.231  0.2231 -0.1960 -0.3463
 2474TIP3   OH228836   2.103   3.690  16.668 -0.1478  0.2529 -0.0813
 2474TIP3    H128837   2.079   3.623  16.604 -0.3984 -0.1496  0.4231
 2474TIP3    H228838   2.197   3.702  16.657 -0.2443  0.4020 -0.7272
 2475TIP3   OH228839   5.083   5.119  10.290 -0.4161  0.4456  0.2099
 2475TIP3    H128840   5.084   5.210  10.261 -1.0168  0.8461  1.3905
 2475TIP3    H228841   5.165   5.109  10.339 -0.3834  0.3669  0.1398
 2476TIP3   OH228842   1.605   6.783  11.861 -0.1189 -0.2035 -0.1051
 2476TIP3    H128843   1.670   6.773  11.930 -0.5731 -1.9453  0.1300
 2476TIP3    H228844   1.590   6.877  11.855  0.4287  0.0416  1.6972
 2477TIP3   OH228845   1.140   3.963   1.725  0.3203 -0.2568 -0.6813
 2477TIP3    H128846   1.236   3.970   1.730  0.1176  2.0755  2.0149
 2477TIP3    H228847   1.117   4.013   1.647  1.2827 -1.3203 -1.6938
 2478TIP3   OH228848   6.526   3.587   3.746 -0.0992  0.7780 -0.8068
 2478TIP3    H128849   6.458   3.637   3.702 -0.3756 -2.2324 -4.2369
 2478TIP3    H228850   6.480   3.513   3.786  0.8318  0.0709 -0.9913
 2479TIP3   OH228851   4.374   5.121   1.512 -0.8802 -0.6036  0.7777
 2479TIP3    H128852   4.437   5.154   1.448 -3.1747  0.2688 -1.1908
 2479TIP3    H228853   4.411   5.038   1.542  1.5997  0.2888  0.4629
 2480TIP3   OH228854   5.057   0.741  12.751  0.2731 -0.3578 -0.9516
 2480TIP3    H128855   4.978   0.702  12.715 -0.0622 -1.8421  1.1813
 2480TIP3    H228856   5.128   0.704  12.698 -0.0916 -3.4410  0.4649
 2481TIP3   OH228857   4.166   3.296   3.693  0.0519  0.2325  0.1454
 2481TIP3    H128858   4.116   3.215   3.707 -0.8400  0.2837 -2.2052
 2481TIP3    H228859   4.253   3.267   3.668  0.2717  0.0581  1.0959
 2482TIP3   OH228860   4.313   6.529   0.226  1.2082 -0.3636 -0.5564
 2482TIP3    H128861   4.374   6.515   0.299 -0.8793  0.1237  1.3920
 2482TIP3    H228862   4.299   6.441   0.191  0.7900 -0.9097  0.8971
 2483TIP3   OH228863   4.586   2.546   0.674 -0.5931 -0.5931 -0.2059
 2483TIP3    H128864   4.670   2.542   0.628 -0.7614  1.3530 -0.7713
 2483TIP3    H228865   4.529   2.594   0.614 -2.0912 -1.7903  0.2261
 2484TIP3   OH228866   1.993   2.611  12.759  0.3704 -0.3461  0.2517
 2484TIP3    H128867   2.083   2.635  12.778 -0.0319  0.5096  1.1862
 2484TIP3    H228868   1.986   2.520  12.789  0.4413  0.1735  1.9443
 2485TIP3   OH228869   3.100   1.600  10.992  0.3848 -0.9576  0.4839
 2485TIP3    H128870   3.082   1.675  11.048 -2.6769  1.5984 -3.3662
 2485TIP3    H228871   3.045   1.530  11.026 -1.9957  0.7539  0.4270
 2486TIP3   OH228872   6.652   5.694  12.158 -0.4625  0.0538  0.1681
 2486TIP3    H128873   6.677   5.775  12.114 -0.6608  0.0731  0.0896
 2486TIP3    H228874   6.662   5.626  12.091 -1.2773  0.1571 -0.0697
 2487TIP3   OH228875   3.466   3.280   5.216 -0.1479 -0.4841  0.3348
 2487TIP3    H128876   3.502   3.224   5.285  0.6351  1.6152  1.7089
 2487TIP3    H228877   3.394   3.327   5.258 -1.2067 -0.8550 -0.9715
 2488TIP3   OH228878   4.491   3.991  11.489 -0.3381  0.2792  0.5306
 2488TIP3    H128879   4.584   3.987  11.511 -0.2321 -1.6553 -0.0877
 2488TIP3    H228880   4.446   3.946  11.560 -0.6015 -0.4561 -0.0835
 2489TIP3   OH228881   1.419   5.324  14.979 -0.2945  0.3511 -0.3255
 2489TIP3    H128882   1.412   5.397  14.917  0.5164  1.3495  0.6979
 2489TIP3    H228883   1.331   5.313  15.015 -0.1916  1.6609  0.3898
 2490TIP3   OH228884   2.413   5.012   4.175 -0.1264  0.0482 -0.0866
 2490TIP3    H128885   2.393   4.932   4.225 -0.1668  0.2466  0.2152
 2490TIP3    H228886   2.440   4.980   4.089  0.0802 -0.3025  0.1065
 2491TIP3   OH228887   0.682   3.217  11.639 -0.0839  0.2523  0.4025
 2491TIP3    H128888   0.760   3.227  11.584 -0.7987 -1.2426 -0.9657
 2491TIP3    H228889   0.651   3.307  11.652  0.4748  0.7085 -1.1223
 2492TIP3   OH228890   2.393   6.003  14.604 -0.6537  0.4918 -0.1086
 2492TIP3    H128891   2.352   6.012  14.690  0.8741 -0.9702  0.8303
 2492TIP3    H228892   2.467   5.944  14.618  0.9921  1.9624 -1.9920
 2493TIP3   OH228893   2.754   6.238  14.040  0.4344 -0.3182 -0.9866
 2493TIP3    H128894   2.818   6.232  14.110 -0.9687 -2.3230  0.2337
 2493TIP3    H228895   2.724   6.148  14.027 -2.8918  0.6234 -0.6937
 2494TIP3   OH228896   0.814   2.877   3.264 -1.3341 -0.1164 -0.2151
 2494TIP3    H128897   0.870   2.812   3.307 -2.8556 -1.1282  0.3148
 2494TIP3    H228898   0.782   2.834   3.185 -1.7839  0.2537 -0.2433
 2495TIP3   OH228899   0.726   6.249   0.035  0.1071 -0.2294  0.2446
 2495TIP3    H128900   0.817   6.251   0.065  0.2601  1.4613 -0.2693
 2495TIP3    H228901   0.700   6.341   0.028 -2.0093 -0.6623  1.4338
 2496TIP3   OH228902   5.784   6.728  14.993 -0.3735  0.3664 -0.1722
 2496TIP3    H128903   5.745   6.815  15.002 -0.3529  0.2442  1.4901
 2496TIP3    H228904   5.796   6.699  15.084  0.0665 -1.1654 -0.7060
 2497TIP3   OH228905   2.213   0.586  16.123  0.4684 -0.5554  0.0348
 2497TIP3    H128906   2.279   0.572  16.191 -0.1260  0.0001  0.7472
 2497TIP3    H228907   2.131   0.560  16.164  0.0276  0.3122 -0.2652
 2498TIP3   OH228908   2.611   6.714   5.127  0.6128 -0.3543  0.4142
 2498TIP3    H128909   2.565   6.784   5.080  1.3450 -0.6532 -0.8214
 2498TIP3    H228910   2.678   6.685   5.065  0.4339 -2.0437  0.9598
 2499TIP3   OH228911   0.418   2.370  11.676  0.0608  0.1576 -0.5379
 2499TIP3    H128912   0.434   2.280  11.647 -0.5002  0.5003 -1.9533
 2499TIP3    H228913   0.469   2.424  11.616 -0.6536  0.8488 -0.5320
 2500TIP3   OH228914   1.833   0.265  17.041 -0.4168 -0.0037  0.0892
 2500TIP3    H128915   1.827   0.360  17.050 -0.6740  0.2479 -2.1494
 2500TIP3    H228916   1.927   0.248  17.038 -0.3671  0.3044 -0.3444
 2501TIP3   OH228917   1.741   6.769   4.026  0.4245  0.0659 -0.2794
 2501TIP3    H128918   1.702   6.758   3.939 -0.4367  0.1575  0.0848
 2501TIP3    H228919   1.666   6.775   4.085  0.8914  2.8028  0.1711
 2502TIP3   OH228920   2.403   0.482   2.710 -0.0220 -0.3004 -0.7058
 2502TIP3    H128921   2.454   0.416   2.665  1.5720 -0.1897  0.8349
 2502TIP3    H228922   2.445   0.492   2.795 -1.9715  0.6055  0.2379
 2503TIP3   OH228923   6.668   3.322  15.517  0.3970 -0.1884  0.1407
 2503TIP3    H128924   6.577   3.332  15.489  0.4438  1.3420  0.4518
 2503TIP3    H228925   6.718   3.381  15.460  1.1573 -0.7267  0.2214
 2504TIP3   OH228926   4.312   1.229  10.761  0.6922  0.1762 -0.2334
 2504TIP3    H128927   4.290   1.144  10.723 -0.4504 -0.5463  1.8660
 2504TIP3    H228928   4.239   1.285  10.737  0.0810 -0.2186  0.6441
 2505TIP3   OH228929   5.359   1.918   3.855 -0.2241  0.2514  0.3979
 2505TIP3    H128930   5.322   1.857   3.791  3.2175 -0.8205 -0.8327
 2505TIP3    H228931   5.346   2.004   3.816  0.0446 -0.2295 -0.7990
 2506TIP3   OH228932   5.681   3.688   3.276 -0.0306 -0.4058 -0.2591
 2506TIP3    H128933   5.683   3.748   3.350 -0.8964 -2.3219  1.4468
 2506TIP3    H228934   5.772   3.681   3.247  0.0732  1.7361 -0.6066
 2507TIP3   OH228935   1.405   3.961  15.883  0.2612 -0.3249  0.4427
 2507TIP3    H128936   1.352   3.912  15.946  0.3614  0.0940  0.8584
 2507TIP3    H228937   1.496   3.942  15.907  0.3318 -1.7316 -0.8058
 2508TIP3   OH228938   4.332   0.106  16.526 -0.1571 -0.2979  0.5304
 2508TIP3    H128939   4.390   0.163  16.577 -1.4303  0.4618  1.1719
 2508TIP3    H228940   4.254   0.097  16.580 -0.1394 -2.3874  0.2821
 2509TIP3   OH228941   6.412   5.625  16.627  0.0578  0.1229  0.1439
 2509TIP3    H128942   6.378   5.536  16.628 -0.6486  0.3758  1.3860
 2509TIP3    H228943   6.463   5.633  16.707  1.6445  0.3071 -0.8379
 2510TIP3   OH228944   0.280   4.686  15.583 -0.1717  0.4524  0.0749
 2510TIP3    H128945   0.280   4.711  15.676  1.0013  2.4467 -0.3868
 2510TIP3    H228946   0.344   4.615  15.577 -0.4402  0.1380  0.8299
 2511TIP3   OH228947   4.730   0.963   3.924 -0.2721  0.3354 -0.6358
 2511TIP3    H128948   4.649   0.919   3.899 -0.9946 -0.4129  2.5035
 2511TIP3    H228949   4.772   0.903   3.985  2.0718  1.2532 -1.2382
 2512TIP3   OH228950   2.086   0.114  13.083 -0.6619 -0.1760 -0.3663
 2512TIP3    H128951   2.108   0.202  13.114 -1.2341  1.0377 -3.1659
 2512TIP3    H228952   2.170   0.068  13.080 -0.2142  0.5749  0.1670
 2513TIP3   OH228953   3.554   5.478   4.663 -0.5519 -0.0549 -0.0740
 2513TIP3    H128954   3.544   5.391   4.701  0.3612  0.0595  0.4513
 2513TIP3    H228955   3.465   5.513   4.660 -0.6133  0.4410  3.2065
 2514TIP3   OH228956   1.566   6.657  16.776 -0.1530  1.0629  0.4810
 2514TIP3    H128957   1.550   6.570  16.814  1.2548  0.5126 -0.1341
 2514TIP3    H228958   1.618   6.640  16.697 -2.0617  2.2645 -1.1370
 2515TIP3   OH228959   6.344   4.856  14.658 -0.7580  0.1158 -0.0332
 2515TIP3    H128960   6.298   4.940  14.660 -1.2041 -0.0936 -0.8964
 2515TIP3    H228961   6.435   4.879  14.678 -0.9200  0.7721 -0.0095
 2516TIP3   OH228962   1.221   0.800  13.658  0.2518 -0.0519  1.0043
 2516TIP3    H128963   1.208   0.708  13.681  2.3058 -0.8981 -0.8357
 2516TIP3    H228964   1.143   0.845  13.692 -1.4337 -2.6669  0.8438
 2517TIP3   OH228965   2.280   2.855  12.272 -0.0160 -0.8414 -0.6072
 2517TIP3    H128966   2.353   2.794  12.266 -0.6734 -1.7545  0.3075
 2517TIP3    H228967   2.307   2.916  12.341  0.0887 -0.8801 -0.6128
 2518TIP3   OH228968   4.755   5.755  15.999 -0.0791  0.3754  0.3653
 2518TIP3    H128969   4.756   5.795  15.912 -0.5305  0.1126  0.2330
 2518TIP3    H228970   4.847   5.750  16.025 -0.0206  1.7641  0.5089
 2519TIP3   OH228971   5.531   5.838  14.773  0.0040  0.0193  0.3019
 2519TIP3    H128972   5.479   5.912  14.743 -0.7977  0.4937  2.6017
 2519TIP3    H228973   5.473   5.789  14.832  1.7177 -0.1102  2.0187
 2520TIP3   OH228974   0.840   3.079   0.543  0.1971  0.2847 -0.2303
 2520TIP3    H128975   0.843   3.141   0.471  0.6007  0.9538  0.3494
 2520TIP3    H228976   0.918   3.098   0.595  0.0069 -0.3033  0.2903
 2521TIP3   OH228977   5.483   3.461  13.822  0.3924 -0.2478  0.0510
 2521TIP3    H128978   5.416   3.430  13.883  0.2513  0.2071  0.1285
 2521TIP3    H228979   5.487   3.555  13.837 -0.1508 -0.0164 -1.1449
 2522TIP3   OH228980   3.396   3.794   0.540 -0.5257 -0.7681 -0.4541
 2522TIP3    H128981   3.365   3.720   0.487  0.5473 -1.1386 -0.5774
 2522TIP3    H228982   3.490   3.780   0.549 -0.1935  0.9007 -0.9858
 2523TIP3   OH228983   1.052   2.197  13.287  0.6216  0.1268  0.0591
 2523TIP3    H128984   0.981   2.222  13.228 -1.1258 -0.8421  1.6421
 2523TIP3    H228985   1.110   2.274  13.289 -2.4209  2.6118  1.6374
 2524TIP3   OH228986   3.855   2.723   2.990  0.0198 -0.7225  0.4937
 2524TIP3    H128987   3.941   2.685   3.005  0.0668 -0.0405  2.1322
 2524TIP3    H228988   3.859   2.758   2.900  1.6153 -0.2683  0.7156
 2525TIP3   OH228989   4.477   3.207   1.438 -0.1504  0.4282  0.2560
 2525TIP3    H128990   4.459   3.124   1.482 -0.9916  0.2203 -0.4544
 2525TIP3    H228991   4.537   3.252   1.497 -1.0806  0.0740  1.5267
 2526TIP3   OH228992   1.806   1.806  12.169  0.5388 -0.0469 -0.2830
 2526TIP3    H128993   1.720   1.838  12.196 -0.3821 -1.2852 -1.5507
 2526TIP3    H228994   1.868   1.864  12.211 -0.9282  0.9518  0.5903
 2527TIP3   OH228995   4.405   4.422  15.133 -0.6140 -0.1685 -0.4429
 2527TIP3    H128996   4.409   4.426  15.229 -1.8779  0.5366 -0.3888
 2527TIP3    H228997   4.360   4.340  15.115 -0.0323 -0.4890 -0.4546
 2528TIP3   OH228998   4.343   2.120  16.909  0.0158 -0.7862  0.0789
 2528TIP3    H128999   4.358   2.033  16.872  0.1257 -1.2814  1.2456
 2528TIP3    H229000   4.372   2.113  16.999 -2.2606 -0.2479  0.9233
 2529TIP3   OH229001   1.085   2.106   0.851 -0.0624 -0.2154 -0.2193
 2529TIP3    H129002   1.176   2.110   0.823  0.4202  1.2701  1.3643
 2529TIP3    H229003   1.090   2.100   0.947 -1.5821  1.8761  0.0645
 2530TIP3   OH229004   0.756   2.098   0.858  0.5153 -0.0206 -0.1291
 2530TIP3    H129005   0.757   2.097   0.954 -2.8969 -3.7869  0.1386
 2530TIP3    H229006   0.822   2.033   0.833  0.1041 -0.3905 -0.2469
 2531TIP3   OH229007   0.556   6.460   2.108  0.2109 -0.3632  0.1163
 2531TIP3    H129008   0.560   6.372   2.146  0.7771 -0.3284  0.1422
 2531TIP3    H229009   0.596   6.450   2.022  1.8449  0.2052  0.7698
 2532TIP3   OH229010   1.607   0.758   0.149 -0.5309  0.4924 -0.0102
 2532TIP3    H129011   1.576   0.843   0.181  0.3489  1.7619 -2.3176
 2532TIP3    H229012   1.537   0.727   0.093 -0.0648  0.6201 -0.6710
 2533TIP3   OH229013   5.248   6.749   2.861 -0.1350  0.5552 -0.2215
 2533TIP3    H129014   5.298   6.667   2.867  0.8107  1.2234  3.6567
 2533TIP3    H229015   5.297   6.802   2.798  0.6614 -0.9340 -0.9056
 2534TIP3   OH229016   4.393   5.216  14.669  0.3499 -0.4210 -0.3462
 2534TIP3    H129017   4.409   5.168  14.750 -1.5502 -1.0678 -0.3067
 2534TIP3    H229018   4.322   5.168  14.626 -0.4819  1.3933 -1.1237
 2535TIP3   OH229019   5.190   3.290   1.379 -0.1557  0.2582 -0.1717
 2535TIP3    H129020   5.217   3.280   1.288  0.1092 -1.7208  0.0916
 2535TIP3    H229021   5.253   3.239   1.429 -0.9391  0.4294  1.0266
 2536TIP3   OH229022   6.171   2.946  12.138  0.5028  0.2266 -0.5569
 2536TIP3    H129023   6.166   2.898  12.055 -3.2493  1.4780 -1.2279
 2536TIP3    H229024   6.194   3.035  12.113 -2.7292  1.1299 -0.6418
 2537TIP3   OH229025   2.689   5.141   2.176  0.0911  0.0865  0.5414
 2537TIP3    H129026   2.602   5.101   2.172  0.3188 -0.4234  0.5865
 2537TIP3    H229027   2.692   5.199   2.100 -0.4613  0.4725  0.8054
 2538TIP3   OH229028   3.682   5.777  13.477 -0.2620 -0.5611 -0.8323
 2538TIP3    H129029   3.761   5.725  13.493 -0.5622 -0.7555  0.1143
 2538TIP3    H229030   3.610   5.717  13.497 -0.6417 -0.2101 -1.1327
 2539TIP3   OH229031   6.710   3.673   4.897  0.1092 -0.2352 -0.1027
 2539TIP3    H129032   6.737   3.759   4.930 -0.1123 -0.5592  0.9437
 2539TIP3    H229033   6.651   3.694   4.824  1.0893  0.4822 -0.7271
 2540TIP3   OH229034   6.221   1.592  13.967 -0.1074  0.5626 -0.6186
 2540TIP3    H129035   6.159   1.623  14.033 -1.3982 -0.8101 -1.1280
 2540TIP3    H229036   6.168   1.577  13.889  0.5756 -1.9551 -0.6823
 2541TIP3   OH229037   3.721   5.950  10.867 -0.2153 -0.4821  0.2356
 2541TIP3    H129038   3.754   5.971  10.780 -1.0816  3.1114  0.6351
 2541TIP3    H229039   3.661   5.877  10.852 -0.7567  0.3719 -2.3113
 2542TIP3   OH229040   5.092   0.373  13.422  0.5545  0.9433 -0.1655
 2542TIP3    H129041   5.030   0.301  13.408 -2.3253  2.6189  2.5270
 2542TIP3    H229042   5.143   0.377  13.342 -2.3141 -1.1527 -2.3037
 2543TIP3   OH229043   1.897   5.656  17.169 -0.5255 -0.2057 -0.4725
 2543TIP3    H129044   1.847   5.578  17.192  0.6905 -1.0209 -0.4921
 2543TIP3    H229045   1.887   5.663  17.074  0.9716 -1.5366 -0.7709
 2544TIP3   OH229046   5.144   3.430  12.442 -0.1541  0.1730  0.2175
 2544TIP3    H129047   5.197   3.497  12.486 -0.0299  0.8236 -0.8947
 2544TIP3    H229048   5.065   3.476  12.415 -0.2593 -0.2337 -0.1785
 2545TIP3   OH229049   4.589   3.601  14.343 -0.2298 -0.2719 -0.3837
 2545TIP3    H129050   4.669   3.560  14.374 -0.2472  0.9459  1.4102
 2545TIP3    H229051   4.601   3.694  14.360 -1.9298 -0.0421 -0.2726
 2546TIP3   OH229052   6.526   3.612  15.504 -0.2120  0.4961  0.1532
 2546TIP3    H129053   6.582   3.575  15.436 -0.1652  0.4246  0.2311
 2546TIP3    H229054   6.457   3.546  15.515 -0.6066  0.8187 -0.3138
 2547TIP3   OH229055   6.711   2.066  14.668 -0.5155 -0.4934  0.4631
 2547TIP3    H129056   6.665   2.095  14.589 -1.2546  0.7889  1.3156
 2547TIP3    H229057   6.804   2.078  14.648 -0.7311  0.7296  0.0992
 2548TIP3   OH229058   3.020   4.120  16.733 -0.0507 -0.2467 -0.7938
 2548TIP3    H129059   2.994   4.039  16.689 -1.2796 -0.2774 -0.0781
 2548TIP3    H229060   2.938   4.168  16.744  0.5164  0.6236 -0.2911
 2549TIP3   OH229061   4.307   3.978   5.242  0.8440 -0.3772 -0.3175
 2549TIP3    H129062   4.387   4.029   5.254 -1.9796  4.2778  1.1303
 2549TIP3    H229063   4.281   3.953   5.331 -0.7560  0.7919 -0.4217
 2550TIP3   OH229064   2.855   2.507   1.702 -0.0653  0.3319 -0.4904
 2550TIP3    H129065   2.791   2.562   1.656 -1.4415  0.3171  1.2972
 2550TIP3    H229066   2.856   2.542   1.792  0.8780 -1.0161  0.0452
 2551TIP3   OH229067   2.113   0.254  10.918 -0.2805  0.3995 -0.5873
 2551TIP3    H129068   2.076   0.203  10.846  0.2409 -1.1329  0.1901
 2551TIP3    H229069   2.161   0.325  10.875 -0.3683 -0.2158 -1.7434
 2552TIP3   OH229070   5.240   4.033   0.955 -0.1442 -0.4182  0.7697
 2552TIP3    H129071   5.261   4.116   0.996  1.3986 -0.9590  1.1407
 2552TIP3    H229072   5.261   3.967   1.021 -2.4477 -1.0849  0.9225
 2553TIP3   OH229073   0.097   4.142   1.094  0.4686  0.3357 -0.4481
 2553TIP3    H129074   0.157   4.201   1.048  0.9992  2.0252  2.2031
 2553TIP3    H229075   0.154   4.074   1.130  0.1343 -0.6370 -1.6911
 2554TIP3   OH229076   5.889   6.637   4.291  0.0239  0.0634  0.0832
 2554TIP3    H129077   5.953   6.595   4.348 -0.4936 -1.3849 -0.3489
 2554TIP3    H229078   5.804   6.612   4.328 -0.3409  1.9511  0.6498
 2555TIP3   OH229079   3.191   3.548   0.822  0.1235 -0.1457 -0.2781
 2555TIP3    H129080   3.173   3.597   0.742  0.7566 -0.9558 -0.9448
 2555TIP3    H229081   3.183   3.456   0.796  0.6122 -0.4250  0.5190
 2556TIP3   OH229082   4.362   5.240  15.588 -0.3367 -0.4443  0.1338
 2556TIP3    H129083   4.397   5.238  15.499 -0.1470  0.0953  0.1984
 2556TIP3    H229084   4.417   5.302  15.635 -0.9906 -0.0506  0.3988
 2557TIP3   OH229085   5.646   5.448   2.896 -0.6211  0.4774 -0.0614
 2557TIP3    H129086   5.606   5.431   2.810  0.1371 -0.7885 -0.1860
 2557TIP3    H229087   5.717   5.384   2.903 -0.7631  0.4465  1.5791
 2558TIP3   OH229088   2.507   6.369  14.064 -0.5243 -0.1491  0.0525
 2558TIP3    H129089   2.442   6.303  14.039 -1.3591  0.0291  1.6513
 2558TIP3    H229090   2.583   6.318  14.091 -0.9856 -0.4478  0.8011
 2559TIP3   OH229091   2.680   3.398  13.914  0.7178 -0.0107 -0.3832
 2559TIP3    H129092   2.754   3.439  13.958  1.2184 -0.6575 -0.6034
 2559TIP3    H229093   2.625   3.365  13.985  0.7636  0.2665 -0.2192
 2560TIP3   OH229094   3.189   1.353   3.020 -0.6268  0.0570  0.3628
 2560TIP3    H129095   3.116   1.383   3.073 -0.5770 -0.3737  0.6828
 2560TIP3    H229096   3.253   1.424   3.023 -0.4675 -0.1134  1.1795
 2561TIP3   OH229097   4.185   6.429  14.009  0.3931 -0.1139  0.0791
 2561TIP3    H129098   4.175   6.523  14.024 -2.1714 -0.4569  1.0296
 2561TIP3    H229099   4.110   6.405  13.954  1.6261 -1.4576 -1.1238
 2562TIP3   OH229100   1.332   6.541  12.461  0.2079  0.4985  0.3967
 2562TIP3    H129101   1.387   6.576  12.390 -0.7271  0.1007 -0.5591
 2562TIP3    H229102   1.295   6.618  12.503 -0.1373  0.7288 -0.3054
 2563TIP3   OH229103   4.723   1.866   5.474  0.1434  0.8516 -0.3027
 2563TIP3    H129104   4.786   1.937   5.484 -1.0905  1.9289  0.2279
 2563TIP3    H229105   4.643   1.910   5.445 -0.9472 -0.1682  1.0237
 2564TIP3   OH229106   5.223   5.069   0.610  0.1955  0.2126  0.0652
 2564TIP3    H129107   5.264   5.137   0.662  0.0270 -0.1761  0.7223
 2564TIP3    H229108   5.258   4.987   0.645 -0.6761 -0.1013  0.2506
 2565TIP3   OH229109   0.233   2.750   6.518  0.7855  0.3378  0.2237
 2565TIP3    H129110   0.287   2.784   6.447 -0.9478  0.5348 -1.0861
 2565TIP3    H229111   0.220   2.826   6.576  1.1498  0.5278  0.0607
 2566TIP3   OH229112   2.125   3.935   2.901  0.1666  0.9879 -0.0118
 2566TIP3    H129113   2.166   3.963   2.819  0.1127  2.9913  0.6142
 2566TIP3    H229114   2.155   3.845   2.913  0.4281  0.7643 -2.0555
 2567TIP3   OH229115   3.362   3.352   4.092  0.1229 -0.4627 -0.3405
 2567TIP3    H129116   3.354   3.257   4.102 -0.6061 -0.4032 -0.3209
 2567TIP3    H229117   3.304   3.373   4.018 -1.7112  0.2766  1.2231
 2568TIP3   OH229118   4.357   5.635   2.449  0.0612  0.1675 -0.0227
 2568TIP3    H129119   4.431   5.695   2.457 -0.1112  0.2641  1.0404
 2568TIP3    H229120   4.397   5.549   2.437  0.4069  0.0443  1.7386
 2569TIP3   OH229121   3.654   2.603   0.416  0.5241  0.2705 -0.1260
 2569TIP3    H129122   3.601   2.525   0.403  0.6678  0.3203 -1.0616
 2569TIP3    H229123   3.711   2.581   0.490  0.1008 -0.2556  0.0485
 2570TIP3   OH229124   5.125   1.898   1.137 -0.2776  0.4661 -0.8461
 2570TIP3    H129125   5.092   1.879   1.049 -2.2317  0.4875 -0.1639
 2570TIP3    H229126   5.047   1.897   1.192  0.7353  1.7521  0.6852
 2571TIP3   OH229127   2.730   6.580   4.310 -0.5047 -0.8139  0.1856
 2571TIP3    H129128   2.805   6.560   4.366 -0.2217 -0.4072 -0.0480
 2571TIP3    H229129   2.767   6.584   4.222 -0.7855 -0.5028  0.0831
 2572TIP3   OH229130   1.416   1.209   2.566 -0.1999  0.1941 -0.4673
 2572TIP3    H129131   1.405   1.185   2.474  1.9633  0.2813 -0.8020
 2572TIP3    H229132   1.341   1.171   2.610 -0.5356 -1.0926 -2.0599
 2573TIP3   OH229133   1.678   4.842  16.306  0.1412  0.7758 -0.8396
 2573TIP3    H129134   1.718   4.761  16.277 -0.2240  0.5030 -0.5981
 2573TIP3    H229135   1.741   4.880  16.368  0.0231  0.3365 -0.4425
 2574TIP3   OH229136   1.902   2.431  15.613 -0.2276  0.8626  0.3180
 2574TIP3    H129137   1.907   2.335  15.611  1.6750  0.9237  0.0909
 2574TIP3    H229138   1.812   2.450  15.641 -0.6175 -0.9774  0.4510
 2575TIP3   OH229139   3.236   3.335   1.142  0.5817 -0.4230 -0.6300
 2575TIP3    H129140   3.270   3.424   1.127  0.0234  0.3872  2.3466
 2575TIP3    H229141   3.143   3.348   1.162  0.8689 -1.4271  1.5888
 2576TIP3   OH229142   5.792   4.222  12.571 -0.1703 -0.0410 -0.0050
 2576TIP3    H129143   5.720   4.186  12.622 -0.3975 -0.8384 -0.8477
 2576TIP3    H229144   5.825   4.147  12.521 -0.0630  0.7347 -1.1369
 2577TIP3   OH229145   4.295   4.599   6.143  0.1137  0.5652  0.3573
 2577TIP3    H129146   4.297   4.586   6.048  1.6869  2.4029  0.0924
 2577TIP3    H229147   4.246   4.680   6.155  0.7207  0.8280  1.0628
 2578TIP3   OH229148   2.603   3.464   1.677 -0.2429 -0.1163 -0.3907
 2578TIP3    H129149   2.626   3.521   1.603 -0.1786 -0.0117 -0.2914
 2578TIP3    H229150   2.610   3.521   1.754 -0.5174 -0.1681 -0.3246
 2579TIP3   OH229151   5.516   3.882   0.288 -0.1000  0.2384  0.1973
 2579TIP3    H129152   5.589   3.830   0.320 -0.8997 -0.0812  1.6304
 2579TIP3    H229153   5.531   3.892   0.194  1.4121 -0.3759  0.3538
 2580TIP3   OH229154   3.178   4.049  14.834 -0.4484  1.2117  0.0667
 2580TIP3    H129155   3.211   4.021  14.919 -2.1601  2.6554  1.3020
 2580TIP3    H229156   3.107   3.987  14.815  0.3818  0.4634 -0.6939
 2581TIP3   OH229157   1.604   0.530   5.803  0.2252  0.5007  0.0094
 2581TIP3    H129158   1.564   0.600   5.752  0.0263 -0.3721 -1.0701
 2581TIP3    H229159   1.595   0.558   5.894 -0.6490  1.4502 -0.3522
 2582TIP3   OH229160   1.398   3.252  10.873 -0.5914 -0.1186  0.7381
 2582TIP3    H129161   1.408   3.274  10.781 -1.5440 -0.0341  0.6409
 2582TIP3    H229162   1.316   3.203  10.877 -0.7515  0.1961  1.5795
 2583TIP3   OH229163   3.459   5.244   4.328 -0.7238  0.5373  0.0112
 2583TIP3    H129164   3.438   5.193   4.249 -1.0907  0.9901 -0.1886
 2583TIP3    H229165   3.384   5.231   4.385 -2.5361  3.6159 -1.4227
 2584TIP3   OH229166   2.675   5.122  13.561  0.3797  0.1877 -0.3016
 2584TIP3    H129167   2.675   5.106  13.655  1.9192  0.9293 -0.1250
 2584TIP3    H229168   2.656   5.037  13.521 -0.2661 -0.1355  0.6735
 2585TIP3   OH229169   5.531   0.997  12.772 -0.1999 -0.2112 -0.4345
 2585TIP3    H129170   5.554   1.082  12.809 -1.1472 -0.3044  0.4414
 2585TIP3    H229171   5.527   1.011  12.678 -0.3909  0.7319 -0.2901
 2586TIP3   OH229172   2.882   6.203   3.474  0.0124  0.6566 -0.0589
 2586TIP3    H129173   2.879   6.295   3.449 -2.3147  0.3827 -1.0271
 2586TIP3    H229174   2.960   6.168   3.432  1.0799  2.2236  0.5618
 2587TIP3   OH229175   5.931   0.951  11.083  0.3773 -0.2572 -0.2693
 2587TIP3    H129176   6.023   0.942  11.060  0.5007  0.6607 -0.1712
 2587TIP3    H229177   5.884   0.907  11.012  0.8492  0.4461 -1.0353
 2588TIP3   OH229178   5.463   5.804  14.394  0.1524 -0.3529 -0.5017
 2588TIP3    H129179   5.505   5.805  14.308  1.1086  0.1226 -0.0399
 2588TIP3    H229180   5.513   5.739  14.444  1.4003  1.3406  0.5495
 2589TIP3   OH229181   0.431   4.117   0.594 -0.6249 -0.7038  0.1908
 2589TIP3    H129182   0.422   4.105   0.689 -1.7142 -1.4003  0.0191
 2589TIP3    H229183   0.436   4.211   0.583 -0.9409 -0.5888  0.9153
 2590TIP3   OH229184   4.464   3.393  16.533 -0.3910  0.3077 -0.0841
 2590TIP3    H129185   4.388   3.336  16.539 -0.4647  0.4638  0.5122
 2590TIP3    H229186   4.539   3.335  16.547 -0.3006 -0.0796 -1.9185
 2591TIP3   OH229187   2.586   3.423  17.014 -0.2474  0.2705  0.1706
 2591TIP3    H129188   2.544   3.503  16.984 -0.3429  0.4434  0.7523
 2591TIP3    H229189   2.521   3.381  17.071 -0.0422 -0.0083  0.2013
 2592TIP3   OH229190   6.525   4.671   4.175 -0.1688  0.3135 -0.5013
 2592TIP3    H129191   6.609   4.711   4.154 -0.7123  0.9831 -1.5210
 2592TIP3    H229192   6.501   4.708   4.260  1.6130 -1.6778  0.9746
 2593TIP3   OH229193   1.875   2.350  13.404  0.0202  0.3545 -0.3415
 2593TIP3    H129194   1.802   2.412  13.406  0.8375  1.3155  0.2438
 2593TIP3    H229195   1.905   2.346  13.495  0.1486 -0.7210 -0.4130
 2594TIP3   OH229196   5.268   3.769  13.040  0.4601 -0.0540 -0.3351
 2594TIP3    H129197   5.346   3.812  13.004 -1.4991  1.6007 -2.9184
 2594TIP3    H229198   5.288   3.675  13.035  2.8981  0.3302  0.7243
 2595TIP3   OH229199   6.242   1.823  12.099  0.5132 -0.5725  0.4183
 2595TIP3    H129200   6.305   1.752  12.090  0.9247 -0.5765  2.6042
 2595TIP3    H229201   6.241   1.867  12.014  2.6005 -1.2744 -0.0116
 2596TIP3   OH229202   1.327   0.047   6.064 -0.1837 -0.0693 -0.3666
 2596TIP3    H129203   1.363   0.135   6.062 -1.4900  0.6591  2.5308
 2596TIP3    H229204   1.403  -0.011   6.062  0.9383  1.2605  0.9928
 2597TIP3   OH229205   5.564   3.138   1.866  0.0945 -0.0628 -0.7000
 2597TIP3    H129206   5.542   3.221   1.824  0.1542 -0.3293 -1.2691
 2597TIP3    H229207   5.642   3.156   1.918 -0.2927  0.4024 -0.2653
 2598TIP3   OH229208   0.664   3.988  12.979 -0.1019  0.4517  0.7541
 2598TIP3    H129209   0.607   4.010  13.053 -2.6189 -2.3678 -0.1408
 2598TIP3    H229210   0.657   4.064  12.921 -2.4023  0.5350  1.0471
 2599TIP3   OH229211   5.849   3.740   2.415 -0.0359 -0.4396  0.0452
 2599TIP3    H129212   5.917   3.805   2.397  1.4066 -1.3901  1.7409
 2599TIP3    H229213   5.830   3.750   2.508  0.4618 -2.6296  0.4284
 2600TIP3   OH229214   1.857   4.816   0.963  0.1638 -0.4192 -0.0793
 2600TIP3    H129215   1.817   4.733   0.938  0.3338 -0.2841 -0.8313
 2600TIP3    H229216   1.787   4.865   1.005  0.2474 -1.2208  1.0515
 2601TIP3   OH229217   0.236   0.720  11.731  0.0021 -0.1410  0.4789
 2601TIP3    H129218   0.201   0.808  11.740 -0.2980 -0.3897  1.9370
 2601TIP3    H229219   0.288   0.705  11.810 -0.6706 -1.5742  0.6928
 2602TIP3   OH229220   4.751   5.471  11.650 -0.5184 -0.0122  0.1275
 2602TIP3    H129221   4.814   5.403  11.626 -0.9014  0.1718 -1.5325
 2602TIP3    H229222   4.734   5.456  11.743 -0.6248 -2.2212 -0.1969
 2603TIP3   OH229223   4.768   1.310   1.212 -0.1825 -0.6840 -0.0314
 2603TIP3    H129224   4.755   1.405   1.208 -0.0641 -0.4746  2.6394
 2603TIP3    H229225   4.715   1.275   1.141 -1.7271  1.2734  0.0830
 2604TIP3   OH229226   0.924   2.139   1.248 -0.6753  0.0871 -0.0599
 2604TIP3    H129227   0.986   2.119   1.317  0.0403  0.2298 -0.6468
 2604TIP3    H229228   0.972   2.124   1.167 -1.4725 -0.0066 -0.5318
 2605TIP3   OH229229   6.386   5.317  12.852  0.3233  0.6395  0.5127
 2605TIP3    H129230   6.323   5.251  12.823 -2.6567  2.5326  2.1177
 2605TIP3    H229231   6.441   5.271  12.916 -0.0833 -0.8210 -0.1440
 2606TIP3   OH229232   0.282   4.796  12.331 -0.2037 -0.3932  0.1868
 2606TIP3    H129233   0.320   4.709  12.345  0.9552  0.1083  0.2885
 2606TIP3    H229234   0.306   4.818  12.241 -2.5658 -1.1482 -0.7126
 2607TIP3   OH229235   3.339   5.574  12.432  0.8369 -0.4652 -0.0128
 2607TIP3    H129236   3.365   5.574  12.340 -2.1168  1.1190 -0.9779
 2607TIP3    H229237   3.244   5.567  12.430  0.7265 -1.1719  3.0044
 2608TIP3   OH229238   2.723   4.199  16.683  0.4955  0.3719 -0.0214
 2608TIP3    H129239   2.635   4.206  16.720  0.8746  1.4204  0.7329
 2608TIP3    H229240   2.740   4.105  16.680 -0.9766  0.0973 -1.0135
 2609TIP3   OH229241   0.130   5.808  16.935 -0.4313 -0.0170 -0.2222
 2609TIP3    H129242   0.104   5.729  16.983 -0.3855 -0.0632 -0.2744
 2609TIP3    H229243   0.223   5.796  16.917 -0.8171 -0.8019 -1.8514
 2610TIP3   OH229244   4.011   0.500   3.717  0.0151  0.5209 -0.0541
 2610TIP3    H129245   3.950   0.559   3.673  1.8032  1.3678 -1.5617
 2610TIP3    H229246   4.060   0.459   3.646  0.5241 -0.8957  1.0709
 2611TIP3   OH229247   0.051   0.941  15.982  0.1735 -0.2694 -0.2642
 2611TIP3    H129248   0.099   0.894  16.051  0.0283  0.4653  0.3424
 2611TIP3    H229249   0.044   1.031  16.014  1.8944  0.5931 -2.1636
 2612TIP3   OH229250   3.871   2.982  14.655  0.1565  0.2213 -0.2601
 2612TIP3    H129251   3.929   2.915  14.692  0.2558  0.2733 -0.3231
 2612TIP3    H229252   3.923   3.024  14.587  0.5055  1.1470  0.5546
 2613TIP3   OH229253   6.627   3.973  13.286 -0.2333 -0.3385  0.6777
 2613TIP3    H129254   6.632   4.069  13.289 -2.0923 -0.2203  0.9422
 2613TIP3    H229255   6.612   3.947  13.376 -2.5460 -0.6424  0.2642
 2614TIP3   OH229256   2.172   5.351  13.463 -0.5326  0.0504 -0.6214
 2614TIP3    H129257   2.239   5.401  13.415  0.0711 -0.5353 -0.4107
 2614TIP3    H229258   2.109   5.417  13.491  0.4717  0.7695  0.0207
 2615TIP3   OH229259   3.691   1.378  15.421  0.1422  0.2167 -0.4430
 2615TIP3    H129260   3.624   1.369  15.489 -2.5108  2.1306 -2.5475
 2615TIP3    H229261   3.669   1.311  15.357  1.9989 -0.9243  0.0611
 2616TIP3   OH229262   5.683   2.264   2.953 -0.8401 -0.0522  0.6381
 2616TIP3    H129263   5.675   2.169   2.943  1.0724 -0.2206  0.2937
 2616TIP3    H229264   5.758   2.276   3.011 -0.4085  1.2568 -0.1517
 2617TIP3   OH229265   5.467   4.428  12.328 -0.0613  0.3678  0.0018
 2617TIP3    H129266   5.399   4.408  12.263 -0.0325  1.3129 -0.3219
 2617TIP3    H229267   5.421   4.478  12.395  0.1836  0.4603  0.0992
 2618TIP3   OH229268   3.170   0.787   6.493 -0.4917  0.5755 -0.0750
 2618TIP3    H129269   3.259   0.819   6.504  0.7126 -2.1450 -1.1472
 2618TIP3    H229270   3.160   0.773   6.399 -0.5844 -2.7405  0.2933
 2619TIP3   OH229271   0.479   2.532  13.082  0.3428 -0.9686  0.4182
 2619TIP3    H129272   0.428   2.607  13.051  0.4429 -0.9810  0.2222
 2619TIP3    H229273   0.542   2.516  13.012 -0.2243 -1.7737  0.0793
 2620TIP3   OH229274   2.264   6.243   2.608  0.2949  0.4947  1.0499
 2620TIP3    H129275   2.317   6.174   2.647  0.1304  0.1839  0.7273
 2620TIP3    H229276   2.178   6.203   2.594  0.5599  0.3667 -0.3183
 2621TIP3   OH229277   0.164   4.363   5.123  0.1102  0.2827  0.2559
 2621TIP3    H129278   0.253   4.396   5.127  0.4627 -0.4234 -1.1203
 2621TIP3    H229279   0.118   4.409   5.193  0.3181  4.3863 -1.9999
 2622TIP3   OH229280   0.769   4.429  13.957 -0.0439  0.5542 -0.4247
 2622TIP3    H129281   0.684   4.416  14.000 -0.0041 -1.0195 -0.7586
 2622TIP3    H229282   0.747   4.471  13.874 -0.5135  0.0797 -0.5473
 2623TIP3   OH229283   0.054   1.125  14.701 -0.0334  0.6975 -0.4113
 2623TIP3    H129284   0.002   1.046  14.712 -0.2293  0.8795 -0.0310
 2623TIP3    H229285   0.011   1.190  14.756  0.3025  0.9861 -0.4879
 2624TIP3   OH229286   1.500   1.315  10.988 -0.3031 -0.2807  0.0521
 2624TIP3    H129287   1.497   1.252  10.916 -2.2708  0.5920 -0.6948
 2624TIP3    H229288   1.462   1.269  11.063 -0.8330 -0.3022 -0.2264
 2625TIP3   OH229289   2.669   3.579   4.173 -0.7861  0.2497 -0.4196
 2625TIP3    H129290   2.700   3.505   4.224  1.0183  1.4559  0.3616
 2625TIP3    H229291   2.635   3.641   4.237  2.5087  2.2560 -0.3507
 2626TIP3   OH229292   0.903   3.568  11.374  0.1164  0.7017  0.3488
 2626TIP3    H129293   0.843   3.591  11.304  0.7132 -0.5030 -0.5946
 2626TIP3    H229294   0.990   3.589  11.339  0.5221 -1.0833  0.2008
 2627TIP3   OH229295   1.902   0.607  14.747 -0.0807  0.1061 -0.4101
 2627TIP3    H129296   1.988   0.624  14.787 -0.2155 -1.7682  0.8067
 2627TIP3    H229297   1.913   0.524  14.701 -1.5986 -1.0562  1.1564
 2628TIP3   OH229298   3.446   6.196  16.306 -0.6408 -0.3619 -0.6067
 2628TIP3    H129299   3.361   6.197  16.263 -0.9476 -2.1431 -0.1289
 2628TIP3    H229300   3.436   6.133  16.377  0.5681  0.6967  0.5754
 2629TIP3   OH229301   1.817   2.999  16.157  0.1147  0.2750  0.5130
 2629TIP3    H129302   1.891   2.967  16.106 -1.1006  0.1633 -1.2566
 2629TIP3    H229303   1.802   3.088  16.126 -2.3711 -0.7077 -1.4884
 2630TIP3   OH229304   4.331   0.172  16.253 -0.4452 -0.8430 -0.7153
 2630TIP3    H129305   4.331   0.130  16.339  2.9718  1.3197  0.5526
 2630TIP3    H229306   4.290   0.258  16.268 -2.3200 -1.4590 -1.9698
 2631TIP3   OH229307   5.706   5.836   3.048 -0.3877  0.4360 -0.4842
 2631TIP3    H129308   5.612   5.833   3.028 -1.3477  0.0093  3.3416
 2631TIP3    H229309   5.718   5.921   3.091  0.7946  0.0906 -0.1145
 2632TIP3   OH229310   0.045   4.688  15.908 -0.1253  0.4986 -0.0586
 2632TIP3    H129311  -0.021   4.758  15.906 -1.4875 -0.6403  1.9042
 2632TIP3    H229312   0.127   4.732  15.888 -1.1361  2.4084 -0.2433
 2633TIP3   OH229313   2.365   0.257  11.542 -0.1866 -0.3354 -0.2879
 2633TIP3    H129314   2.403   0.178  11.580  0.1892 -0.9064 -1.7815
 2633TIP3    H229315   2.373   0.323  11.611  0.7365 -1.2411  0.4983
 2634TIP3   OH229316   6.477   1.171   5.513 -0.6556  0.2571 -0.1299
 2634TIP3    H129317   6.455   1.122   5.434 -0.2464  0.6043 -0.4597
 2634TIP3    H229318   6.573   1.174   5.514 -0.6794  1.3952 -0.3189
 2635TIP3   OH229319   1.803   6.179  12.371 -0.0265 -0.0986  0.2628
 2635TIP3    H129320   1.714   6.210  12.356  0.0564 -0.4157 -1.0352
 2635TIP3    H229321   1.859   6.254  12.350  0.0867 -0.5110 -1.0012
 2636TIP3   OH229322   0.855   4.106   3.352 -0.2565 -0.8942  0.7685
 2636TIP3    H129323   0.856   4.042   3.423 -0.7658 -1.3029  0.4137
 2636TIP3    H229324   0.923   4.169   3.376 -0.3977 -1.0429  1.6046
 2637TIP3   OH229325   4.095   3.866  13.287  0.8097 -0.8958  0.3139
 2637TIP3    H129326   4.101   3.771  13.298  0.4062 -0.8984  0.5216
 2637TIP3    H229327   4.061   3.879  13.199  0.8314 -0.9472  0.2981
 2638TIP3   OH229328   1.891   5.075  13.594  0.0518 -0.4414 -0.1056
 2638TIP3    H129329   1.976   5.067  13.550 -0.2948 -0.4683 -0.7896
 2638TIP3    H229330   1.843   5.139  13.541 -0.6576 -1.0541 -0.2215
 2639TIP3   OH229331   4.254   6.639  12.239  0.2387 -0.0950 -0.2408
 2639TIP3    H129332   4.239   6.706  12.307 -0.8528 -0.1107 -0.4542
 2639TIP3    H229333   4.286   6.563  12.288  0.3383  0.1936  0.1504
 2640TIP3   OH229334   0.030   0.232   0.442 -0.4745 -0.0305 -0.0215
 2640TIP3    H129335   0.070   0.169   0.382  0.3159  0.4842 -0.0599
 2640TIP3    H229336   0.001   0.179   0.516  1.3462 -0.3128  0.5497
 2641TIP3   OH229337   1.605   2.257   4.353 -0.1720  0.0455  0.8269
 2641TIP3    H129338   1.692   2.283   4.384 -0.8496  1.7462  1.4593
 2641TIP3    H229339   1.583   2.180   4.404  1.0796 -0.6079  0.4232
 2642TIP3   OH229340   6.297   5.073   0.928  0.0864  0.5925 -0.1097
 2642TIP3    H129341   6.325   5.043   1.015 -1.5076  0.9307  0.5485
 2642TIP3    H229342   6.376   5.111   0.890  0.9905 -0.1834  0.9023
 2643TIP3   OH229343   1.255   6.253   5.377 -0.3749 -0.3781 -0.3712
 2643TIP3    H129344   1.231   6.315   5.446  0.1633 -0.3316 -0.2212
 2643TIP3    H229345   1.252   6.306   5.296 -1.1987 -0.4816 -0.4178
 2644TIP3   OH229346   6.508   0.144  14.344  0.1796 -0.1045  0.1334
 2644TIP3    H129347   6.496   0.091  14.423 -1.5594  0.0830  0.0301
 2644TIP3    H229348   6.425   0.191  14.334  0.9436  1.0550 -0.9446
 2645TIP3   OH229349   0.029   3.103  11.657 -0.0537  0.1208  0.4286
 2645TIP3    H129350   0.043   3.087  11.751 -1.5447 -0.7980  0.5344
 2645TIP3    H229351  -0.066   3.107  11.648  0.0613 -0.1255 -1.0949
 2646TIP3   OH229352   4.178   4.413   4.204  0.6877  0.1220  0.1783
 2646TIP3    H129353   4.131   4.493   4.225  1.5038  0.2034  1.8696
 2646TIP3    H229354   4.242   4.439   4.137  0.0988  0.5768 -0.2159
 2647TIP3   OH229355   4.037   2.554  15.946  0.9664  0.0547  0.2473
 2647TIP3    H129356   4.060   2.604  15.868  0.7452 -0.9206 -0.4662
 2647TIP3    H229357   4.092   2.476  15.942  1.4025  0.2772  1.4044
 2648TIP3   OH229358   0.820   3.792  13.848  0.4506 -0.2721 -0.2370
 2648TIP3    H129359   0.790   3.833  13.930  1.9523 -1.0092  0.7153
 2648TIP3    H229360   0.898   3.841  13.824 -1.4448  1.7426 -2.7935
 2649TIP3   OH229361   1.658   1.955  13.185 -0.2843  0.1251  0.7964
 2649TIP3    H129362   1.660   1.864  13.216  1.8696  0.0419  0.5965
 2649TIP3    H229363   1.609   1.951  13.103  0.7341 -1.1003  0.2137
 2650TIP3   OH229364   1.128   1.287  11.440 -0.0497  0.7004  0.6890
 2650TIP3    H129365   1.205   1.330  11.477  3.0956 -2.8007 -1.0785
 2650TIP3    H229366   1.107   1.217  11.503  0.2133 -0.2437 -0.2393
 2651TIP3   OH229367   2.237   4.779  14.191 -0.2712  0.2724 -0.2429
 2651TIP3    H129368   2.188   4.709  14.147 -1.3029  0.7003  0.1985
 2651TIP3    H229369   2.293   4.733  14.254 -0.3632 -0.2046 -0.5056
 2652TIP3   OH229370   0.403   0.835   2.513 -0.2196  0.5664  0.1372
 2652TIP3    H129371   0.367   0.920   2.536 -1.3274  0.1281  0.0827
 2652TIP3    H229372   0.333   0.791   2.464  1.1378  0.4920 -1.8612
 2653TIP3   OH229373   4.848   3.610  16.374  0.3448 -0.4431  0.1016
 2653TIP3    H129374   4.815   3.685  16.325 -0.2449 -1.0384 -0.4180
 2653TIP3    H229375   4.773   3.551  16.382  0.8887 -1.1320  0.2178
 2654TIP3   OH229376   0.057   2.735  14.664  0.4476  0.4184 -0.2678
 2654TIP3    H129377   0.125   2.776  14.611  1.1624  0.6505  0.7873
 2654TIP3    H229378   0.102   2.712  14.746 -0.2503 -1.2871 -0.3204
 2655TIP3   OH229379   4.362   2.639   2.191  0.0524  0.2082  0.1535
 2655TIP3    H129380   4.439   2.589   2.165 -0.9151 -0.9307 -0.6687
 2655TIP3    H229381   4.394   2.701   2.257  1.2513 -1.8217  1.6029
 2656TIP3   OH229382   1.031   2.863  13.027  0.3168  0.0773 -0.6231
 2656TIP3    H129383   1.057   2.771  13.036  0.1610  0.0476 -0.4655
 2656TIP3    H229384   0.962   2.875  13.092  0.8430  0.4984 -0.1339
 2657TIP3   OH229385   2.491   0.937   2.697  0.3082  0.1593  0.1483
 2657TIP3    H129386   2.431   0.915   2.769  2.7158 -1.9033  1.7316
 2657TIP3    H229387   2.574   0.956   2.741  1.6766 -0.3771 -2.0450
 2658TIP3   OH229388   0.551   4.449   5.688  0.0954 -0.1630  0.0284
 2658TIP3    H129389   0.621   4.470   5.750  2.0636  1.2042 -2.4517
 2658TIP3    H229390   0.523   4.361   5.712  2.2389 -0.5126  1.5271
 2659TIP3   OH229391   2.388   5.984  11.036  0.0388 -0.0174 -0.5855
 2659TIP3    H129392   2.472   6.026  11.057 -0.1175  0.4261 -0.8304
 2659TIP3    H229393   2.323   6.040  11.078 -0.0127 -1.8583  1.9881
 2660TIP3   OH229394   4.340   5.571  10.941 -0.2463 -0.1075  0.0714
 2660TIP3    H129395   4.398   5.558  10.866  0.0055 -1.2489  0.4441
 2660TIP3    H229396   4.366   5.656  10.976 -0.3734  0.4527 -1.1216
 2661TIP3   OH229397   0.991   5.846   3.334 -0.1539  0.0057  0.0904
 2661TIP3    H129398   0.897   5.851   3.347 -0.1108  1.1528  0.0957
 2661TIP3    H229399   1.005   5.881   3.246  0.3256  0.5734  0.3853
 2662TIP3   OH229400   6.513   5.297  12.430  0.0266 -0.0731  0.3913
 2662TIP3    H129401   6.529   5.225  12.370  1.2403 -0.1665  0.7932
 2662TIP3    H229402   6.520   5.376  12.376  2.5549 -0.0658  0.5966
 2663TIP3   OH229403   4.305   4.941   5.599  0.3517  0.6348 -0.4004
 2663TIP3    H129404   4.273   4.874   5.538 -0.8540 -0.9248  1.8259
 2663TIP3    H229405   4.363   4.894   5.658 -2.3538  0.8315  2.7140
 2664TIP3   OH229406   3.455   5.418  11.298 -0.3127  0.3975 -0.1693
 2664TIP3    H129407   3.360   5.431  11.303 -0.4794 -0.8803  0.2593
 2664TIP3    H229408   3.474   5.415  11.205 -0.8277 -0.2228 -0.2609
 2665TIP3   OH229409   3.326   1.285   5.321  0.7788  0.2247 -0.0143
 2665TIP3    H129410   3.414   1.262   5.349  0.9564  0.6739 -0.2084
 2665TIP3    H229411   3.309   1.370   5.361  0.3375  0.0274  0.2274
 2666TIP3   OH229412   0.304   0.693  14.691 -0.1566 -0.3012  0.2699
 2666TIP3    H129413   0.287   0.599  14.684 -0.8204 -0.2774  1.2450
 2666TIP3    H229414   0.313   0.723  14.600  1.3080 -1.5043 -0.0079
 2667TIP3   OH229415   6.277   4.902   0.576 -0.0478 -0.6193 -0.4368
 2667TIP3    H129416   6.318   4.988   0.576 -0.9428 -0.1900 -0.3244
 2667TIP3    H229417   6.198   4.912   0.523 -0.5514 -1.1752  0.1848
 2668TIP3   OH229418   5.140   2.298   2.095  0.0250 -0.1995 -0.4966
 2668TIP3    H129419   5.186   2.227   2.052 -1.5676 -1.5167 -0.1243
 2668TIP3    H229420   5.048   2.283   2.074 -0.6160  0.1884  1.7685
 2669TIP3   OH229421   0.025   5.854  12.887  0.1206 -0.3130  0.1360
 2669TIP3    H129422   0.052   5.764  12.905  0.4304 -0.2178  0.1586
 2669TIP3    H229423  -0.068   5.857  12.911  0.1981 -0.5343  0.4706
 2670TIP3   OH229424   1.190   6.712  12.675 -0.3220  0.4399 -0.0202
 2670TIP3    H129425   1.149   6.773  12.614  1.7767  0.6654 -1.2964
 2670TIP3    H229426   1.220   6.767  12.747 -0.6736  0.5383  0.0517
 2671TIP3   OH229427   1.450   4.389  16.029  0.1571 -0.2776  0.7012
 2671TIP3    H129428   1.418   4.317  15.975  0.9141 -0.4790  0.5030
 2671TIP3    H229429   1.386   4.460  16.017 -1.2881 -1.3160  1.8916
 2672TIP3   OH229430   6.682   1.160  12.981 -0.3351  0.0118  0.3388
 2672TIP3    H129431   6.691   1.066  13.001  0.5427  0.2359  1.0532
 2672TIP3    H229432   6.763   1.183  12.937 -0.7997  0.3238 -0.3817
 2673TIP3   OH229433   1.600   4.888  11.562 -0.0799 -1.1613  0.1946
 2673TIP3    H129434   1.554   4.968  11.587 -0.1249 -1.7170  2.0315
 2673TIP3    H229435   1.551   4.855  11.486 -1.3025 -0.5331  0.6800
 2674TIP3   OH229436   1.700   2.547  16.596 -0.6229  0.4063 -0.2654
 2674TIP3    H129437   1.780   2.600  16.592 -0.3561 -0.0734 -2.5491
 2674TIP3    H229438   1.728   2.463  16.631 -0.1322  0.2985 -0.8953
 2675TIP3   OH229439   6.283   4.004   0.464  0.0433  0.4577 -0.2510
 2675TIP3    H129440   6.236   3.959   0.534 -1.7978  0.6361 -1.3283
 2675TIP3    H229441   6.324   4.079   0.508  0.7106 -0.5987  1.0089
 2676TIP3   OH229442   6.371   2.763  14.498  0.1124  0.4126  0.0533
 2676TIP3    H129443   6.387   2.705  14.424 -0.7608  0.1783  0.0310
 2676TIP3    H229444   6.423   2.727  14.569 -0.5108 -0.4882  0.0745
 2677TIP3   OH229445   4.214   3.670  10.681 -0.3660 -0.1470  0.5555
 2677TIP3    H129446   4.283   3.736  10.686 -0.8561  0.4452 -0.2591
 2677TIP3    H229447   4.215   3.628  10.767  1.4343 -0.5978  0.3511
 2678TIP3   OH229448   0.324   1.562  16.095  0.4575  0.1043 -0.0637
 2678TIP3    H129449   0.383   1.540  16.167  1.2549 -0.7835 -0.9532
 2678TIP3    H229450   0.244   1.594  16.137  1.1154  0.1430  1.1858
 2679TIP3   OH229451   4.748   4.443  13.153 -0.0268  0.5790  0.3972
 2679TIP3    H129452   4.758   4.477  13.241 -0.8757 -0.7985  1.0561
 2679TIP3    H229453   4.736   4.348  13.164 -0.4064  0.4034 -1.1621
 2680TIP3   OH229454   5.178   4.348   3.901  0.5910  0.4904  0.3832
 2680TIP3    H129455   5.128   4.268   3.884 -0.9120  1.0957  1.7556
 2680TIP3    H229456   5.264   4.316   3.929  0.3154 -0.6223  0.0119
 2681TIP3   OH229457   0.997   1.313  15.434  0.4170  0.7535  0.4482
 2681TIP3    H129458   1.058   1.298  15.506 -0.2133 -0.8967  0.6698
 2681TIP3    H229459   0.951   1.230  15.422  1.4250  0.5238 -2.7636
 2682TIP3   OH229460   5.236   4.390  17.060 -0.2775 -0.2440  0.1688
 2682TIP3    H129461   5.245   4.462  16.997  0.7924 -0.4082  0.1154
 2682TIP3    H229462   5.143   4.390  17.083 -0.0731  2.2653  1.4672
 2683TIP3   OH229463   2.783   5.703   5.487 -0.5524  0.2736 -0.5818
 2683TIP3    H129464   2.833   5.734   5.563 -0.8825  1.0391 -0.6679
 2683TIP3    H229465   2.721   5.774   5.469  1.3894  1.4163 -3.3468
 2684TIP3   OH229466   4.334   2.304   0.006 -0.1483  0.1078  0.0246
 2684TIP3    H129467   4.323   2.215   0.040 -1.1989 -0.2079 -1.0744
 2684TIP3    H229468   4.411   2.299  -0.050  0.1982  0.0684  0.4939
 2685TIP3   OH229469   5.272   3.264   0.280  0.3339 -0.3432  0.2270
 2685TIP3    H129470   5.212   3.336   0.261  1.9987  1.3790  1.1426
 2685TIP3    H229471   5.298   3.231   0.194 -2.1291 -1.4045 -0.1933
 2686TIP3   OH229472   3.872   1.510   0.502 -0.0868  0.0281 -0.2709
 2686TIP3    H129473   3.789   1.550   0.476 -1.1541 -2.6890 -1.3916
 2686TIP3    H229474   3.932   1.533   0.431 -0.5216  0.0903 -0.6244
 2687TIP3   OH229475   0.817   4.966   0.687  0.1332  0.5567  0.7465
 2687TIP3    H129476   0.773   5.038   0.644  0.4350  0.5149  0.3589
 2687TIP3    H229477   0.824   4.898   0.620 -0.0208  0.2205  1.0636
 2688TIP3   OH229478   5.288   5.518  10.961 -0.0246 -0.2456  0.2186
 2688TIP3    H129479   5.246   5.598  10.993  1.9816  0.4685  1.2424
 2688TIP3    H229480   5.326   5.543  10.877  1.6878  0.3381  1.1032
 2689TIP3   OH229481   2.635   2.915  13.916  0.4193  0.7481 -0.6569
 2689TIP3    H129482   2.674   3.001  13.902  0.3059  0.9267  0.0814
 2689TIP3    H229483   2.706   2.862  13.952  0.2455  0.7890 -0.2564
 2690TIP3   OH229484   0.642   0.934   4.587 -0.9735 -0.1211  0.0467
 2690TIP3    H129485   0.653   1.009   4.647  0.4821  0.5348 -0.9662
 2690TIP3    H229486   0.580   0.965   4.521  0.3446  0.5924 -0.9074
 2691TIP3   OH229487   2.451   3.215  15.016  0.2084 -0.1699  0.4775
 2691TIP3    H129488   2.459   3.136  15.068 -0.4424  0.3143  1.3319
 2691TIP3    H229489   2.391   3.271  15.065 -0.1636  0.4363 -0.6241
 2692TIP3   OH229490   6.367   5.650   1.016  0.5901 -0.4507  0.2387
 2692TIP3    H129491   6.453   5.642   1.057  0.4433 -1.3928  0.3778
 2692TIP3    H229492   6.383   5.700   0.936  0.7969  1.9017  1.6712
 2693TIP3   OH229493   0.034   0.900  11.521 -0.4475 -0.0989  0.0993
 2693TIP3    H129494   0.057   0.968  11.458 -0.0138  0.8536  1.2553
 2693TIP3    H229495   0.048   0.940  11.607  1.9104 -2.2806  0.8621
 2694TIP3   OH229496   5.270   4.756  12.678 -0.0584  0.1259 -0.2689
 2694TIP3    H129497   5.358   4.784  12.703 -0.8152  1.5036  0.9851
 2694TIP3    H229498   5.264   4.666  12.710  0.8759  0.0152 -0.3554
 2695TIP3   OH229499   3.965   3.347   6.417  0.2502 -0.1815 -0.1660
 2695TIP3    H129500   3.885   3.386   6.381  0.6234  0.2983 -0.4937
 2695TIP3    H229501   3.948   3.342   6.511  0.4493  1.4498 -0.0102
 2696TIP3   OH229502   4.865   5.068   3.501 -0.2523 -0.0183 -0.1547
 2696TIP3    H129503   4.817   5.011   3.561  0.2321 -1.6449 -1.2590
 2696TIP3    H229504   4.819   5.152   3.506 -0.8334 -0.3944  1.6980
 2697TIP3   OH229505   4.986   3.932  11.391 -0.3299 -0.5922 -0.0690
 2697TIP3    H129506   5.006   4.022  11.368  3.3108 -1.3286 -0.4268
 2697TIP3    H229507   4.948   3.894  11.311 -1.1275  0.3566 -0.1628
 2698TIP3   OH229508   2.592   1.715   5.619 -0.1756  0.6623  0.2221
 2698TIP3    H129509   2.555   1.750   5.538  0.9858  1.1573 -0.1122
 2698TIP3    H229510   2.518   1.714   5.681 -0.5045  2.7621 -0.0648
 2699TIP3   OH229511   0.526   1.086   5.470  0.0760 -0.5178  0.5261
 2699TIP3    H129512   0.547   1.180   5.477  0.7790 -0.4571 -1.5715
 2699TIP3    H229513   0.573   1.058   5.392 -1.8328 -2.1529 -0.1035
 2700TIP3   OH229514   1.146   2.757  12.115  0.8313  0.5435  0.1772
 2700TIP3    H129515   1.150   2.823  12.046  1.6231  2.0577  1.6041
 2700TIP3    H229516   1.114   2.805  12.191 -1.0116 -1.3083  0.6617
 2701TIP3   OH229517   4.955   3.438  12.929 -0.0104  0.2470 -0.1778
 2701TIP3    H129518   4.956   3.484  13.012 -1.4502  1.0444 -0.5693
 2701TIP3    H229519   4.969   3.346  12.952 -1.3904  0.3033  1.0692
 2702TIP3   OH229520   6.777   1.885   4.515 -0.5919  0.3775 -0.3561
 2702TIP3    H129521   6.751   1.829   4.442  1.0051  0.6153 -1.1552
 2702TIP3    H229522   6.862   1.921   4.489 -2.0853  4.3038 -0.4949
 2703TIP3   OH229523   0.965   0.796  12.870  0.3266 -0.9468  0.2468
 2703TIP3    H129524   1.046   0.793  12.921  0.6854  0.2271 -0.2272
 2703TIP3    H229525   0.897   0.775  12.933  0.7482  0.6316  1.2764
 2704TIP3   OH229526   6.165   3.963  14.305 -0.3212 -0.2592  0.0214
 2704TIP3    H129527   6.248   4.006  14.287 -1.1823  2.9256  2.7280
 2704TIP3    H229528   6.128   3.944  14.219  1.7727  1.2060 -1.2802
 2705TIP3   OH229529   0.889   3.797   2.072  0.1463  0.3735  0.7493
 2705TIP3    H129530   0.873   3.731   2.140  0.4547 -0.4622  0.0402
 2705TIP3    H229531   0.813   3.791   2.014  0.9596 -0.6111 -0.2735
 2706TIP3   OH229532   3.968   3.589   1.299  0.1871  0.1587  0.4736
 2706TIP3    H129533   4.042   3.649   1.309 -0.0869  0.6786 -0.4967
 2706TIP3    H229534   3.953   3.555   1.387  0.5827  1.2417  0.9801
 2707TIP3   OH229535   6.005   4.810   1.877 -0.0797 -0.0169 -0.4582
 2707TIP3    H129536   6.046   4.891   1.908  0.9146 -1.1500  1.3881
 2707TIP3    H229537   6.057   4.784   1.801  0.3585  0.4544 -0.3228
 2708TIP3   OH229538   6.584   3.493   0.340  0.6732  0.7003 -0.1892
 2708TIP3    H129539   6.539   3.490   0.255  0.5363 -2.4811 -0.1037
 2708TIP3    H229540   6.662   3.440   0.327  2.2451  2.6267  0.9057
 2709TIP3   OH229541   3.068   4.946   4.856 -0.3336 -0.3687  0.4413
 2709TIP3    H129542   3.079   5.017   4.920  3.1151  0.6806 -1.1031
 2709TIP3    H229543   3.050   4.869   4.910 -0.6620  1.0086  2.4424
 2710TIP3   OH229544   6.158   2.009  13.623  0.2173 -0.1742  0.2257
 2710TIP3    H129545   6.167   2.048  13.536 -0.6659  0.1355  0.2616
 2710TIP3    H229546   6.150   1.915  13.606  0.1349 -0.1241 -0.0191
 2711TIP3   OH229547   1.278   1.116   4.489 -0.4249 -0.0190 -0.1937
 2711TIP3    H129548   1.342   1.103   4.559 -1.8648  0.6983  1.3501
 2711TIP3    H229549   1.198   1.073   4.522 -0.7843 -0.7875 -1.9917
 2712TIP3   OH229550   3.175   5.872   4.782 -0.0591  0.1056  0.0737
 2712TIP3    H129551   3.156   5.906   4.870 -1.3515 -0.3326 -0.0134
 2712TIP3    H229552   3.194   5.950   4.730  0.2586  0.4089  0.6267
 2713TIP3   OH229553   2.905   3.819  16.325  0.6118  0.0385  0.1203
 2713TIP3    H129554   2.851   3.830  16.247  0.5344 -0.2516  0.1311
 2713TIP3    H229555   2.897   3.726  16.347  1.8488 -0.2132 -0.4009
 2714TIP3   OH229556   5.367   5.313   3.954  0.8928 -0.1623  0.5929
 2714TIP3    H129557   5.330   5.380   3.897 -0.0110 -1.7662 -0.8161
 2714TIP3    H229558   5.303   5.303   4.024  0.7757  0.1060  0.5244
 2715TIP3   OH229559   5.861   3.812  12.996  0.8861 -0.9833 -0.5228
 2715TIP3    H129560   5.863   3.904  13.023  0.0920 -1.1501  0.1314
 2715TIP3    H229561   5.915   3.810  12.917 -0.3304  0.3380 -1.4515
 2716TIP3   OH229562   5.555   1.549   2.298  0.2833 -0.3243 -0.2515
 2716TIP3    H129563   5.499   1.591   2.363 -0.0288 -0.3681 -0.4888
 2716TIP3    H229564   5.521   1.580   2.214  0.1407 -0.9395 -0.4233
 2717TIP3   OH229565   1.315   3.224  10.591  0.2748  0.3734  0.3581
 2717TIP3    H129566   1.386   3.254  10.535  0.8319 -1.5287 -0.0369
 2717TIP3    H229567   1.235   3.259  10.552  0.8548  1.1024 -0.1843
 2718TIP3   OH229568   4.151   0.777   1.745  0.3364 -1.0580  0.5823
 2718TIP3    H129569   4.102   0.710   1.698  3.7362 -3.5001  0.1597
 2718TIP3    H229570   4.184   0.733   1.823  1.1894  0.6689  1.2563
 2719TIP3   OH229571   3.749   6.721  13.360 -0.2147 -0.2061 -0.0800
 2719TIP3    H129572   3.703   6.745  13.280 -0.6672 -0.8427 -0.0134
 2719TIP3    H229573   3.842   6.727  13.336 -0.3453 -0.8830 -0.8085
 2720TIP3   OH229574   5.117   3.403   0.775 -0.3865  0.3634 -0.3003
 2720TIP3    H129575   5.119   3.380   0.868 -0.3412 -1.9081 -0.8075
 2720TIP3    H229576   5.203   3.442   0.758  0.4540 -1.1763  0.2050
 2721TIP3   OH229577   2.445   3.482   3.977  0.2142  0.1682 -0.0349
 2721TIP3    H129578   2.503   3.494   4.052 -0.0494  1.2380  0.0187
 2721TIP3    H229579   2.385   3.412   4.004 -1.1183  1.8034  1.5753
 2722TIP3   OH229580   6.412   3.221  12.252  0.1076 -0.9802  0.0318
 2722TIP3    H129581   6.507   3.208  12.252  0.1957 -0.4265  0.9099
 2722TIP3    H229582   6.382   3.179  12.172  1.4366  1.4153 -1.8294
 2723TIP3   OH229583   6.153   1.326   4.245 -0.0469  0.5829 -0.3227
 2723TIP3    H129584   6.110   1.310   4.161 -0.6476 -0.5614  0.1783
 2723TIP3    H229585   6.213   1.252   4.256 -0.9719 -0.0374  0.8686
 2724TIP3   OH229586   0.502   1.028  15.646 -0.3990 -0.0611  0.0079
 2724TIP3    H129587   0.490   0.955  15.706 -0.5139  0.4770  0.6544
 2724TIP3    H229588   0.418   1.036  15.600  0.2754 -1.6490 -1.5970
 2725TIP3   OH229589   5.508   6.465  14.062 -0.0846 -0.4609  0.3134
 2725TIP3    H129590   5.570   6.511  14.006 -0.3794  0.4611  0.7334
 2725TIP3    H229591   5.459   6.534  14.107 -0.3472 -1.1809  1.1685
 2726TIP3   OH229592   5.261   0.692   3.957  0.0708 -0.0826  0.2182
 2726TIP3    H129593   5.275   0.787   3.964  0.0091 -0.1090  0.7129
 2726TIP3    H229594   5.224   0.667   4.042 -2.0833 -0.1733 -0.7028
 2727TIP3   OH229595   5.779   2.020   6.076  0.2889  0.2491  0.4982
 2727TIP3    H129596   5.770   1.958   6.148  0.1379  0.9264  1.0829
 2727TIP3    H229597   5.742   2.102   6.111  1.5731  0.9951  0.1792
 2728TIP3   OH229598   5.207   0.509  12.128 -0.5494 -0.4497  0.5791
 2728TIP3    H129599   5.249   0.588  12.094 -1.1187  0.0262  0.9506
 2728TIP3    H229600   5.246   0.437  12.079  0.0231  0.0598  0.2791
 2729TIP3   OH229601   1.833   2.130  13.785  0.1017 -0.5723  0.3307
 2729TIP3    H129602   1.904   2.102  13.727 -0.1333  0.6168 -0.5626
 2729TIP3    H229603   1.825   2.224  13.770 -0.6857 -0.4262  1.5167
 2730TIP3   OH229604   5.906   0.004   0.166  0.2262  0.0847 -0.1913
 2730TIP3    H129605   5.995  -0.001   0.133 -0.5773  1.8088 -2.9582
 2730TIP3    H229606   5.861  -0.071   0.128 -0.7905  2.2538 -3.8657
 2731TIP3   OH229607   2.663   3.820   1.146  0.3425 -0.3831  0.4739
 2731TIP3    H129608   2.576   3.838   1.182  0.4819  1.6985 -0.1112
 2731TIP3    H229609   2.664   3.865   1.061  1.7415 -0.9614  0.1637
 2732TIP3   OH229610   5.706   5.082  15.949 -0.0523 -0.0061  0.3059
 2732TIP3    H129611   5.634   5.050  15.895  0.6222  0.1397 -0.7118
 2732TIP3    H229612   5.752   5.144  15.893  0.2402  0.7144  1.3211
 2733TIP3   OH229613   1.653   6.544  15.670 -0.3955 -1.4013  0.2874
 2733TIP3    H129614   1.700   6.496  15.738  1.5425 -0.3836 -0.2497
 2733TIP3    H229615   1.644   6.482  15.598  1.4953 -1.2356 -0.1501
 2734TIP3   OH229616   6.770   6.279   2.615 -0.1610 -0.5182 -0.2064
 2734TIP3    H129617   6.864   6.265   2.628 -0.3702 -2.2315 -0.2946
 2734TIP3    H229618   6.729   6.231   2.687 -1.0537 -2.9410 -2.1837
 2735TIP3   OH229619   3.971   2.561  16.465  0.0273  0.0693  0.7052
 2735TIP3    H129620   4.004   2.596  16.382 -1.4216  1.8170  0.8158
 2735TIP3    H229621   3.909   2.627  16.496 -0.1813 -1.0000  2.7169
 2736TIP3   OH229622   1.415   4.544  14.814 -0.4113  0.1049  0.7554
 2736TIP3    H129623   1.403   4.629  14.770  0.1907  0.2421  0.8581
 2736TIP3    H229624   1.502   4.549  14.853 -0.6649 -0.2861  1.3806
 2737TIP3   OH229625   6.640   6.127  11.368  0.3941 -0.5871  0.0108
 2737TIP3    H129626   6.574   6.095  11.307  0.3265  1.0909 -0.8440
 2737TIP3    H229627   6.614   6.090  11.452 -1.5227 -0.1452 -0.3346
 2738TIP3   OH229628   5.114   5.091  15.911 -0.8983 -0.2248 -0.0164
 2738TIP3    H129629   5.109   4.995  15.910 -0.1394 -0.3107  1.8704
 2738TIP3    H229630   5.167   5.112  15.987 -1.5725  1.7369 -0.0316
 2739TIP3   OH229631   1.996   3.386  16.747  0.1628 -0.4887 -0.0829
 2739TIP3    H129632   1.967   3.327  16.678  0.4345  0.9064 -1.4197
 2739TIP3    H229633   1.945   3.466  16.734  1.1431  0.2560  0.5280
 2740TIP3   OH229634   2.531   2.890  12.027  0.1674  0.2399  0.3858
 2740TIP3    H129635   2.496   2.803  12.011  0.5207  0.0239  0.7480
 2740TIP3    H229636   2.583   2.880  12.108 -0.2870  0.9219  0.7684
 2741TIP3   OH229637   0.637   1.029   5.722 -0.2002 -0.6116  0.3004
 2741TIP3    H129638   0.567   1.010   5.660  0.5360 -1.7842 -0.1944
 2741TIP3    H229639   0.717   1.030   5.670  0.5435 -2.4662  1.3185
 2742TIP3   OH229640   3.279   3.114  14.502  0.0793  0.4065 -0.3315
 2742TIP3    H129641   3.234   3.030  14.510  0.0573  0.5814  1.8296
 2742TIP3    H229642   3.212   3.180  14.519  0.2523  0.8690 -1.3286
 2743TIP3   OH229643   5.268   1.211  12.113  0.3517 -0.2258  0.2215
 2743TIP3    H129644   5.313   1.238  12.033 -1.3620  0.1032 -0.6763
 2743TIP3    H229645   5.216   1.135  12.087 -2.1247  1.3321  0.3434
 2744TIP3   OH229646   1.336   5.351   6.015  0.1045  0.3562  0.1656
 2744TIP3    H129647   1.370   5.371   5.928  0.4669 -1.3346 -0.1017
 2744TIP3    H229648   1.255   5.401   6.021 -1.5033 -1.7095 -2.3182
 2745TIP3   OH229649   1.263   1.390   2.025 -0.0358  0.4149  0.2868
 2745TIP3    H129650   1.217   1.381   1.942 -0.9239 -0.5850  0.8686
 2745TIP3    H229651   1.330   1.322   2.023 -0.2975  0.1458  0.5341
 2746TIP3   OH229652   5.227   4.529  16.083  0.0581  0.4165  0.0003
 2746TIP3    H129653   5.319   4.541  16.063  0.0349 -0.9664 -1.0713
 2746TIP3    H229654   5.225   4.468  16.156 -0.0150 -0.9048 -1.0725
 2747TIP3   OH229655   5.515   3.770  14.107  0.6572 -0.1133  0.0624
 2747TIP3    H129656   5.567   3.720  14.044  0.8482  0.2851 -0.1059
 2747TIP3    H229657   5.571   3.776  14.185  0.4066 -0.6358  0.2873
 2748TIP3   OH229658   1.004   6.155  12.739 -0.5590 -0.1181  0.3369
 2748TIP3    H129659   1.001   6.087  12.671 -0.8450 -1.0770  1.2689
 2748TIP3    H229660   1.096   6.158  12.766 -0.7441 -1.1013  1.1861
 2749TIP3   OH229661   0.815   1.939   2.334 -0.0613  0.6490 -0.5436
 2749TIP3    H129662   0.858   1.855   2.316 -1.8886 -0.4062 -0.1650
 2749TIP3    H229663   0.846   1.997   2.264 -1.0931 -1.2209 -2.6787
 2750TIP3   OH229664   1.960   2.608  16.483  0.1280 -0.0979 -0.4336
 2750TIP3    H129665   2.015   2.550  16.429  0.5326  0.8519 -1.0684
 2750TIP3    H229666   2.022   2.668  16.524 -0.3799  0.5619 -0.6257
 2751TIP3   OH229667   6.593   4.930  14.672 -0.1109 -0.2272  0.0517
 2751TIP3    H129668   6.596   5.014  14.717 -0.4682  1.7661 -3.3454
 2751TIP3    H229669   6.603   4.951  14.579 -0.7463 -3.8889 -1.0255
 2752TIP3   OH229670   6.481   6.069   5.362 -0.1713  0.4261 -0.3891
 2752TIP3    H129671   6.561   6.081   5.412  1.4730 -1.7396 -2.2897
 2752TIP3    H229672   6.413   6.058   5.429  1.9729 -2.8326  1.5758
 2753TIP3   OH229673   2.504   5.110  10.297 -0.4140  0.5543 -0.7333
 2753TIP3    H129674   2.555   5.178  10.341  0.9877 -0.4981 -0.6428
 2753TIP3    H229675   2.414   5.124  10.327  0.1848  1.0471  0.9690
 2754TIP3   OH229676   2.940   0.166   3.160 -0.0068  0.0804 -0.1091
 2754TIP3    H129677   2.958   0.255   3.130 -0.1399 -0.3700 -1.5832
 2754TIP3    H229678   2.946   0.112   3.081 -0.6169 -1.1261  0.6383
 2755TIP3   OH229679   3.045   3.729  12.635  0.2684  0.0946 -0.1389
 2755TIP3    H129680   2.963   3.755  12.677 -0.8505  1.3304 -2.8312
 2755TIP3    H229681   3.062   3.641  12.667 -2.1514 -0.2215  0.4655
 2756TIP3   OH229682   3.615   6.570   4.286  0.8780 -1.1853  0.2440
 2756TIP3    H129683   3.601   6.483   4.248  1.0149 -1.1202  0.0428
 2756TIP3    H229684   3.607   6.630   4.212  2.7257 -1.1831  0.0034
 2757TIP3   OH229685   0.322   4.655  12.768 -0.1490 -0.3435  0.1010
 2757TIP3    H129686   0.381   4.596  12.814  0.9240  0.3369 -0.3590
 2757TIP3    H229687   0.310   4.729  12.828 -3.3568 -1.9565  1.7006
 2758TIP3   OH229688   1.607   0.908  11.530  0.1437 -0.0158  0.0409
 2758TIP3    H129689   1.642   0.990  11.495  1.6626 -1.3768 -1.8658
 2758TIP3    H229690   1.681   0.847  11.525 -1.6355 -2.2013 -1.1386
 2759TIP3   OH229691   2.505   1.347   0.156 -0.0002 -0.8551  0.0263
 2759TIP3    H129692   2.464   1.357   0.242 -0.0643 -0.6556 -0.0260
 2759TIP3    H229693   2.591   1.390   0.166  0.0780 -1.0163  0.0511
 2760TIP3   OH229694   4.087   5.186  15.069  0.0383 -0.1230 -0.7763
 2760TIP3    H129695   4.129   5.269  15.050 -0.4991  0.4475  0.4132
 2760TIP3    H229696   4.132   5.123  15.013  1.2400  0.7623 -0.8514
 2761TIP3   OH229697   2.759   5.970  17.215  0.6460 -0.2140  0.2231
 2761TIP3    H129698   2.822   5.992  17.146  1.3251  1.6523  1.3755
 2761TIP3    H229699   2.773   5.877  17.231  2.4616 -0.0594 -0.2260
 2762TIP3   OH229700   0.063   2.096   3.246  0.4121  0.1121 -0.1361
 2762TIP3    H129701   0.091   2.004   3.248 -0.3230 -0.1159  0.5539
 2762TIP3    H229702  -0.032   2.091   3.249  0.3898  0.9042  1.6624
 2763TIP3   OH229703   3.502   6.089   2.897 -0.4190  0.0885  0.2437
 2763TIP3    H129704   3.458   6.005   2.884  1.2828 -0.8604  0.3006
 2763TIP3    H229705   3.441   6.141   2.949 -1.5270 -1.0938  0.1577
 2764TIP3   OH229706   2.531   5.959  15.218 -0.6176 -0.3077  0.1982
 2764TIP3    H129707   2.511   6.040  15.172  0.2245 -1.9405 -3.3991
 2764TIP3    H229708   2.520   5.891  15.152  4.7274 -2.5641  1.1078
 2765TIP3   OH229709   5.958   5.392  12.914  0.8399 -0.0614  0.3647
 2765TIP3    H129710   5.877   5.342  12.926  0.0286  1.5788  2.3570
 2765TIP3    H229711   5.959   5.413  12.821 -0.2797 -1.3142  0.0322
 2766TIP3   OH229712   0.886   6.571  14.886  0.1778 -0.1539  0.1545
 2766TIP3    H129713   0.889   6.619  14.969 -1.2189 -1.2725  0.9032
 2766TIP3    H229714   0.929   6.488  14.905  2.7643  0.7650 -1.1916
 2767TIP3   OH229715   2.772   0.395   5.360  0.4942 -0.7399 -0.4439
 2767TIP3    H129716   2.785   0.306   5.328 -0.6365 -1.0643 -0.0557
 2767TIP3    H229717   2.795   0.391   5.453  0.5957 -0.5884 -0.4622
 2768TIP3   OH229718   5.088   2.735   3.751 -0.0458  0.2073  0.3573
 2768TIP3    H129719   5.168   2.777   3.718 -0.0511  1.0219  1.3167
 2768TIP3    H229720   5.119   2.657   3.797  0.1704  0.3725  0.4945
 2769TIP3   OH229721   4.654   0.847   5.268  0.0206  0.0469  0.3351
 2769TIP3    H129722   4.682   0.878   5.182  0.0102 -0.4722  0.1431
 2769TIP3    H229723   4.593   0.915   5.298 -0.4519 -0.0623 -0.3355
 2770TIP3   OH229724   5.139   5.839  16.523  0.9419 -0.0436 -0.4563
 2770TIP3    H129725   5.128   5.877  16.611 -3.0645 -0.2363 -0.7043
 2770TIP3    H229726   5.050   5.823  16.493  2.1249  0.4962 -4.8410
 2771TIP3   OH229727   2.596   2.536   6.241  0.1739  0.3223  0.2701
 2771TIP3    H129728   2.516   2.589   6.236 -0.3497 -0.4966 -0.3625
 2771TIP3    H229729   2.596   2.501   6.330 -0.5947 -0.2957  0.0400
 2772TIP3   OH229730   0.675   0.856   6.287 -0.2276  0.3293 -0.1279
 2772TIP3    H129731   0.764   0.850   6.253 -0.3866  1.1433 -0.7173
 2772TIP3    H229732   0.622   0.881   6.212 -1.1502 -1.2246 -0.0256
 2773TIP3   OH229733   4.569   3.059   5.594 -0.1493 -0.2548  0.8133
 2773TIP3    H129734   4.651   3.100   5.620 -0.1560  0.6810 -0.5756
 2773TIP3    H229735   4.504   3.095   5.655 -0.1082  1.6207 -0.1933
 2774TIP3   OH229736   6.245   0.891  13.802  0.0927  0.1234  0.0022
 2774TIP3    H129737   6.273   0.889  13.710  0.7752  0.9922  0.1773
 2774TIP3    H229738   6.273   0.807  13.837 -1.7792 -0.9937 -1.0187
 2775TIP3   OH229739   3.431   1.407   3.735  0.2556 -0.1533 -0.0898
 2775TIP3    H129740   3.486   1.472   3.780  1.0048 -0.1641 -0.9490
 2775TIP3    H229741   3.485   1.327   3.735 -0.5177 -0.6916  0.6539
 2776TIP3   OH229742   5.074   4.916   2.355  0.3016  0.0447 -0.2691
 2776TIP3    H129743   5.064   5.011   2.354 -4.2117 -0.1612  1.3687
 2776TIP3    H229744   5.120   4.898   2.437 -2.4333  0.8717  1.6187
 2777TIP3   OH229745   5.537   5.453   5.578  0.2682 -0.3094 -0.1679
 2777TIP3    H129746   5.523   5.358   5.585 -0.3001 -0.2049  0.1824
 2777TIP3    H229747   5.470   5.483   5.517  0.8674 -0.2188 -0.7968
 2778TIP3   OH229748   0.500   4.899  13.773  0.1829  0.2738 -0.1464
 2778TIP3    H129749   0.530   4.971  13.717  1.3115 -0.0078  0.0532
 2778TIP3    H229750   0.405   4.907  13.775  0.2437  1.3016 -0.7400
 2779TIP3   OH229751   5.324   5.954  16.342  0.2336  0.3776 -0.3458
 2779TIP3    H129752   5.361   6.007  16.411  0.2100  0.2505 -0.2344
 2779TIP3    H229753   5.249   5.910  16.383  0.0948  0.4614 -0.5073
 2780TIP3   OH229754   2.375   3.363   5.470 -0.2387  0.2756  0.1262
 2780TIP3    H129755   2.306   3.341   5.533 -1.4143 -1.0868 -1.5544
 2780TIP3    H229756   2.389   3.283   5.420  1.2037  1.0912 -0.8597
 2781TIP3   OH229757   0.448   3.378  12.869  0.3514  0.3074 -0.1791
 2781TIP3    H129758   0.526   3.426  12.896 -0.1302  0.0841  1.7193
 2781TIP3    H229759   0.475   3.286  12.870 -0.0656  0.1773  1.0892
 2782TIP3   OH229760   4.014   4.966  12.727  0.2616 -0.1491 -0.5008
 2782TIP3    H129761   4.110   4.963  12.723  0.2055 -1.1868 -1.5428
 2782TIP3    H229762   3.990   4.887  12.774 -0.0707  0.6324  0.6971
 2783TIP3   OH229763   1.860   0.775  15.389  0.0949 -0.4220  0.1389
 2783TIP3    H129764   1.768   0.760  15.370 -0.1016 -0.0457  0.7499
 2783TIP3    H229765   1.906   0.754  15.308 -0.5132 -0.7673 -0.1174
 2784TIP3   OH229766   4.656   3.477  14.061 -0.0021  0.6477 -0.0868
 2784TIP3    H129767   4.616   3.497  14.146 -0.9085 -0.2915 -0.2781
 2784TIP3    H229768   4.645   3.383  14.051  1.8721  0.4087 -0.3685
 2785TIP3   OH229769   4.514   2.157   0.235  0.1272 -0.2854 -0.5198
 2785TIP3    H129770   4.538   2.118   0.151  0.6434  0.0468 -0.5283
 2785TIP3    H229771   4.597   2.185   0.274  0.1248 -2.0984  0.9503
 2786TIP3   OH229772   0.729   2.190  13.185  0.4513 -0.1425  0.2679
 2786TIP3    H129773   0.634   2.203  13.176  0.4495  1.0072  1.5620
 2786TIP3    H229774   0.764   2.208  13.097 -0.6097 -1.6642 -0.4993
 2787TIP3   OH229775   3.587   5.203  16.279  0.1872 -0.0581 -0.2560
 2787TIP3    H129776   3.618   5.289  16.307  0.1461  0.4035 -1.5831
 2787TIP3    H229777   3.621   5.143  16.346 -1.0474  1.1338  1.5223
 2788TIP3   OH229778   2.322   3.563   1.979  0.3561 -0.3649  0.7586
 2788TIP3    H129779   2.269   3.602   1.910  0.8875 -0.3717  0.3378
 2788TIP3    H229780   2.269   3.491   2.012 -0.9183  1.0576  1.9783
 2789TIP3   OH229781   4.167   4.867   2.673  0.2576  0.2241  0.0540
 2789TIP3    H129782   4.136   4.932   2.609  1.5180 -0.3017 -1.1499
 2789TIP3    H229783   4.236   4.912   2.721  1.2409 -0.2431 -0.8887
 2790TIP3   OH229784   2.917   2.951  13.333  0.6477  0.0131 -0.1936
 2790TIP3    H129785   2.995   2.982  13.379  1.5978 -2.3669 -0.0375
 2790TIP3    H229786   2.945   2.871  13.289 -2.1803 -2.1495  1.5842
 2791TIP3   OH229787   0.217   3.500  12.895  0.0209  0.5457 -0.0693
 2791TIP3    H129788   0.302   3.465  12.922  0.5054  3.0141  2.0093
 2791TIP3    H229789   0.153   3.447  12.943  0.3650 -0.8083 -1.0307
 2792TIP3   OH229790   5.220   1.674  12.982 -0.4955  0.0439 -0.0389
 2792TIP3    H129791   5.130   1.643  12.990 -0.6599  0.7113  0.8869
 2792TIP3    H229792   5.217   1.739  12.912 -0.3571 -1.1982 -1.2491
 2793TIP3   OH229793   2.769   6.307   4.653 -0.0523 -0.6049 -0.0319
 2793TIP3    H129794   2.801   6.247   4.720  1.2282 -0.5226 -0.5353
 2793TIP3    H229795   2.814   6.390   4.671 -3.1988  0.8579  1.8021
 2794TIP3   OH229796   0.449   6.461   6.177  0.0745 -0.6034 -0.4022
 2794TIP3    H129797   0.495   6.538   6.211  0.1927 -0.4236 -0.9615
 2794TIP3    H229798   0.476   6.390   6.235  1.4381 -0.5992 -0.9912
 2795TIP3   OH229799   2.448   4.042   3.231 -0.1319 -0.2357 -0.5246
 2795TIP3    H129800   2.369   4.026   3.283 -0.3531 -0.4080 -0.9009
 2795TIP3    H229801   2.414   4.070   3.146  0.2401  1.0923 -0.2547
 2796TIP3   OH229802   4.312   4.222   3.046 -0.0648  0.1416  0.3034
 2796TIP3    H129803   4.249   4.165   3.002  0.0954  0.8028 -0.8277
 2796TIP3    H229804   4.328   4.293   2.984  0.1474  1.1389  1.4589
 2797TIP3   OH229805   5.979   6.576   4.749  0.2735 -0.1341 -0.3497
 2797TIP3    H129806   5.929   6.524   4.811  0.3116  0.1422 -0.0819
 2797TIP3    H229807   6.061   6.597   4.796 -0.0665  0.8190 -0.1529
 2798TIP3   OH229808   6.324   3.010   4.264  0.0934  0.2282 -0.7118
 2798TIP3    H129809   6.337   3.089   4.317 -0.3809 -0.1405 -0.0432
 2798TIP3    H229810   6.394   3.014   4.199  0.1317  1.1540 -0.6314
 2799TIP3   OH229811   2.238   1.000   4.578  0.7335  0.0204 -0.5607
 2799TIP3    H129812   2.172   0.970   4.516  1.1575  1.0884 -1.5484
 2799TIP3    H229813   2.321   0.968   4.543  0.9166  0.1248 -0.2333
 2800TIP3   OH229814   0.692   2.693  15.479  0.1360  0.9083  0.4989
 2800TIP3    H129815   0.621   2.651  15.527  0.4403  1.1441  1.1552
 2800TIP3    H229816   0.704   2.638  15.401 -0.1891  0.3835  0.8162
 2801TIP3   OH229817   5.570   0.005  16.681  0.1148 -0.0493 -0.1462
 2801TIP3    H129818   5.664   0.000  16.661  0.2027 -1.1490  0.4563
 2801TIP3    H229819   5.548  -0.082  16.713 -1.4608 -0.2972 -1.7478
 2802TIP3   OH229820   5.295   5.361  13.955 -0.4297 -0.2119  0.0957
 2802TIP3    H129821   5.340   5.353  14.039  0.6270 -3.1440 -0.6413
 2802TIP3    H229822   5.274   5.271  13.930 -4.3246  0.7735 -0.9458
 2803TIP3   OH229823   0.745   0.955  11.242 -0.4699  0.4344  0.1649
 2803TIP3    H129824   0.745   1.042  11.201  0.0721  0.0959 -0.5666
 2803TIP3    H229825   0.829   0.949  11.286  0.3602 -0.4803 -1.4630
 2804TIP3   OH229826   0.398   1.367  14.685 -0.2106 -0.5943  0.2668
 2804TIP3    H129827   0.343   1.400  14.615 -0.6062 -0.6413  0.5511
 2804TIP3    H229828   0.435   1.445  14.725 -1.4706 -0.4391  1.2055
 2805TIP3   OH229829   0.506   0.331   0.040 -0.5041 -0.0405  0.7405
 2805TIP3    H129830   0.532   0.257   0.094 -0.3123 -0.7770 -0.3389
 2805TIP3    H229831   0.418   0.309   0.009 -0.3394  0.0504  0.2002
 2806TIP3   OH229832   3.716   6.408   0.997 -0.6252  0.4033 -0.6042
 2806TIP3    H129833   3.712   6.312   0.991 -1.3054  0.3745  0.1318
 2806TIP3    H229834   3.809   6.427   1.010 -0.5640 -0.2054 -0.0805
 2807TIP3   OH229835   5.912   1.399  11.236 -0.2906  0.2179  0.2155
 2807TIP3    H129836   5.878   1.453  11.307  1.8168  1.7959  0.1329
 2807TIP3    H229837   5.916   1.459  11.161  0.5772 -0.4777 -0.3188
 2808TIP3   OH229838   0.103   4.562  12.220  0.7671 -0.3069  0.5362
 2808TIP3    H129839   0.053   4.559  12.302 -0.1473  0.2219  0.0186
 2808TIP3    H229840   0.137   4.652  12.217  0.1245 -0.0694 -0.0321
 2809TIP3   OH229841   3.100   5.217   5.508 -0.0115  0.1143  0.9615
 2809TIP3    H129842   3.142   5.303   5.504 -0.8658  0.4992 -1.2607
 2809TIP3    H229843   3.008   5.235   5.488 -0.5628 -1.1356  2.2498
 2810TIP3   OH229844   4.613   1.646   2.939 -0.2888 -0.1420  0.0458
 2810TIP3    H129845   4.573   1.733   2.942  3.8955  2.0112  0.9479
 2810TIP3    H229846   4.603   1.618   2.848  1.4108  3.0753 -1.2882
 2811TIP3   OH229847   6.233   6.208   0.877 -0.2084  0.0981 -0.4455
 2811TIP3    H129848   6.266   6.192   0.965 -0.9508 -3.5647 -0.6765
 2811TIP3    H229849   6.183   6.289   0.884  1.4133  0.9961  1.9675
 2812TIP3   OH229850   1.452   3.913  13.128  0.2663 -0.0709  0.1906
 2812TIP3    H129851   1.464   4.004  13.100  0.3494 -0.2052 -0.2314
 2812TIP3    H229852   1.440   3.917  13.222 -0.9196  0.4937  0.0356
 2813TIP3   OH229853   3.723   5.650  14.446  0.7302 -1.1239 -0.4069
 2813TIP3    H129854   3.749   5.578  14.387  0.1952 -1.1446 -0.6225
 2813TIP3    H229855   3.798   5.662  14.503  0.5825 -2.3124  0.0710
 2814TIP3   OH229856   2.924   1.670   3.738 -0.0052  0.2106  0.2821
 2814TIP3    H129857   2.940   1.576   3.734  0.7825  0.3487  0.1398
 2814TIP3    H229858   2.837   1.678   3.778 -0.0913 -0.5757  0.2542
 2815TIP3   OH229859   4.878   1.213  12.797 -0.2036  0.4490 -0.2001
 2815TIP3    H129860   4.864   1.303  12.768 -0.6289  0.6987  0.7508
 2815TIP3    H229861   4.952   1.182  12.745  0.5738  1.6698  0.1627
 2816TIP3   OH229862   4.632   1.098  11.932 -0.0332 -0.2107 -0.3477
 2816TIP3    H129863   4.610   1.162  11.865 -0.8010 -2.1842 -2.0899
 2816TIP3    H229864   4.726   1.082  11.920 -0.1846 -0.6208 -1.0482
 2817TIP3   OH229865   4.752   0.401  15.201 -0.1372 -0.3781 -0.4740
 2817TIP3    H129866   4.836   0.409  15.157  1.2504  1.1943  2.2040
 2817TIP3    H229867   4.690   0.444  15.142  0.9594 -1.1775 -2.2987
 2818TIP3   OH229868   6.089   2.352   1.926 -0.7937 -0.1673 -0.0594
 2818TIP3    H129869   6.182   2.333   1.913 -0.6308 -0.7564  1.7741
 2818TIP3    H229870   6.044   2.273   1.897 -0.5890 -0.5909  0.7549
 2819TIP3   OH229871   6.706   6.451   1.357 -0.2042 -0.4334 -0.3368
 2819TIP3    H129872   6.706   6.546   1.343  1.8613 -0.4695 -0.8121
 2819TIP3    H229873   6.746   6.415   1.278 -0.2718 -1.6554  0.1731
 2820TIP3   OH229874   4.096   0.036  14.848  0.6342 -0.1643  0.5647
 2820TIP3    H129875   4.157   0.106  14.824  0.9252  0.0179  1.7963
 2820TIP3    H229876   4.031   0.037  14.778  0.7608  1.1889  0.4320
 2821TIP3   OH229877   3.594   4.852  11.251 -0.0491 -0.4473  0.1864
 2821TIP3    H129878   3.595   4.770  11.300  0.4259 -1.6619 -1.7547
 2821TIP3    H229879   3.580   4.826  11.160 -2.1382  1.8026 -0.2439
 2822TIP3   OH229880   4.639   2.371   0.441  0.2579  0.3784 -0.2791
 2822TIP3    H129881   4.572   2.440   0.442  0.8400  0.9642 -0.4849
 2822TIP3    H229882   4.718   2.415   0.472  0.1906 -0.7041  1.5387
 2823TIP3   OH229883   6.167   5.853  15.839 -0.1793  0.2380  0.2907
 2823TIP3    H129884   6.247   5.888  15.799 -0.4200  1.6489  0.9502
 2823TIP3    H229885   6.099   5.915  15.814 -0.4080  0.9716  2.4678
 2824TIP3   OH229886   5.551   1.282   1.354  0.0602 -0.2264  0.3022
 2824TIP3    H129887   5.546   1.187   1.362 -0.3525 -0.2714 -0.4231
 2824TIP3    H229888   5.590   1.311   1.436  2.6216 -1.2281 -0.4464
 2825TIP3   OH229889   0.695   0.993   1.100 -0.0866  0.0137 -0.3656
 2825TIP3    H129890   0.668   1.037   1.020 -0.9171 -0.5611 -0.4038
 2825TIP3    H229891   0.768   0.937   1.073 -1.5354 -1.5857 -1.1252
 2826TIP3   OH229892   3.917   4.558   2.407  0.4538 -0.0021  0.0522
 2826TIP3    H129893   3.843   4.615   2.430  0.4415  0.2221 -0.5244
 2826TIP3    H229894   3.977   4.565   2.482  0.6274  1.0729 -0.1696
 2827TIP3   OH229895   1.384   0.288   2.233  0.0997 -0.0665  0.4817
 2827TIP3    H129896   1.422   0.206   2.265 -0.3907 -0.8027 -0.7226
 2827TIP3    H229897   1.440   0.357   2.268  0.3779 -0.8902  1.7352
 2828TIP3   OH229898   2.605   6.412   1.608 -0.3983 -0.3838 -0.2375
 2828TIP3    H129899   2.575   6.364   1.531 -0.8533  0.3413 -0.5227
 2828TIP3    H229900   2.526   6.430   1.658 -0.6862  2.4084 -1.4909
 2829TIP3   OH229901   1.294   0.906   0.106 -0.0736  0.0610  0.0749
 2829TIP3    H129902   1.199   0.902   0.111 -0.0216 -0.3056  1.1617
 2829TIP3    H229903   1.320   0.947   0.189  0.6816  0.7428 -0.4881
 2830TIP3   OH229904   2.326   0.560   3.364 -0.5600 -0.2859 -0.2036
 2830TIP3    H129905   2.242   0.584   3.402  0.0079  0.2887  0.7548
 2830TIP3    H229906   2.305   0.525   3.278 -1.7677 -0.1077  0.0015
 2831TIP3   OH229907   6.408   5.916  12.473  0.5466  0.5593 -0.0853
 2831TIP3    H129908   6.335   5.956  12.521  0.1514 -0.9508  0.6490
 2831TIP3    H229909   6.486   5.955  12.512  0.2981 -1.3340  2.6442
 2832TIP3   OH229910   3.070   6.711   5.619 -0.2323 -0.1689 -0.1355
 2832TIP3    H129911   3.026   6.641   5.570  0.4839 -0.4464 -0.3963
 2832TIP3    H229912   3.163   6.692   5.610 -0.0650  0.1110  0.8476
 2833TIP3   OH229913   1.851   1.459  10.784  0.2770  0.3891  0.2472
 2833TIP3    H129914   1.813   1.408  10.712  2.4193 -0.1900 -0.5502
 2833TIP3    H229915   1.779   1.513  10.815 -0.6492  1.0240 -2.6711
 2834TIP3   OH229916   4.716   4.909   5.371 -0.0185 -0.2241  0.0604
 2834TIP3    H129917   4.627   4.875   5.374  0.3365 -1.2890 -0.6388
 2834TIP3    H229918   4.732   4.943   5.459 -0.2065 -2.4769  1.0564
 2835TIP3   OH229919   1.537   0.662   4.892  0.3976  0.1828 -0.2663
 2835TIP3    H129920   1.590   0.732   4.853 -1.0217 -0.2407 -3.1986
 2835TIP3    H229921   1.594   0.624   4.958  2.8506  1.3374 -1.5674
 2836TIP3   OH229922   0.717   5.863   4.619  0.2206  0.0102 -0.0469
 2836TIP3    H129923   0.716   5.796   4.550  1.1728  0.4096 -0.4700
 2836TIP3    H229924   0.810   5.876   4.639 -0.0491 -0.2470  1.4762
 2837TIP3   OH229925   5.389   5.295  15.485 -0.2125 -0.1197 -0.1874
 2837TIP3    H129926   5.357   5.262  15.569 -0.6886 -0.0343 -0.3360
 2837TIP3    H229927   5.313   5.336  15.444 -0.1439 -0.6968 -0.9273
 2838TIP3   OH229928   0.882   2.776   2.456  0.1058  0.5036 -0.4268
 2838TIP3    H129929   0.919   2.743   2.374 -1.2173  0.3563 -1.0052
 2838TIP3    H229930   0.791   2.798   2.433 -0.0315  1.2873  0.7940
 2839TIP3   OH229931   0.029   1.785  15.551 -0.0597 -0.0711 -0.8598
 2839TIP3    H129932   0.028   1.875  15.583 -1.2433 -0.2122 -0.4260
 2839TIP3    H229933   0.118   1.771  15.520  0.3531  0.9908 -0.2109
 2840TIP3   OH229934   1.282   0.377  15.697  0.1439 -0.0208  0.3839
 2840TIP3    H129935   1.317   0.401  15.612  0.3970 -0.2078  0.4358
 2840TIP3    H229936   1.269   0.282  15.692 -1.7677  0.2267 -0.1663
 2841TIP3   OH229937   4.020   5.421  13.279  0.3562  0.2272  0.3184
 2841TIP3    H129938   4.044   5.508  13.310  1.1713 -0.8052  2.8344
 2841TIP3    H229939   4.094   5.393  13.226  0.2525  0.8832 -0.1906
 2842TIP3   OH229940   4.508   1.588   0.984  0.3980 -0.3266 -0.2795
 2842TIP3    H129941   4.584   1.532   0.967  0.1786 -0.9718  0.7815
 2842TIP3    H229942   4.488   1.575   1.077 -0.4903  0.4920 -0.3329
 2843TIP3   OH229943   5.010   1.590   2.617 -0.5167  0.2920 -0.2423
 2843TIP3    H129944   4.923   1.620   2.589 -1.1382 -0.3145  0.9896
 2843TIP3    H229945   4.994   1.506   2.659  0.4604  0.8282  1.2908
 2844TIP3   OH229946   6.758   5.358  15.189  0.0086  0.5805  0.0462
 2844TIP3    H129947   6.680   5.385  15.238 -0.1374  0.0902  0.0908
 2844TIP3    H229948   6.735   5.375  15.097  0.0335  0.8900  0.0972
 2845TIP3   OH229949   5.265   2.241   3.227 -0.7384 -0.8127 -0.4314
 2845TIP3    H129950   5.220   2.280   3.302  0.2360  0.7133 -0.5864
 2845TIP3    H229951   5.356   2.230   3.257 -0.1256  0.6226 -1.6216
 2846TIP3   OH229952   2.219   1.530   4.245  0.4869 -0.1149  0.2436
 2846TIP3    H129953   2.227   1.569   4.158 -1.1960 -0.7158 -0.2218
 2846TIP3    H229954   2.174   1.596   4.297 -0.0328 -0.4099  0.1743
 2847TIP3   OH229955   1.096   0.531  15.379  0.3486  0.0487  0.1653
 2847TIP3    H129956   1.047   0.559  15.301  2.2229  1.1685 -0.6788
 2847TIP3    H229957   1.087   0.436  15.380 -1.2114  0.1561 -0.3556
 2848TIP3   OH229958   0.434   5.781   3.589  0.4104  0.1909 -0.0602
 2848TIP3    H129959   0.383   5.790   3.669  1.2461  0.3508  0.4649
 2848TIP3    H229960   0.435   5.869   3.551  1.6144  0.5598  0.7643
 2849TIP3   OH229961   0.391   6.529  12.738  0.1011  0.2729 -0.1168
 2849TIP3    H129962   0.449   6.595  12.777 -0.2891  0.4032  0.2546
 2849TIP3    H229963   0.334   6.579  12.680  1.1143 -0.0029 -1.4074
 2850TIP3   OH229964   4.671   1.849  16.437  0.1268  0.1968 -0.2190
 2850TIP3    H129965   4.592   1.889  16.475  0.2544  0.8934 -0.6712
 2850TIP3    H229966   4.683   1.768  16.487  0.1173  0.9292  1.0162
 2851TIP3   OH229967   2.532   5.548  12.566 -0.3598 -0.1770  0.5844
 2851TIP3    H129968   2.570   5.607  12.501 -2.6014 -0.0310 -0.7030
 2851TIP3    H229969   2.457   5.596  12.601 -1.5597 -1.7656  0.3282
 2852TIP3   OH229970   0.630   2.316  12.175 -0.6579 -0.0115 -0.4002
 2852TIP3    H129971   0.562   2.301  12.240  1.0816 -0.7108  1.3615
 2852TIP3    H229972   0.712   2.291  12.219  0.5693 -1.0545 -3.0342
 2853TIP3   OH229973   0.748   5.340  16.516 -0.7602  0.5422 -0.5269
 2853TIP3    H129974   0.768   5.339  16.422  2.1386 -0.6701  0.0115
 2853TIP3    H229975   0.778   5.426  16.546  1.4879 -0.2890 -0.2010
 2854TIP3   OH229976   6.424   0.950  11.733 -0.2854  0.2825  0.0739
 2854TIP3    H129977   6.349   1.007  11.750  0.4087  1.1079  0.4554
 2854TIP3    H229978   6.461   0.984  11.650  1.9262  2.4531  1.7728
 2855TIP3   OH229979   6.351   2.972   5.137  0.5527  0.8399 -0.0630
 2855TIP3    H129980   6.437   2.949   5.171  0.0954 -0.2297  0.4333
 2855TIP3    H229981   6.368   3.018   5.055  1.6637  2.6460  1.1048
 2856TIP3   OH229982   2.405   5.901  13.334 -0.1963 -0.6834  0.0781
 2856TIP3    H129983   2.402   5.807  13.316  0.1798 -0.6824  0.0027
 2856TIP3    H229984   2.314   5.929  13.331 -0.3200 -1.0659  0.2029
 2857TIP3   OH229985   0.687   5.525   3.795  0.0746 -0.4554  0.6091
 2857TIP3    H129986   0.764   5.507   3.849  1.5852  0.1211 -1.2196
 2857TIP3    H229987   0.659   5.612   3.822  0.3247 -0.4897  0.9922
 2858TIP3   OH229988   6.406   5.222   1.708  0.6339  1.1026 -0.1503
 2858TIP3    H129989   6.449   5.158   1.765 -0.5121 -2.0159 -2.4873
 2858TIP3    H229990   6.343   5.267   1.764  0.7262 -0.6272  1.4166
 2859TIP3   OH229991   2.099   1.926  11.623 -0.1705 -0.4110  0.0185
 2859TIP3    H129992   2.064   1.951  11.538  2.2943  0.2717 -0.8980
 2859TIP3    H229993   2.141   2.005  11.657 -0.2460 -0.9367  1.4281
 2860TIP3   OH229994   5.049   0.482   3.919  0.8432  0.1597 -0.1334
 2860TIP3    H129995   5.109   0.416   3.883  1.4893  1.5551 -1.7805
 2860TIP3    H229996   5.104   0.558   3.936 -0.1296  0.7945  0.2938
 2861TIP3   OH229997   4.384   4.436  15.515  0.3478 -0.6250 -0.3605
 2861TIP3    H129998   4.428   4.445  15.599 -2.0487  0.3001  0.8894
 2861TIP3    H229999   4.334   4.517  15.505  1.5998 -0.0956 -3.3759
 2862TIP3   OH230000   3.889   1.353  11.345 -1.0002  0.2582  0.2036
 2862TIP3    H130001   3.818   1.416  11.362 -1.4753 -0.3168  0.3884
 2862TIP3    H230002   3.943   1.355  11.424 -0.8950  0.5850  0.1245
 2863TIP3   OH230003   5.581   5.852  11.223 -0.8689 -0.2731  0.3002
 2863TIP3    H130004   5.583   5.785  11.155 -0.2120 -0.6818  0.6976
 2863TIP3    H230005   5.577   5.935  11.176 -0.9615 -0.5680 -0.2166
 2864TIP3   OH230006   6.290   5.918  10.956 -0.1310 -0.5143 -0.8631
 2864TIP3    H130007   6.250   5.875  10.881 -2.2524 -0.3386  0.1006
 2864TIP3    H230008   6.363   5.968  10.919 -0.6046 -1.0855 -2.6700
 2865TIP3   OH230009   3.694   5.677  12.342 -0.0127 -0.4404 -0.0126
 2865TIP3    H130010   3.619   5.633  12.302  0.3885  0.5811 -2.0078
 2865TIP3    H230011   3.659   5.761  12.370  0.0649 -0.5534  0.4306
 2866TIP3   OH230012   6.754   5.944  17.193  0.2486 -0.0703  0.3162
 2866TIP3    H130013   6.811   5.927  17.119  0.7807  1.3738  0.3597
 2866TIP3    H230014   6.709   6.026  17.171  0.7354  0.6283  1.7503
 2867TIP3   OH230015   2.399   6.029   4.585 -0.3117  0.1687  0.0860
 2867TIP3    H130016   2.373   5.992   4.501 -0.7826  1.1393 -0.2163
 2867TIP3    H230017   2.448   6.108   4.562  0.0643  0.1246  0.7147
 2868TIP3   OH230018   6.742   1.237   3.618  0.2866 -0.2153 -0.3705
 2868TIP3    H130019   6.762   1.144   3.630 -3.0722 -1.0543 -0.3191
 2868TIP3    H230020   6.775   1.257   3.531 -0.2032 -1.8806 -0.9765
 2869TIP3   OH230021   4.742   4.516  14.022  0.5279 -0.2574 -0.0504
 2869TIP3    H130022   4.783   4.439  14.061 -0.3860 -1.1984 -0.8818
 2869TIP3    H230023   4.650   4.491  14.011  0.6366  0.1584 -2.2670
 2870TIP3   OH230024   1.219   5.759  14.231 -0.2397 -0.1029 -0.1536
 2870TIP3    H130025   1.263   5.837  14.265 -2.0836  0.3908  1.2424
 2870TIP3    H230026   1.132   5.762  14.270 -0.3037 -3.0012  0.1410
 2871TIP3   OH230027   4.496   3.492  12.915  0.2386 -0.4145  0.5274
 2871TIP3    H130028   4.404   3.518  12.921 -0.0293 -1.2419  0.1999
 2871TIP3    H230029   4.530   3.502  13.004 -0.6221 -1.6597  1.0363
 2872TIP3   OH230030   0.669   6.340  15.499  0.1733 -0.1572  0.1736
 2872TIP3    H130031   0.602   6.402  15.525  0.7698  0.4574  0.2690
 2872TIP3    H230032   0.633   6.254  15.522 -1.7613 -0.1261 -2.2529
 2873TIP3   OH230033   0.471   3.810  12.512 -0.6865  0.1600  0.4725
 2873TIP3    H130034   0.390   3.773  12.478 -1.4753  0.0722  2.3688
 2873TIP3    H230035   0.539   3.747  12.486 -1.5783 -1.0331  0.9468
 2874TIP3   OH230036   5.126   4.523  12.716  0.4353 -0.2787  0.0885
 2874TIP3    H130037   5.197   4.479  12.762 -0.1130 -1.7639 -0.4075
 2874TIP3    H230038   5.072   4.560  12.786  1.1290 -0.0517  0.5089
 2875TIP3   OH230039   2.018   5.074   0.475 -0.1150 -0.7235 -0.1622
 2875TIP3    H130040   1.928   5.088   0.445 -0.2866 -3.8465 -1.4792
 2875TIP3    H230041   2.010   5.005   0.541  1.1620  0.3097  1.1360
 2876TIP3   OH230042   0.853   2.993  12.154 -0.0695 -0.2630  0.1366
 2876TIP3    H130043   0.864   2.970  12.062  1.0457  0.0764  0.1690
 2876TIP3    H230044   0.768   3.038  12.158 -0.0829 -0.1941 -0.7380
 2877TIP3   OH230045   1.028   5.973   3.671 -0.0178 -0.2660  0.0116
 2877TIP3    H130046   1.048   5.905   3.607  0.4464  0.5678 -0.7403
 2877TIP3    H230047   0.937   5.997   3.654 -0.5908 -1.5543  1.0981
 2878TIP3   OH230048   2.518   4.627   2.911 -0.3562  0.1741  0.4125
 2878TIP3    H130049   2.599   4.640   2.861  0.2306  0.3187  1.3819
 2878TIP3    H230050   2.463   4.574   2.853 -0.1675  1.3368 -0.8633
 2879TIP3   OH230051   5.643   1.398  16.195 -0.0679  0.0347  0.2347
 2879TIP3    H130052   5.552   1.370  16.182 -0.0157 -0.0606  0.0727
 2879TIP3    H230053   5.661   1.457  16.122  0.1456 -0.3070  0.0087
 2880TIP3   OH230054   4.118   1.710  15.933  0.5079  0.6064  0.1461
 2880TIP3    H130055   4.212   1.715  15.953  0.9693 -0.0458 -1.6376
 2880TIP3    H230056   4.096   1.618  15.940 -0.1264  0.8073  0.9761
 2881TIP3   OH230057   3.520   4.734   0.665 -0.0753  0.3898  0.5272
 2881TIP3    H130058   3.474   4.748   0.583 -1.0051  1.5669  1.2169
 2881TIP3    H230059   3.612   4.721   0.639 -0.4744 -0.1211 -0.7260
 2882TIP3   OH230060   2.948   3.910  15.335 -0.7908 -0.2394 -0.1210
 2882TIP3    H130061   2.974   3.826  15.373  2.0013  0.0043 -1.2103
 2882TIP3    H230062   2.984   3.976  15.395 -2.2518  0.2305  0.2930
 2883TIP3   OH230063   1.501   2.188   2.137 -0.3073 -0.2520  0.2452
 2883TIP3    H130064   1.543   2.256   2.189  1.7752  0.4397 -2.1137
 2883TIP3    H230065   1.573   2.133   2.107 -1.1974 -0.1380 -2.4340
 2884TIP3   OH230066   4.436   6.008   5.551  0.5734  0.1046 -0.4366
 2884TIP3    H130067   4.472   5.937   5.605  0.7117 -0.2032 -0.9259
 2884TIP3    H230068   4.356   5.971   5.514  0.8167  0.0779 -0.9558
 2885TIP3   OH230069   5.100   0.195  13.749 -0.7025  1.1544 -0.0465
 2885TIP3    H130070   5.080   0.243  13.829  0.3195  0.5407  0.6066
 2885TIP3    H230071   5.196   0.195  13.744 -0.7493  1.2692 -1.3297
 2886TIP3   OH230072   2.692   2.817  12.247 -0.0100 -0.4820 -0.1512
 2886TIP3    H130073   2.628   2.766  12.296 -1.5132  0.3173 -1.2104
 2886TIP3    H230074   2.768   2.822  12.306 -0.8153 -1.6467  1.0489
 2887TIP3   OH230075   0.214   2.625   2.492 -0.1116  0.0369 -0.5612
 2887TIP3    H130076   0.302   2.595   2.514  0.3589  0.9499 -1.0878
 2887TIP3    H230077   0.228   2.712   2.453 -1.4374  1.3028  1.5844
 2888TIP3   OH230078   5.362   3.519  12.910  0.2268  0.0590 -0.1999
 2888TIP3    H130079   5.380   3.443  12.966 -2.1155  0.2426  0.9572
 2888TIP3    H230080   5.378   3.489  12.821  1.4368 -1.0950  0.3835
 2889TIP3   OH230081   2.115   0.242  17.168  0.2870 -0.0819  0.0200
 2889TIP3    H130082   2.126   0.317  17.111  0.3396 -1.0556 -1.2886
 2889TIP3    H230083   2.204   0.217  17.194  0.1939  1.3379  1.9002
 2890TIP3   OH230084   0.802   1.109  12.348  0.5676  0.0993  0.3544
 2890TIP3    H130085   0.897   1.105  12.358  0.5387  0.7328  0.9840
 2890TIP3    H230086   0.783   1.202  12.340  0.0534 -0.0655 -0.4174
 2891TIP3   OH230087   1.467   2.036   5.171 -0.3366 -0.3511 -0.6173
 2891TIP3    H130088   1.524   1.959   5.175 -1.2882 -1.0267  1.9434
 2891TIP3    H230089   1.492   2.080   5.090  2.8411 -1.3499 -0.3122
 2892TIP3   OH230090   6.197   5.658  16.022  0.0656 -0.4159  0.3477
 2892TIP3    H130091   6.202   5.735  15.965  0.2381 -0.5610  0.1672
 2892TIP3    H230092   6.233   5.587  15.969  0.4581 -0.4989  0.7285
 2893TIP3   OH230093   0.669   0.049  14.196  0.0487  0.0287  0.5239
 2893TIP3    H130094   0.709   0.097  14.268  0.6796 -0.8148  0.7515
 2893TIP3    H230095   0.576   0.045  14.219 -0.1865  1.8583  0.0693
 2894TIP3   OH230096   5.764   2.394   1.954 -0.1545  0.5183  0.1050
 2894TIP3    H130097   5.717   2.401   1.871  0.4815  1.5004 -0.1845
 2894TIP3    H230098   5.733   2.468   2.006  1.2618  1.3434 -0.1973
 2895TIP3   OH230099   2.666   5.480   0.116  0.4193  0.2441  0.5583
 2895TIP3    H130100   2.591   5.472   0.176 -3.0493 -0.6509 -3.4195
 2895TIP3    H230101   2.714   5.398   0.127 -2.1591 -1.4795 -0.1851
 2896TIP3   OH230102   6.465   6.555  12.960 -0.4009 -0.0804  0.4105
 2896TIP3    H130103   6.542   6.600  12.925  1.2456 -1.7886  1.6172
 2896TIP3    H230104   6.480   6.463  12.938 -1.9436 -0.4833  0.9598
 2897TIP3   OH230105   4.956   5.997  11.789  0.0095 -0.0448  0.3037
 2897TIP3    H130106   5.010   6.072  11.815  0.2049 -0.6541  1.7209
 2897TIP3    H230107   4.874   6.008  11.837 -1.0890  0.7156 -1.6103
 2898TIP3   OH230108   0.930   2.363   2.076 -0.0961  0.2559 -0.2025
 2898TIP3    H130109   1.017   2.396   2.053 -0.2446  0.4772 -0.4592
 2898TIP3    H230110   0.885   2.354   1.992  0.1547 -1.2315 -0.2011
 2899TIP3   OH230111   5.898   5.931   2.732  0.7795 -0.7368 -0.4189
 2899TIP3    H130112   5.985   5.967   2.750  0.2969  0.0649  0.3395
 2899TIP3    H230113   5.850   5.943   2.813 -0.1087 -0.9926 -0.9019
 2900TIP3   OH230114   3.213   6.588  11.627 -0.4247 -0.3340  0.1956
 2900TIP3    H130115   3.281   6.652  11.645 -1.0334  0.3511  0.1221
 2900TIP3    H230116   3.183   6.559  11.714 -0.1526 -0.5178  0.2285
 2901TIP3   OH230117   6.511   1.347  11.337 -0.0653  0.2547  0.1810
 2901TIP3    H130118   6.477   1.413  11.277 -0.6267  0.1359  0.3606
 2901TIP3    H230119   6.478   1.264  11.301  1.1757  0.0050 -0.4156
 2902TIP3   OH230120   2.645   6.404   2.858 -0.5267 -0.3552  0.1090
 2902TIP3    H130121   2.698   6.480   2.883  0.1492 -0.7249 -0.1752
 2902TIP3    H230122   2.596   6.382   2.937 -0.7877  0.4189  0.1734
 2903TIP3   OH230123   5.053   1.033   4.945  0.1030  0.3604  0.1142
 2903TIP3    H130124   5.112   1.104   4.919 -0.8919  1.0181 -0.4141
 2903TIP3    H230125   5.014   1.063   5.027  1.3088 -0.5699  1.0596
 2904TIP3   OH230126   4.439   1.292  16.668 -0.0966 -0.1029  0.0934
 2904TIP3    H130127   4.443   1.265  16.759 -1.4926  1.8840  0.8157
 2904TIP3    H230128   4.382   1.369  16.668 -0.7261 -0.4582 -2.5590
 2905TIP3   OH230129   3.099   0.789  11.811  0.4106  0.5327  0.3353
 2905TIP3    H130130   3.031   0.771  11.746  1.5586  0.9123 -1.0369
 2905TIP3    H230131   3.057   0.774  11.895 -0.5930 -1.8857 -0.5253
 2906TIP3   OH230132   4.789   0.540  14.554  0.0646 -0.5672  0.2361
 2906TIP3    H130133   4.811   0.470  14.615  1.9715  1.0355  1.4929
 2906TIP3    H230134   4.873   0.579  14.530 -0.9557  1.8449  0.2783
 2907TIP3   OH230135   4.677   5.937  10.896 -0.2191 -0.5400 -0.0205
 2907TIP3    H130136   4.641   5.853  10.926  2.2667 -0.9909  2.0524
 2907TIP3    H230137   4.617   6.002  10.930 -1.9292 -1.3856 -1.2496
 2908TIP3   OH230138   4.178   4.571  16.648  0.3781  0.0181 -0.4441
 2908TIP3    H130139   4.244   4.634  16.620 -1.1476  1.2167 -1.4377
 2908TIP3    H230140   4.172   4.583  16.743  3.5070 -2.0675  0.1720
 2909TIP3   OH230141   4.043   0.576   4.730 -0.3337 -0.2016  0.3882
 2909TIP3    H130142   4.128   0.532   4.726 -0.6489 -0.9162  1.2451
 2909TIP3    H230143   3.980   0.509   4.701 -0.6325  0.2453 -0.0051
 2910TIP3   OH230144   3.523   3.921  14.782 -0.5282  0.5258 -0.6655
 2910TIP3    H130145   3.449   3.916  14.722 -0.4846 -0.1606 -0.6616
 2910TIP3    H230146   3.522   3.839  14.830 -0.4421  0.9821  0.1462
 2911TIP3   OH230147   4.374   3.025  16.848 -0.4289 -0.0411 -1.0065
 2911TIP3    H130148   4.358   3.115  16.819  1.1293 -0.0523 -1.9827
 2911TIP3    H230149   4.337   2.971  16.778 -2.2059 -0.2132  0.0180
 2912TIP3   OH230150   0.332   5.334   1.802 -0.0311 -0.1173  0.1986
 2912TIP3    H130151   0.420   5.300   1.818 -0.5203 -1.5055  0.0704
 2912TIP3    H230152   0.327   5.344   1.707  0.2700  0.7764  0.2727
 2913TIP3   OH230153   4.416   1.459  17.219 -0.7562  0.7290 -0.1649
 2913TIP3    H130154   4.421   1.432  17.311 -0.0125 -1.5655 -0.8136
 2913TIP3    H230155   4.503   1.497  17.201 -0.1785 -0.6696 -0.4196
 2914TIP3   OH230156   2.700   2.206  14.064  0.0766 -0.6442  0.2714
 2914TIP3    H130157   2.717   2.137  14.000  1.5490  2.1265 -2.5710
 2914TIP3    H230158   2.787   2.235  14.092 -0.4100  1.1700  0.0436
 2915TIP3   OH230159   3.342   2.801  12.267  0.4644  0.5718 -0.5096
 2915TIP3    H130160   3.397   2.878  12.254 -0.7375  1.7095  0.7337
 2915TIP3    H230161   3.301   2.815  12.353  1.2780 -2.1590  0.4269
 2916TIP3   OH230162   5.799   0.736  17.067 -0.3882 -0.8802 -0.4951
 2916TIP3    H130163   5.775   0.651  17.031 -2.3582 -0.2628 -0.7811
 2916TIP3    H230164   5.715   0.780  17.083  0.5386  0.5127  0.8669
 2917TIP3   OH230165   2.260   6.382   5.457 -0.0754 -0.2015 -0.4634
 2917TIP3    H130166   2.304   6.300   5.478 -1.0567 -0.9475 -1.1950
 2917TIP3    H230167   2.319   6.426   5.396  0.1138 -0.7397 -0.6800
 2918TIP3   OH230168   1.846   0.423  12.481  0.0636  0.3039 -0.4173
 2918TIP3    H130169   1.896   0.482  12.425 -0.4632  1.9588  0.7522
 2918TIP3    H230170   1.889   0.431  12.567 -0.9285  0.1623  0.1058
 2919TIP3   OH230171   0.338   4.192  12.741 -0.0977 -0.3115  0.0895
 2919TIP3    H130172   0.348   4.097  12.745 -0.9196 -0.4773 -1.3061
 2919TIP3    H230173   0.269   4.212  12.803  1.5146 -0.3404  1.9943
 2920TIP3   OH230174   5.931   4.780  15.509  0.1744  0.2210  0.2058
 2920TIP3    H130175   5.918   4.780  15.603 -0.1486  1.4796  0.1774
 2920TIP3    H230176   5.898   4.695  15.480  0.4747 -0.2597  1.2408
 2921TIP3   OH230177   0.433   0.486   3.993 -0.1003  0.1422  0.5231
 2921TIP3    H130178   0.528   0.493   4.006 -0.1365 -0.1101  0.9355
 2921TIP3    H230179   0.410   0.400   4.028 -0.4677  0.1606  0.3335
 2922TIP3   OH230180   2.813   0.727   1.348  0.6759 -0.2958  0.6994
 2922TIP3    H130181   2.883   0.688   1.400  1.7593 -2.0490 -1.8564
 2922TIP3    H230182   2.854   0.744   1.263 -1.7688 -0.4678 -0.5799
 2923TIP3   OH230183   4.698   4.096  12.610  0.4036 -0.1865 -0.0716
 2923TIP3    H130184   4.691   4.053  12.525  3.5473 -2.2264  0.5250
 2923TIP3    H230185   4.750   4.174  12.593  3.5579 -2.0674  0.2351
 2924TIP3   OH230186   2.518   3.936  14.229  0.2885 -0.1475  1.0332
 2924TIP3    H130187   2.430   3.907  14.206  0.1980  1.9651 -1.7786
 2924TIP3    H230188   2.505   4.017  14.278  0.6430  0.4227  0.2036
 2925TIP3   OH230189   4.469   1.342   4.450  0.2813 -0.4119  0.2098
 2925TIP3    H130190   4.389   1.381   4.483  0.2300  0.3438 -0.7532
 2925TIP3    H230191   4.440   1.274   4.389  0.3586 -0.2398 -0.0246
 2926TIP3   OH230192   2.078   1.799  13.896  0.2062  0.1857  0.1699
 2926TIP3    H130193   2.015   1.742  13.853  0.6240  0.5721 -1.0150
 2926TIP3    H230194   2.028   1.845  13.963 -0.4613 -0.4615  0.1258
 2927TIP3   OH230195   5.794   5.066  12.228 -0.6078  0.5007 -0.0395
 2927TIP3    H130196   5.841   5.129  12.283 -2.2428  0.2198  1.7998
 2927TIP3    H230197   5.713   5.112  12.203 -1.8405 -0.7947  1.3596
 2928TIP3   OH230198   1.819   5.502  11.771  0.4786  0.5732 -0.3314
 2928TIP3    H130199   1.810   5.410  11.746 -1.7506  0.9583 -1.2329
 2928TIP3    H230200   1.852   5.545  11.691 -2.1209  1.0713 -1.2376
 2929TIP3   OH230201   1.358   4.238   4.228  0.7312 -0.7323  0.2298
 2929TIP3    H130202   1.273   4.229   4.271  1.0988 -1.2260  0.8761
 2929TIP3    H230203   1.411   4.287   4.291  0.9859 -0.6054 -0.0816
 2930TIP3   OH230204   2.406   2.175   4.292  0.2976 -0.0454  0.0029
 2930TIP3    H130205   2.418   2.080   4.288  1.2832  0.0429  0.4730
 2930TIP3    H230206   2.494   2.211   4.278 -0.2572  0.8483 -1.4624
 2931TIP3   OH230207   4.084   5.887   5.455  0.0912  0.3545  0.7066
 2931TIP3    H130208   4.085   5.957   5.389  1.0501  1.3665  1.7272
 2931TIP3    H230209   4.119   5.811   5.410 -2.2971  0.0770 -0.8461
 2932TIP3   OH230210   4.050   3.965  14.796  0.3515 -0.2040  0.6121
 2932TIP3    H130211   3.957   3.957  14.814  0.3058  1.3155  1.1777
 2932TIP3    H230212   4.067   4.059  14.797  1.3379 -0.2509 -2.3735
 2933TIP3   OH230213   1.311   4.455   3.400 -0.0861 -0.5347  0.0066
 2933TIP3    H130214   1.319   4.450   3.495  0.2348 -0.9271 -0.0375
 2933TIP3    H230215   1.233   4.403   3.380  0.0408 -0.7369  0.0295
 2934TIP3   OH230216   2.471   0.031  12.857  0.1724 -0.7841  0.1025
 2934TIP3    H130217   2.384   0.048  12.821 -0.9232  1.2163  3.2200
 2934TIP3    H230218   2.453   0.000  12.946  2.5144  3.2460  2.2355
 2935TIP3   OH230219   3.314   4.849  13.036 -0.6196  0.4939 -0.0208
 2935TIP3    H130220   3.262   4.781  12.993  0.0276  1.0211 -1.7342
 2935TIP3    H230221   3.336   4.909  12.965 -0.4120  2.0115  1.2901
 2936TIP3   OH230222   1.958   1.887  16.701 -0.3896  0.4245  0.5637
 2936TIP3    H130223   1.869   1.923  16.698 -0.7512 -0.4654  0.0604
 2936TIP3    H230224   1.946   1.793  16.687  0.6392  0.2977  0.4323
 2937TIP3   OH230225   6.065   2.346   1.060 -0.4668 -0.4358 -0.0219
 2937TIP3    H130226   6.061   2.294   1.140  0.8753 -0.3108  0.1460
 2937TIP3    H230227   6.155   2.335   1.028  0.3424  2.8064  0.7427
 2938TIP3   OH230228   0.523   1.561  14.017 -0.0807  0.0387  0.1048
 2938TIP3    H130229   0.451   1.499  14.023 -0.7467  0.7040 -0.7680
 2938TIP3    H230230   0.484   1.640  13.979  0.9641  0.6452  0.2408
 2939TIP3   OH230231   5.249   6.553   4.253  0.4530  0.0330 -0.3263
 2939TIP3    H130232   5.169   6.512   4.223 -0.0516 -0.3858  1.4470
 2939TIP3    H230233   5.227   6.646   4.262  0.1705 -0.0730  0.1060
 2940TIP3   OH230234   1.166   5.074  11.917 -0.2292 -0.3377  0.2354
 2940TIP3    H130235   1.159   5.143  11.982 -0.4426 -1.3089  1.2613
 2940TIP3    H230236   1.179   4.993  11.967  1.5712 -0.8739 -0.9747
 2941TIP3   OH230237   1.219   2.447   3.903 -0.3123  0.5495 -0.8012
 2941TIP3    H130238   1.206   2.481   3.991  0.6715 -2.4183  0.6442
 2941TIP3    H230239   1.131   2.420   3.875 -0.3667 -0.3324  0.1518
 2942TIP3   OH230240   0.780   0.202  12.395  0.5464  0.9662  0.3847
 2942TIP3    H130241   0.750   0.196  12.304  1.0739 -0.5886  0.2907
 2942TIP3    H230242   0.734   0.278  12.430  1.1697  2.3093 -1.4914
 2943TIP3   OH230243   5.365   2.874  11.381 -0.1086 -0.3901 -0.4038
 2943TIP3    H130244   5.435   2.902  11.323 -0.9112 -1.7673 -2.1417
 2943TIP3    H230245   5.305   2.949  11.384  0.2828 -0.0542 -0.7980
 2944TIP3   OH230246   5.850   4.542  12.644 -0.4997 -0.3804  0.3569
 2944TIP3    H130247   5.820   4.516  12.557  0.2967  0.9809 -0.3583
 2944TIP3    H230248   5.921   4.480  12.664  0.7278  0.5705 -0.9019
 2945TIP3   OH230249   2.536   0.138   4.905  0.3975  0.7227  0.7121
 2945TIP3    H130250   2.628   0.128   4.929  0.7684 -3.7386 -1.5277
 2945TIP3    H230251   2.535   0.208   4.841  2.4025  0.4072  0.2876
 2946TIP3   OH230252   6.218   6.571   5.458 -0.1860  0.2900  0.1838
 2946TIP3    H130253   6.207   6.594   5.550  1.9951  0.2812  0.4880
 2946TIP3    H230254   6.312   6.554   5.448 -0.5297 -0.7661 -1.8021
 2947TIP3   OH230255   3.484   4.525   2.274 -0.4137 -0.3579  0.4468
 2947TIP3    H130256   3.413   4.493   2.329 -1.7212 -0.5155 -1.2401
 2947TIP3    H230257   3.527   4.446   2.241 -0.7552 -0.3079 -0.1314
 2948TIP3   OH230258   4.991   5.592  15.245 -0.1027 -0.3661 -0.0979
 2948TIP3    H130259   5.040   5.636  15.176 -0.3259  0.0599  0.0089
 2948TIP3    H230260   4.915   5.648  15.260 -0.1635 -0.5617  0.3480
 2949TIP3   OH230261   4.286   3.772   0.232  0.1446 -0.0552  0.7635
 2949TIP3    H130262   4.226   3.709   0.192  0.3498  0.2416 -0.0337
 2949TIP3    H230263   4.230   3.842   0.265 -0.0435 -0.4114  1.2174
 2950TIP3   OH230264   2.640   1.630  11.861  0.2894  0.0866  0.5215
 2950TIP3    H130265   2.574   1.666  11.921 -0.7414 -3.4109  1.7092
 2950TIP3    H230266   2.718   1.620  11.916  0.2289 -0.4831  0.5034
 2951TIP3   OH230267   2.351   0.653  13.137  0.3021 -0.1150  0.0292
 2951TIP3    H130268   2.439   0.660  13.099  1.0375  2.2790  1.8865
 2951TIP3    H230269   2.308   0.735  13.113 -1.3499 -1.0773 -0.5064
 2952TIP3   OH230270   3.668   6.052   3.432  0.1022  0.7398  0.2421
 2952TIP3    H130271   3.667   6.080   3.340  0.5445  1.4283  0.4422
 2952TIP3    H230272   3.712   6.123   3.478  0.4112  0.1261  0.9079
 2953TIP3   OH230273   1.492   0.496  16.879 -0.1637  0.0645 -0.4003
 2953TIP3    H130274   1.448   0.495  16.794 -0.8309  0.7388 -0.0730
 2953TIP3    H230275   1.435   0.444  16.937  1.2755 -2.1140 -0.8079
 2954TIP3   OH230276   5.987   1.314   3.618 -0.0436  0.3434  0.4987
 2954TIP3    H130277   5.917   1.288   3.557 -0.3817 -0.7245  1.3144
 2954TIP3    H230278   5.941   1.361   3.688 -0.0700 -1.0228  1.4243
 2955TIP3   OH230279   6.586   5.209  14.687  0.5771  0.4036 -0.0555
 2955TIP3    H130280   6.582   5.187  14.594 -0.2650  0.7109 -0.0997
 2955TIP3    H230281   6.629   5.295  14.689  1.9061 -0.2238 -0.0366
 2956TIP3   OH230282   2.342   4.749   4.287  0.0548 -0.2208 -1.0134
 2956TIP3    H130283   2.365   4.738   4.380  1.5327 -2.3790 -1.5642
 2956TIP3    H230284   2.256   4.707   4.280  0.2633 -0.6998 -0.7569
 2957TIP3   OH230285   2.902   2.310  15.601 -0.3539  0.1331  0.4776
 2957TIP3    H130286   2.888   2.399  15.634 -1.7155  0.0654  0.1559
 2957TIP3    H230287   2.860   2.253  15.667 -0.9851 -0.1448 -0.1448
 2958TIP3   OH230288   4.312   0.775  16.843  0.7068  0.3764  0.0277
 2958TIP3    H130289   4.344   0.847  16.898  1.9916  0.8899 -1.3555
 2958TIP3    H230290   4.305   0.701  16.904 -0.8845  1.6643  1.5427
 2959TIP3   OH230291   3.342   0.284  11.280 -0.2756 -0.0563  0.1962
 2959TIP3    H130292   3.287   0.207  11.263  0.3944 -0.3158 -0.8566
 2959TIP3    H230293   3.368   0.315  11.194  0.4869  0.6236  0.6516
 2960TIP3   OH230294   1.020   0.058  12.477 -0.0947 -0.0263 -0.5231
 2960TIP3    H130295   0.941   0.111  12.474  1.3316  2.2342 -0.3759
 2960TIP3    H230296   1.020   0.011  12.394 -1.4549  0.1043 -0.6220
 2961TIP3   OH230297   6.445   4.941  14.398  0.6886  0.3992 -1.0482
 2961TIP3    H130298   6.467   5.030  14.424  1.7428 -0.6499  2.1371
 2961TIP3    H230299   6.381   4.911  14.463 -0.7385 -0.7710 -2.8639
 2962TIP3   OH230300   4.160   2.046  12.741 -0.1247  0.1096  0.4159
 2962TIP3    H130301   4.123   2.032  12.829 -0.5186 -0.7132  0.1316
 2962TIP3    H230302   4.239   1.992  12.740  1.0449  1.7299  0.9627
 2963TIP3   OH230303   2.148   6.667  16.009 -0.2752 -0.1557 -0.1441
 2963TIP3    H130304   2.085   6.596  16.013  0.8596 -1.1554  0.6629
 2963TIP3    H230305   2.225   6.629  15.968  1.8774 -0.7341  3.8649
 2964TIP3   OH230306   2.926   5.557   3.706  0.0886  0.9393 -0.1252
 2964TIP3    H130307   2.964   5.563   3.794 -0.7262  3.6658  0.1597
 2964TIP3    H230308   2.941   5.467   3.679  1.6042  0.3830  2.2452
 2965TIP3   OH230309   2.739   2.904   5.646 -0.3617 -0.2505 -0.0158
 2965TIP3    H130310   2.816   2.948   5.681  1.4844 -3.2669  0.0839
 2965TIP3    H230311   2.671   2.921   5.711  0.1863  2.3284 -0.0006
 2966TIP3   OH230312   6.241   0.189  10.774 -0.1866  0.4440  0.1317
 2966TIP3    H130313   6.306   0.248  10.812 -0.8609  1.2586  0.0542
 2966TIP3    H230314   6.245   0.207  10.680 -0.7013  0.6859  0.1542
 2967TIP3   OH230315   3.590   4.322   2.130 -0.5001 -0.8955 -0.2440
 2967TIP3    H130316   3.575   4.291   2.040  0.7213  0.2894 -0.8879
 2967TIP3    H230317   3.672   4.371   2.125 -2.5776  2.9960  0.5648
 2968TIP3   OH230318   5.363   3.161   5.485 -0.5396 -0.4881  0.0822
 2968TIP3    H130319   5.340   3.071   5.466 -1.3884 -0.4820  1.0166
 2968TIP3    H230320   5.327   3.211   5.413  1.0158 -0.9880 -1.1051
 2969TIP3   OH230321   0.619   3.316   2.413 -0.6106  0.2078 -0.6541
 2969TIP3    H130322   0.571   3.399   2.416 -0.8634  0.0529 -0.3412
 2969TIP3    H230323   0.667   3.319   2.331  0.8616  1.4732  0.2059
 2970TIP3   OH230324   6.527   5.978  12.987 -0.2117 -0.5669  0.4664
 2970TIP3    H130325   6.575   5.946  13.063 -0.0814 -1.0351  0.1955
 2970TIP3    H230326   6.502   6.068  13.009  2.2593  0.3374 -0.0370
 2971TIP3   OH230327   5.208   5.527   1.021  0.6788 -0.1997 -0.6232
 2971TIP3    H130328   5.237   5.436   1.017  1.3591 -0.0847  1.0070
 2971TIP3    H230329   5.288   5.579   1.017  0.3706  0.3001 -0.4963
 2972TIP3   OH230330   2.907   6.395  14.867  0.0790 -0.2002  0.2313
 2972TIP3    H130331   2.951   6.474  14.898 -2.0469  0.5620  1.5888
 2972TIP3    H230332   2.839   6.427  14.808 -0.7804 -0.9661  0.7673
 2973TIP3   OH230333   5.119   3.134  14.984  0.0910  0.5306 -0.2332
 2973TIP3    H130334   5.190   3.096  15.037 -0.6588 -0.8045 -0.1423
 2973TIP3    H230335   5.157   3.213  14.947  1.4752  0.1098  0.2096
 2974TIP3   OH230336   5.205   5.232  11.458  0.5115 -0.0757 -0.4840
 2974TIP3    H130337   5.219   5.270  11.371  2.1571  0.1489 -0.1459
 2974TIP3    H230338   5.256   5.151  11.457 -1.5283 -1.4389 -0.5800
 2975TIP3   OH230339   4.394   3.840   4.709 -0.5505 -0.3234  0.1885
 2975TIP3    H130340   4.337   3.898   4.760 -2.1859 -0.9414 -0.8726
 2975TIP3    H230341   4.420   3.893   4.633 -0.2275 -0.2532  0.3472
 2976TIP3   OH230342   5.909   6.730   5.080  0.1589 -0.2439  0.7122
 2976TIP3    H130343   5.960   6.703   5.157  2.7148  0.4796 -0.6122
 2976TIP3    H230344   5.881   6.648   5.040  1.6673 -0.7637  0.6444
 2977TIP3   OH230345   2.779   6.196   6.219 -0.0217 -0.1722 -0.0320
 2977TIP3    H130346   2.844   6.126   6.226  1.9963  1.4355 -1.4439
 2977TIP3    H230347   2.785   6.224   6.128 -1.4599  1.2072  0.2743
 2978TIP3   OH230348   5.557   0.559  13.610 -0.4771  0.0899 -0.2260
 2978TIP3    H130349   5.537   0.572  13.702 -0.3803  0.3748 -0.2451
 2978TIP3    H230350   5.565   0.648  13.574  2.2964  0.0402  0.0732
 2979TIP3   OH230351   5.721   6.554  13.908  0.1201 -0.3326  0.0361
 2979TIP3    H130352   5.707   6.613  13.833 -2.0633 -1.1576 -0.2586
 2979TIP3    H230353   5.801   6.588  13.949  0.9199  0.6735 -2.1505
 2980TIP3   OH230354   1.440   1.508  16.833  0.1903 -0.1331 -0.3958
 2980TIP3    H130355   1.438   1.485  16.740  2.6600 -1.2083 -0.2534
 2980TIP3    H230356   1.514   1.568  16.842  0.1516 -0.2502  0.9142
 2981TIP3   OH230357   1.909   3.732   1.029  0.4500  0.1715 -0.5944
 2981TIP3    H130358   1.909   3.636   1.028  0.0924  0.1141  1.3349
 2981TIP3    H230359   1.880   3.757   0.941  2.8092 -1.4304 -1.9347
 2982TIP3   OH230360   0.911   3.570  15.905  0.4297  0.5297  0.1692
 2982TIP3    H130361   0.851   3.638  15.875 -0.1689  0.3039  0.8508
 2982TIP3    H230362   0.967   3.615  15.969 -0.3632  0.2529  1.0814
 2983TIP3   OH230363   1.656   1.873   2.923 -0.4249  0.4518  0.0424
 2983TIP3    H130364   1.626   1.957   2.890  0.1116  0.7443  0.2804
 2983TIP3    H230365   1.752   1.881   2.926 -0.3312 -0.3352 -0.3890
 2984TIP3   OH230366   0.845   3.006  14.893 -0.4515  0.1031  0.0665
 2984TIP3    H130367   0.879   2.916  14.895 -2.5748 -0.7461  0.8583
 2984TIP3    H230368   0.909   3.054  14.842  1.2925 -1.6288  0.4813
 2985TIP3   OH230369   0.544   3.605  10.467  0.2636  0.3423 -0.4440
 2985TIP3    H130370   0.588   3.524  10.492 -0.1861  0.6222  1.3373
 2985TIP3    H230371   0.608   3.674  10.486 -0.5788  0.6778  1.3934
 2986TIP3   OH230372   5.609   6.567   6.049 -0.3610  0.4130 -0.6105
 2986TIP3    H130373   5.632   6.651   6.088  0.7518 -0.2376  0.2320
 2986TIP3    H230374   5.692   6.534   6.014 -0.7314 -0.4401 -0.7123
 2987TIP3   OH230375   4.067   0.157  13.698 -0.1794  0.1457 -0.4789
 2987TIP3    H130376   4.071   0.198  13.611 -2.1952 -1.2550 -1.3103
 2987TIP3    H230377   4.133   0.204  13.749  0.6125  1.4733 -2.5602
 2988TIP3   OH230378   4.841   2.556  14.477 -0.2686 -0.5498 -0.0617
 2988TIP3    H130379   4.833   2.481  14.536  0.3481  0.2200  1.0429
 2988TIP3    H230380   4.754   2.566  14.439 -0.7989 -0.8220  1.0386
 2989TIP3   OH230381   1.798   6.052   5.245  0.1781  0.1513  0.1883
 2989TIP3    H130382   1.892   6.050   5.263  0.6863 -0.0025 -2.1061
 2989TIP3    H230383   1.782   6.142   5.215  0.1648 -0.4506 -1.7862
 2990TIP3   OH230384   1.222   2.482  14.658 -0.1568  0.5488  0.5931
 2990TIP3    H130385   1.185   2.567  14.681  0.3085  0.8611  0.2055
 2990TIP3    H230386   1.310   2.484  14.696  0.0176  0.4204  0.1987
 2991TIP3   OH230387   2.935   0.114   3.828  0.2200  0.2047 -0.1977
 2991TIP3    H130388   2.893   0.190   3.788  1.4692 -0.0190 -2.0159
 2991TIP3    H230389   2.863   0.068   3.872 -1.4879 -0.0332 -2.9900
 2992TIP3   OH230390   4.285   3.571  16.752 -0.0798 -0.1556 -0.6202
 2992TIP3    H130391   4.212   3.631  16.740  1.6077  1.9278 -1.0629
 2992TIP3    H230392   4.332   3.573  16.668  2.6888  1.7763  0.8153
 2993TIP3   OH230393   2.993   6.666   6.128 -0.1924 -0.6078  0.1219
 2993TIP3    H130394   3.019   6.574   6.138  1.4174 -0.3513 -1.3847
 2993TIP3    H230395   2.980   6.696   6.218  0.7958 -1.8771  0.7280
 2994TIP3   OH230396   3.939   2.927  11.041 -0.0076  0.1374 -0.8599
 2994TIP3    H130397   3.866   2.937  10.981  0.2971  0.9275 -1.1050
 2994TIP3    H230398   3.984   3.011  11.039  0.2980  0.0130  0.0917
 2995TIP3   OH230399   4.775   3.649   5.338 -0.5663  0.0590 -0.1337
 2995TIP3    H130400   4.779   3.711   5.410 -0.8052 -0.0599 -0.0198
 2995TIP3    H230401   4.845   3.678   5.278 -0.3845  0.1683  0.1307
 2996TIP3   OH230402   3.555   5.043  12.050  0.1809  0.1803 -0.0590
 2996TIP3    H130403   3.515   5.053  12.136 -1.4186  0.7721 -0.8103
 2996TIP3    H230404   3.647   5.066  12.062  0.3360 -1.2108  1.7637
 2997TIP3   OH230405   3.348   5.616  10.244  0.6665  0.2222  0.4480
 2997TIP3    H130406   3.313   5.688  10.296 -1.8306 -0.1948 -0.5416
 2997TIP3    H230407   3.412   5.658  10.185  1.1280  1.1897  1.5975
 2998TIP3   OH230408   5.668   5.237  11.821 -0.0702  0.1073  0.1950
 2998TIP3    H130409   5.739   5.264  11.879  0.6009 -1.1539 -0.0025
 2998TIP3    H230410   5.689   5.277  11.737  0.5758 -0.4651  0.0686
 2999TIP3   OH230411   3.926   6.318   2.332 -0.6916  0.4919 -0.3495
 2999TIP3    H130412   3.975   6.279   2.404  0.9472  1.3250 -0.9418
 2999TIP3    H230413   3.911   6.246   2.271  0.3840  0.3197 -0.4386
 3000TIP3   OH230414   4.031   0.628  11.625  0.6723 -0.1728 -0.2810
 3000TIP3    H130415   4.014   0.623  11.531  2.9616  0.4778 -0.7971
 3000TIP3    H230416   4.014   0.539  11.657 -0.5766 -0.2894 -1.2027
 3001TIP3   OH230417   6.337   1.191   5.760 -0.5764  0.3510 -0.9983
 3001TIP3    H130418   6.397   1.226   5.694 -0.7654  0.0727 -1.3171
 3001TIP3    H230419   6.310   1.267   5.811  1.0218  0.3306 -0.0512
 3002TIP3   OH230420   1.325   2.026  14.060 -0.2922 -0.4398 -0.0856
 3002TIP3    H130421   1.402   2.030  14.002  0.8027 -1.5658  1.2286
 3002TIP3    H230422   1.252   2.055  14.005  0.7426 -1.2339 -1.9614
 3003TIP3   OH230423   1.792   0.136   0.292 -0.2246  0.2928 -0.4123
 3003TIP3    H130424   1.882   0.119   0.262  0.2367  0.9083  0.5525
 3003TIP3    H230425   1.795   0.120   0.387 -1.4726 -0.9440 -0.5468
 3004TIP3   OH230426   0.656   1.226   2.543  0.1639  0.5976 -0.3644
 3004TIP3    H130427   0.732   1.284   2.540  0.4031  0.4404  1.4776
 3004TIP3    H230428   0.581   1.284   2.529  0.4987  1.1065 -0.0758
 3005TIP3   OH230429   3.139   1.608   4.779 -0.0529  0.1761 -0.2071
 3005TIP3    H130430   3.216   1.551   4.789 -0.3870 -0.2999 -0.3026
 3005TIP3    H230431   3.068   1.560   4.823 -0.4960  0.1955 -0.8932
 3006TIP3   OH230432   4.155   4.711   2.242  0.3795  0.1247  0.4470
 3006TIP3    H130433   4.249   4.695   2.241  0.4337  0.2497  1.7829
 3006TIP3    H230434   4.117   4.626   2.265  0.2303  0.2764  0.7692
 3007TIP3   OH230435   5.606   5.366  12.557  0.0329 -0.0267 -0.2635
 3007TIP3    H130436   5.530   5.424  12.561 -0.9586 -1.3590  0.9384
 3007TIP3    H230437   5.582   5.298  12.495  0.4326 -0.2172 -0.2120
 3008TIP3   OH230438   1.269   6.096  15.182 -0.1484 -0.2521  0.8009
 3008TIP3    H130439   1.215   6.171  15.207  0.4682 -0.5819  3.3271
 3008TIP3    H230440   1.329   6.131  15.116  0.4268  1.6298  2.2347
 3009TIP3   OH230441   1.774   4.842  14.163 -0.4489 -0.0827  0.4747
 3009TIP3    H130442   1.727   4.925  14.154 -0.0359 -0.0772 -2.4024
 3009TIP3    H230443   1.859   4.866  14.198  0.2812  0.9971 -1.8793
 3010TIP3   OH230444   2.350   3.786  11.978  0.3385 -0.4819 -0.1610
 3010TIP3    H130445   2.258   3.778  12.004  0.4676 -2.6743 -0.2366
 3010TIP3    H230446   2.372   3.878  11.997 -1.6269 -0.1222  0.6006
 3011TIP3   OH230447   6.480   3.990  12.858  0.4426  0.0603  0.0150
 3011TIP3    H130448   6.448   3.950  12.778  2.5857  0.5213 -1.1460
 3011TIP3    H230449   6.515   3.917  12.909  0.8710 -0.0132 -0.3765
 3012TIP3   OH230450   4.785   2.262   4.559  0.0302  0.7115 -0.3381
 3012TIP3    H130451   4.731   2.183   4.549  0.4577  0.1799  1.3461
 3012TIP3    H230452   4.871   2.229   4.584 -0.5417  1.7136  3.6475
 3013TIP3   OH230453   3.563   6.498   5.764  0.2317 -0.6749  0.0848
 3013TIP3    H130454   3.623   6.562   5.802 -1.3067  0.2886  0.9602
 3013TIP3    H230455   3.553   6.431   5.832  1.4032 -1.6165 -0.6185
 3014TIP3   OH230456   3.727   4.483  15.448  0.1555  0.3626  0.3393
 3014TIP3    H130457   3.742   4.576  15.462 -2.3857  1.3316 -2.4339
 3014TIP3    H230458   3.677   4.455  15.525 -0.5797  1.7480  0.3970
 3015TIP3   OH230459   0.155   3.641  12.157 -0.2616 -0.5595  1.3571
 3015TIP3    H130460   0.236   3.670  12.115 -0.7874 -1.4578 -0.3984
 3015TIP3    H230461   0.136   3.556  12.116 -3.0147  0.4129  0.3723
 3016TIP3   OH230462   2.601   0.672   5.329 -0.3357  0.0132  0.0671
 3016TIP3    H130463   2.691   0.704   5.327 -0.3710  0.1705  0.7595
 3016TIP3    H230464   2.602   0.594   5.272  0.4382 -0.4763  0.7316
 3017TIP3   OH230465   0.815   3.371  15.169  0.2127  0.0905  0.1909
 3017TIP3    H130466   0.862   3.334  15.244  0.5277  0.8827  0.4009
 3017TIP3    H230467   0.778   3.452  15.203  0.3055  0.4243 -0.4948
 3018TIP3   OH230468   2.332   6.136   0.219 -0.7581  0.4875 -0.3246
 3018TIP3    H130469   2.322   6.129   0.314 -0.9813 -1.7024 -0.4694
 3018TIP3    H230470   2.261   6.194   0.192 -0.2795  1.6995  0.8912
 3019TIP3   OH230471   3.020   1.788  16.997 -0.0385 -0.0368  0.4402
 3019TIP3    H130472   2.990   1.733  17.070  0.3376  0.0490  0.6631
 3019TIP3    H230473   2.944   1.796  16.940  0.3370 -2.1341 -0.4288
 3020TIP3   OH230474   4.927   5.854   4.456 -0.3953  1.0545 -0.4824
 3020TIP3    H130475   4.946   5.778   4.511  0.6551  1.1477 -0.6782
 3020TIP3    H230476   4.855   5.826   4.400 -1.3453  0.8891  0.7930
 3021TIP3   OH230477   0.897   4.801  12.208 -0.3027 -0.5115  0.2366
 3021TIP3    H130478   0.893   4.881  12.156  0.9248  0.0680  1.0025
 3021TIP3    H230479   0.987   4.771  12.199  0.2515  0.1610  2.7793
 3022TIP3   OH230480   1.956   0.841   1.679 -0.0541 -0.6413  0.3533
 3022TIP3    H130481   1.878   0.886   1.646  0.3444 -1.4426 -1.8498
 3022TIP3    H230482   2.019   0.911   1.697  0.3523 -0.2036 -2.4427
 3023TIP3   OH230483   6.357   4.353   5.326 -0.1144  0.8721  0.4873
 3023TIP3    H130484   6.425   4.302   5.370 -1.7368 -1.4646  0.4745
 3023TIP3    H230485   6.335   4.423   5.387  1.1955  0.7389  1.1398
 3024TIP3   OH230486   2.707   5.550   6.158  0.3556  0.0596 -0.0627
 3024TIP3    H130487   2.622   5.543   6.202  0.0751 -0.6536 -0.7060
 3024TIP3    H230488   2.734   5.641   6.172 -0.6623  0.3792 -0.1309
 3025TIP3   OH230489   4.141   5.780  11.752 -0.3224  0.3651  0.2691
 3025TIP3    H130490   4.094   5.711  11.706  1.3629 -0.1269 -0.8144
 3025TIP3    H230491   4.126   5.858  11.700 -1.2605  0.5716  0.8376
 3026TIP3   OH230492   2.983   0.328   2.564 -0.1842 -0.0113 -0.3681
 3026TIP3    H130493   3.078   0.337   2.560 -0.2523  0.5313 -0.7899
 3026TIP3    H230494   2.969   0.235   2.583  0.4297 -0.0770 -0.2146
 3027TIP3   OH230495   4.366   5.411   1.531 -0.6611  0.2786 -0.0092
 3027TIP3    H130496   4.408   5.421   1.445 -1.3631 -0.7390 -0.4892
 3027TIP3    H230497   4.389   5.322   1.559  0.6446  1.0406  1.4839
 3028TIP3   OH230498   6.444   4.977   4.803 -0.2225 -0.5408 -0.5888
 3028TIP3    H130499   6.492   4.898   4.781 -0.5316 -1.3408  1.3543
 3028TIP3    H230500   6.463   4.991   4.896 -1.8820  0.4342 -0.3512
 3029TIP3   OH230501   4.575   2.528   4.938 -0.0124  0.5902  0.2720
 3029TIP3    H130502   4.576   2.575   5.021 -1.9743 -0.8366  1.2067
 3029TIP3    H230503   4.487   2.544   4.903 -0.1106 -0.9252 -0.2354
 3030TIP3   OH230504   4.106   4.369   4.690 -0.6997 -0.1646 -0.7595
 3030TIP3    H130505   4.057   4.399   4.767 -0.2594  0.8095 -0.8460
 3030TIP3    H230506   4.127   4.449   4.642  0.7313 -0.5883 -0.8774
 3031TIP3   OH230507   5.535   4.906  16.143 -0.1623 -0.0713  0.0819
 3031TIP3    H130508   5.479   4.974  16.105 -1.6211 -1.6890 -0.7899
 3031TIP3    H230509   5.624   4.937  16.127 -0.7129  2.6115  1.5720
 3032TIP3   OH230510   1.435   1.912  16.553  0.0261  0.3836 -0.3345
 3032TIP3    H130511   1.443   1.935  16.460  1.2765 -0.0925 -0.3662
 3032TIP3    H230512   1.341   1.910  16.569 -0.2206  0.2503 -1.6469
 3033TIP3   OH230513   1.411   3.847   2.166 -0.0344  0.1979 -0.4864
 3033TIP3    H130514   1.424   3.906   2.240  0.3355  0.7933 -1.0093
 3033TIP3    H230515   1.488   3.862   2.110  0.4102 -1.2889 -0.2984
 3034TIP3   OH230516   3.887   6.307   6.248 -0.0230  0.0682 -0.0159
 3034TIP3    H130517   3.969   6.325   6.294 -0.1284  3.1831 -0.7875
 3034TIP3    H230518   3.841   6.245   6.304  0.9759  1.6649  2.7870
 3035TIP3   OH230519   3.146   2.738  12.675  0.1093 -0.3752 -0.0741
 3035TIP3    H130520   3.175   2.707  12.589  0.4458 -2.5161  0.7581
 3035TIP3    H230521   3.057   2.703  12.684  0.5275 -1.2320  0.9274
 3036TIP3   OH230522   0.096   4.901   2.742  0.2979 -0.1393  0.6795
 3036TIP3    H130523   0.154   4.965   2.700  0.7513 -0.5006  0.7464
 3036TIP3    H230524   0.042   4.867   2.670 -1.8249  2.2031  1.0158
 3037TIP3   OH230525   3.476   2.507   4.791 -0.4154  0.6028 -0.0019
 3037TIP3    H130526   3.551   2.447   4.791  0.1070  1.2245 -0.7806
 3037TIP3    H230527   3.493   2.565   4.717 -1.8352  0.5698 -0.3673
 3038TIP3   OH230528   2.249   3.872   3.647  0.0507  0.2051 -0.0700
 3038TIP3    H130529   2.265   3.816   3.722  0.7652  1.2991  0.6239
 3038TIP3    H230530   2.332   3.918   3.633 -0.0407 -0.0332 -1.5845
 3039TIP3   OH230531   6.655   3.646   1.686 -0.3354 -0.2645  0.0005
 3039TIP3    H130532   6.669   3.738   1.665 -0.0409 -0.1021  0.8970
 3039TIP3    H230533   6.740   3.613   1.712  0.0960 -1.4295 -2.5644
 3040TIP3   OH230534   2.004   6.090   2.604 -0.1566 -0.2176  0.1726
 3040TIP3    H130535   1.968   6.177   2.588 -0.6099 -0.3408  0.4850
 3040TIP3    H230536   1.962   6.035   2.537 -1.6566 -0.6329  1.3960
 3041TIP3   OH230537   3.479   4.445   0.804  0.7347 -0.2838  0.2250
 3041TIP3    H130538   3.446   4.443   0.894 -0.9352  2.6754 -0.1979
 3041TIP3    H230539   3.574   4.456   0.814  0.5641  0.1541  1.6353
 3042TIP3   OH230540   6.100   5.895   3.522  0.2206 -0.0776 -0.8172
 3042TIP3    H130541   6.085   5.804   3.497  0.4629  0.8158 -5.0278
 3042TIP3    H230542   6.014   5.936   3.515  0.3299  0.2559 -0.2173
 3043TIP3   OH230543   2.173   0.934  16.853  0.2357  0.0939 -0.0251
 3043TIP3    H130544   2.184   1.025  16.881  1.4161 -0.3924  1.1785
 3043TIP3    H230545   2.088   0.908  16.890  0.7666  0.1416  1.3035
 3044TIP3   OH230546   5.334   5.191   3.606  0.1672 -0.1140  0.5315
 3044TIP3    H130547   5.285   5.268   3.636 -0.4974 -0.1846 -0.3258
 3044TIP3    H230548   5.357   5.211   3.515 -0.2301 -1.0232  0.2175
 3045TIP3   OH230549   3.214   6.223  13.461 -0.2952  0.2823  0.0956
 3045TIP3    H130550   3.177   6.225  13.372 -0.9085 -0.2960  0.3279
 3045TIP3    H230551   3.236   6.314  13.480  0.8166  0.2757 -1.0446
 3046TIP3   OH230552   6.435   5.752  17.026  0.0772 -0.0401  0.2525
 3046TIP3    H130553   6.447   5.839  17.065 -2.8110 -0.1597  1.7238
 3046TIP3    H230554   6.449   5.691  17.099 -2.7872 -0.4340  0.5924
 3047TIP3   OH230555   5.703   3.928   0.882  0.3199  0.5239 -0.7310
 3047TIP3    H130556   5.751   3.933   0.799  0.3326 -0.6461 -0.8163
 3047TIP3    H230557   5.617   3.895   0.857  0.1597  0.6447 -0.3348
 3048TIP3   OH230558   4.310   0.953  11.114 -0.3827 -0.2596  0.5015
 3048TIP3    H130559   4.387   0.905  11.085 -2.0481 -1.1976 -2.8517
 3048TIP3    H230560   4.326   1.044  11.088 -0.3764 -0.4371 -0.1139
 3049TIP3   OH230561   3.136   6.458   1.453  0.1583 -0.2746 -0.1459
 3049TIP3    H130562   3.043   6.433   1.456  0.1338 -0.1588  0.0958
 3049TIP3    H230563   3.139   6.530   1.390 -0.4158  1.7312  1.9644
 3050TIP3   OH230564   5.479   4.546   2.754  0.3826  0.0153  0.6229
 3050TIP3    H130565   5.456   4.457   2.780 -1.2396  0.3562  0.4581
 3050TIP3    H230566   5.573   4.552   2.770  0.3560 -1.4345  1.4944
 3051TIP3   OH230567   3.039   4.488   4.442 -0.2871 -0.1155  0.0587
 3051TIP3    H130568   2.966   4.549   4.443 -1.2414 -1.2003 -0.8721
 3051TIP3    H230569   3.116   4.543   4.427 -1.3299  0.7300 -3.0072
 3052TIP3   OH230570   5.427   4.656   2.333 -0.4046  0.1259 -0.0748
 3052TIP3    H130571   5.427   4.562   2.313 -1.0279  0.3663 -1.3417
 3052TIP3    H230572   5.380   4.663   2.416 -1.0742 -0.6129 -0.3767
 3053TIP3   OH230573   5.823   6.705  14.699 -0.4746  0.2419 -0.3335
 3053TIP3    H130574   5.843   6.684  14.790  0.0300 -2.4705 -0.9859
 3053TIP3    H230575   5.769   6.632  14.669 -1.6341  1.6669 -1.9212
 3054TIP3   OH230576   0.631   0.521  15.033  0.3594  0.0951  0.3823
 3054TIP3    H130577   0.641   0.583  14.961  0.9820  0.1030  0.4644
 3054TIP3    H230578   0.580   0.448  14.996 -0.1849  0.5519  0.2267
 3055TIP3   OH230579   2.248   3.307  16.791 -0.1053 -0.1007 -0.3299
 3055TIP3    H130580   2.157   3.298  16.764 -0.7612  0.7037  1.4866
 3055TIP3    H230581   2.251   3.389  16.840  1.5851 -0.1599 -0.2513
 3056TIP3   OH230582   6.129   6.412  15.552 -0.4508 -0.2618  0.1403
 3056TIP3    H130583   6.173   6.332  15.582  0.9105  1.2050  2.3451
 3056TIP3    H230584   6.199   6.463  15.511 -0.9791  0.4680  0.1345
 3057TIP3   OH230585   6.691   0.991   0.837 -1.0646  0.1276  0.0817
 3057TIP3    H130586   6.625   1.027   0.778 -1.6285 -1.6319 -0.4213
 3057TIP3    H230587   6.740   0.928   0.783  0.3730  0.6654  0.7150
 3058TIP3   OH230588   2.711   1.235   2.770  0.2773  0.4161 -0.1849
 3058TIP3    H130589   2.793   1.186   2.763 -0.1841 -0.3829 -0.1593
 3058TIP3    H230590   2.679   1.217   2.858  0.1182  0.8027 -0.1604
 3059TIP3   OH230591   1.754   4.081   4.953  0.4504 -0.1599 -0.4989
 3059TIP3    H130592   1.821   4.064   4.887 -0.9586 -0.0862 -2.0102
 3059TIP3    H230593   1.672   4.051   4.913 -0.3071 -1.1978  1.6856
 3060TIP3   OH230594   3.260   3.870   1.069  0.1432  0.2275 -0.5143
 3060TIP3    H130595   3.341   3.890   1.021  0.3935 -0.2785 -0.3047
 3060TIP3    H230596   3.281   3.887   1.161 -0.0921  0.4075 -0.4903
 3061TIP3   OH230597   4.389   5.687   4.797 -0.3539 -0.1704  0.1845
 3061TIP3    H130598   4.448   5.729   4.734 -2.5185  2.9083  0.0115
 3061TIP3    H230599   4.444   5.621   4.840  2.3714  0.5192 -1.9316
 3062TIP3   OH230600   0.125   6.173   5.242 -0.3055  0.3793 -0.7713
 3062TIP3    H130601   0.143   6.134   5.157  0.1946  0.8996 -0.9075
 3062TIP3    H230602   0.200   6.230   5.259  0.0542 -0.3789  0.4080
 3063TIP3   OH230603   2.792   1.233   4.296  0.0168 -0.1399 -0.1596
 3063TIP3    H130604   2.749   1.235   4.382  1.4788 -1.8564  0.6982
 3063TIP3    H230605   2.881   1.264   4.313  0.4891 -1.0246 -0.9257
 3064TIP3   OH230606   6.292   4.620  13.910 -0.4618  0.5327 -0.4803
 3064TIP3    H130607   6.222   4.639  13.972 -1.2042  0.0260 -1.1546
 3064TIP3    H230608   6.320   4.531  13.931  1.0008  1.2245  0.7368
 3065TIP3   OH230609   4.841   1.203   3.860 -0.1734  0.0369 -0.3464
 3065TIP3    H130610   4.852   1.156   3.778  0.8389 -0.5696  0.1242
 3065TIP3    H230611   4.801   1.139   3.920 -1.3805  0.6223 -0.4903
 3066TIP3   OH230612   0.323   4.353   0.925  0.4069  0.2893  0.2761
 3066TIP3    H130613   0.384   4.409   0.876  0.2257  2.3782  2.2893
 3066TIP3    H230614   0.237   4.385   0.900  0.1338 -1.3257 -1.0181
 3067TIP3   OH230615   0.918   1.548  16.940  0.2440  0.7242 -0.1266
 3067TIP3    H130616   1.013   1.549  16.929  0.5123  2.2843  1.6726
 3067TIP3    H230617   0.900   1.622  16.999 -2.1471  0.7619 -0.7839
 3068TIP3   OH230618   4.305   2.525  16.173  0.3362 -0.2716  0.1135
 3068TIP3    H130619   4.290   2.450  16.116  0.7635  0.1356 -0.5433
 3068TIP3    H230620   4.218   2.552  16.201 -0.0207  0.5797 -1.7312
 3069TIP3   OH230621   6.287   3.541   0.243 -0.0699 -0.2397 -0.6988
 3069TIP3    H130622   6.204   3.554   0.197 -1.8822  1.9835  2.7431
 3069TIP3    H230623   6.346   3.604   0.203 -1.0731  0.5129 -1.0494
 3070TIP3   OH230624   6.095   2.755  11.439  0.2443 -0.0076 -0.0559
 3070TIP3    H130625   6.016   2.756  11.493  1.2031  0.0706  1.3872
 3070TIP3    H230626   6.073   2.699  11.365 -1.2525  0.2405  0.1754
 3071TIP3   OH230627   5.247   6.570   4.826  0.2783  0.7623  0.0883
 3071TIP3    H130628   5.306   6.555   4.753  0.6424  0.2793  0.4722
 3071TIP3    H230629   5.225   6.663   4.821  1.8255  1.1842  0.4950
 3072TIP3   OH230630   4.794   5.003  17.212 -0.4616  0.5497 -0.2646
 3072TIP3    H130631   4.738   4.937  17.254  1.2061 -0.3148  0.7122
 3072TIP3    H230632   4.756   5.087  17.240 -0.5198 -0.0111  1.4554
 3073TIP3   OH230633   1.639   5.576   5.513 -0.5783  0.1164  0.0655
 3073TIP3    H130634   1.649   5.568   5.418 -0.3258 -0.4752  0.1390
 3073TIP3    H230635   1.621   5.487   5.543 -3.5721  0.6685  0.2529
 3074TIP3   OH230636   0.625   6.108   4.601 -0.2899  0.7247  0.5364
 3074TIP3    H130637   0.636   6.015   4.619 -1.9598  0.7189  1.7714
 3074TIP3    H230638   0.712   6.146   4.615  0.1964 -0.5038  0.9647
 3075TIP3   OH230639   2.921   4.792  12.786 -0.4320  0.8350 -0.1436
 3075TIP3    H130640   2.933   4.791  12.691 -0.1260 -1.6856 -0.1509
 3075TIP3    H230641   2.856   4.723  12.803 -1.1303  1.8197  1.4282
 3076TIP3   OH230642   6.520   1.301  13.159  0.4192 -0.0673  0.4998
 3076TIP3    H130643   6.586   1.295  13.229  1.2582 -1.7251 -0.3527
 3076TIP3    H230644   6.553   1.241  13.091 -3.4454 -3.4731  1.2649
 3077TIP3   OH230645   0.364   1.883   2.433 -0.2488 -0.0451  0.1903
 3077TIP3    H130646   0.446   1.888   2.483  0.2709 -1.2804 -0.4935
 3077TIP3    H230647   0.313   1.816   2.479 -0.1005 -0.6019 -0.4356
 3078TIP3   OH230648   5.919   4.589   4.393 -0.0313 -0.1568  0.0276
 3078TIP3    H130649   5.899   4.556   4.481  0.6124 -0.1800  0.1754
 3078TIP3    H230650   5.998   4.541   4.367  0.1507  0.3066 -0.2954
 3079TIP3   OH230651   3.203   2.478  14.447 -0.2485 -0.3512 -0.8458
 3079TIP3    H130652   3.120   2.519  14.471  0.4638  1.2421 -0.9619
 3079TIP3    H230653   3.184   2.430  14.367 -0.6402  1.6645 -2.0201
 3080TIP3   OH230654   0.367   1.213  15.176  0.3856  0.0015 -0.2192
 3080TIP3    H130655   0.300   1.145  15.175  0.9139 -0.5660  0.7335
 3080TIP3    H230656   0.387   1.230  15.084 -0.9704  0.1029 -0.5147
 3081TIP3   OH230657   5.339   4.056   5.836 -0.1507  0.2656 -0.1466
 3081TIP3    H130658   5.397   3.989   5.799 -1.1324 -0.2770 -0.7905
 3081TIP3    H230659   5.311   4.019   5.920  1.1585  0.9627  0.6198
 3082TIP3   OH230660   1.225   4.870  13.122 -0.3305  0.2379  0.0812
 3082TIP3    H130661   1.161   4.814  13.078  1.1991 -2.1666  0.7428
 3082TIP3    H230662   1.207   4.858  13.216  1.1314 -0.6522  0.2883
 3083TIP3   OH230663   3.765   4.586   2.913  0.1761  0.1059  0.3133
 3083TIP3    H130664   3.841   4.528   2.921  0.0751 -0.1152 -0.2386
 3083TIP3    H230665   3.792   4.652   2.849 -0.3645 -0.4442 -0.5139
 3084TIP3   OH230666   2.054   4.457  15.102 -0.1932 -0.7876  0.7113
 3084TIP3    H130667   2.128   4.509  15.134  0.0656 -1.5135  1.3220
 3084TIP3    H230668   2.062   4.460  15.007  0.7401 -1.0196  0.7702
 3085TIP3   OH230669   4.785   2.423  16.924 -0.9957 -0.4071  0.2494
 3085TIP3    H130670   4.792   2.399  16.831 -0.9133  2.5309 -0.6111
 3085TIP3    H230671   4.861   2.381  16.965  0.5108  0.3640 -1.5669
 3086TIP3   OH230672   2.227   6.544  16.471 -0.7866 -0.7089  0.1855
 3086TIP3    H130673   2.295   6.585  16.418 -0.8029  0.3775  0.9740
 3086TIP3    H230674   2.152   6.536  16.413  0.0081 -1.9647 -0.7158
 3087TIP3   OH230675   1.645   1.198   2.725  0.0796 -0.0842  0.3964
 3087TIP3    H130676   1.576   1.193   2.658  0.6945  2.6074 -0.5763
 3087TIP3    H230677   1.650   1.109   2.761 -2.5102 -0.8472 -0.8566
 3088TIP3   OH230678   0.991   4.825   5.127 -0.1265  0.4886  0.1585
 3088TIP3    H130679   0.964   4.884   5.198  2.2665  0.5767  1.0678
 3088TIP3    H230680   1.074   4.860   5.096 -0.4587 -0.3239 -1.8470
 3089TIP3   OH230681   5.960   3.760  14.187  0.7034 -0.0445  0.3767
 3089TIP3    H130682   5.911   3.697  14.134  1.2647 -1.6859  1.7058
 3089TIP3    H230683   5.949   3.844  14.142 -1.7637 -0.6958 -0.3611
 3090TIP3   OH230684   5.500   0.379   4.499  0.5926  0.6527 -0.1810
 3090TIP3    H130685   5.591   0.355   4.520 -0.2107 -1.7090  0.9756
 3090TIP3    H230686   5.506   0.469   4.469  3.3348  0.5620 -0.2163
 3091TIP3   OH230687   5.692   6.135  14.885  0.3335  0.1681 -0.3101
 3091TIP3    H130688   5.607   6.166  14.852 -0.0638  0.4241  0.9083
 3091TIP3    H230689   5.734   6.213  14.922  0.2589 -0.3037  0.8148
 3092TIP3   OH230690   2.128   2.000  12.751 -0.0607  0.0233 -0.5589
 3092TIP3    H130691   2.077   1.951  12.686 -0.2201  0.0409 -0.4482
 3092TIP3    H230692   2.063   2.049  12.801  0.0509 -0.0785 -0.3116
 3093TIP3   OH230693   6.320   1.988   1.557  0.2397  0.2031 -0.1444
 3093TIP3    H130694   6.235   1.972   1.598 -0.1113  1.7914 -0.1782
 3093TIP3    H230695   6.329   2.084   1.557 -0.0394  0.4310 -4.2056
 3094TIP3   OH230696   3.206   3.398  12.388 -0.0101 -0.1862 -0.6356
 3094TIP3    H130697   3.258   3.435  12.460  0.3576  0.6550 -1.3073
 3094TIP3    H230698   3.116   3.421  12.409  0.0657 -0.1901 -0.2982
 3095TIP3   OH230699   3.194   0.075  12.342 -0.1548 -0.5679 -0.6317
 3095TIP3    H130700   3.147   0.032  12.413 -1.3172  1.0626 -0.3560
 3095TIP3    H230701   3.239   0.149  12.383 -0.3464  0.0399 -1.4832
 3096TIP3   OH230702   0.358   3.038   1.172  0.5975  0.3070 -0.6207
 3096TIP3    H130703   0.284   3.019   1.114  1.4900  0.6955 -1.9081
 3096TIP3    H230704   0.434   2.999   1.130  1.0198 -0.9685  1.1931
 3097TIP3   OH230705   6.169   2.187  14.802  0.0710  0.0174  0.1856
 3097TIP3    H130706   6.263   2.204  14.804  0.1351 -0.3682  1.7744
 3097TIP3    H230707   6.129   2.271  14.826  0.1634 -0.5086  2.3903
 3098TIP3   OH230708   5.597   6.536   3.699 -0.0903  0.1894 -0.2167
 3098TIP3    H130709   5.514   6.583   3.696 -0.3949 -0.3626 -0.7536
 3098TIP3    H230710   5.599   6.497   3.786  0.2870  1.3927  0.3307
 3099TIP3   OH230711   6.271   1.162  17.164 -0.0415 -0.5075  0.3318
 3099TIP3    H130712   6.325   1.126  17.094  0.7313 -0.1914  0.7477
 3099TIP3    H230713   6.322   1.147  17.244 -0.2569  0.3926  0.6554
 3100TIP3   OH230714   2.885   5.037   1.824  0.3535 -0.0304  0.0129
 3100TIP3    H130715   2.840   5.101   1.881 -0.5921 -0.2380 -0.4761
 3100TIP3    H230716   2.815   4.977   1.797  1.5476 -2.5820  2.1529
 3101TIP3   OH230717   6.402   0.578  14.213 -0.1743  0.3292  0.4388
 3101TIP3    H130718   6.444   0.654  14.172 -0.3557 -0.1291 -0.6150
 3101TIP3    H230719   6.458   0.558  14.289  0.1994  1.1479  0.3882
 3102TIP3   OH230720   0.410   3.788   0.713  0.5548 -0.8312 -0.1391
 3102TIP3    H130721   0.455   3.759   0.792 -0.3661  0.8367  1.0635
 3102TIP3    H230722   0.478   3.828   0.659  1.1075 -1.5520  0.0035
 3103TIP3   OH230723   0.629   1.203   4.673 -0.1620  0.6094  0.6856
 3103TIP3    H130724   0.610   1.264   4.744  0.9355 -0.2923  1.8012
 3103TIP3    H230725   0.722   1.216   4.653  0.0054 -0.4350  0.7009
 3104TIP3   OH230726   5.191   3.949  16.797  0.4535  0.2924  0.3580
 3104TIP3    H130727   5.169   4.029  16.749 -0.5906 -1.2078 -1.8531
 3104TIP3    H230728   5.172   3.970  16.888  1.0484  2.8101 -0.0119
 3105TIP3   OH230729   1.502   3.824   6.941  0.3544 -0.0407  0.3948
 3105TIP3    H130730   1.495   3.747   6.883  1.1764 -0.4729  0.8422
 3105TIP3    H230731   1.422   3.873   6.926  0.2750 -0.4667 -0.6609
 3106TIP3   OH230732   2.840   4.858   3.497 -0.0690  0.0162 -0.7975
 3106TIP3    H130733   2.782   4.796   3.541  0.3918  0.8158  1.0158
 3106TIP3    H230734   2.908   4.803   3.458 -0.4859 -0.7255 -0.5038
 3107TIP3   OH230735   4.915   3.457  13.367  0.3698  0.3620  0.9918
 3107TIP3    H130736   4.875   3.511  13.435  1.0136  1.0981  0.7977
 3107TIP3    H230737   4.912   3.368  13.403  0.4274  0.6953  1.8543
 3108TIP3   OH230738   6.439   1.241   3.212  0.7919 -0.0899  0.2882
 3108TIP3    H130739   6.453   1.181   3.139 -0.5441 -0.6860  0.5106
 3108TIP3    H230740   6.404   1.320   3.171 -1.4911 -0.9776  0.3826
 3109TIP3   OH230741   3.789   2.091   1.323  0.1837  0.0261  0.0157
 3109TIP3    H130742   3.741   2.174   1.330 -1.9057 -1.1382  0.3619
 3109TIP3    H230743   3.865   2.112   1.269 -1.6954  1.6310 -2.2181
 3110TIP3   OH230744   5.269   6.714  16.140  0.0033  0.0615  1.0028
 3110TIP3    H130745   5.267   6.636  16.085  0.3854 -1.3869  2.9295
 3110TIP3    H230746   5.177   6.737  16.154 -0.1145  1.5213 -1.5534
 3111TIP3   OH230747   1.982   3.718  12.299  0.2138  0.0150  0.1942
 3111TIP3    H130748   1.924   3.684  12.367 -0.0001  0.5329  0.2726
 3111TIP3    H230749   1.973   3.813  12.305  1.0318  0.0949  0.1704
 3112TIP3   OH230750   0.353   0.975  16.136 -0.1738 -0.1429 -0.2304
 3112TIP3    H130751   0.369   0.918  16.211  1.0268 -0.5392 -0.7611
 3112TIP3    H230752   0.394   1.058  16.159 -2.2678  0.7050  0.7112
 3113TIP3   OH230753   1.697   4.860  17.221  0.1333 -0.1123  0.2442
 3113TIP3    H130754   1.657   4.856  17.308 -1.5170 -1.5848 -0.5155
 3113TIP3    H230755   1.632   4.821  17.163  2.3221 -1.8389 -1.2358
 3114TIP3   OH230756   4.834   0.816  11.665 -0.4968  0.3756  0.4801
 3114TIP3    H130757   4.745   0.781  11.651 -0.5599  1.0864 -1.2656
 3114TIP3    H230758   4.880   0.747  11.712 -1.9365 -0.0687  1.2937
 3115TIP3   OH230759   3.256   5.201  14.092 -0.5399 -0.2691  0.0424
 3115TIP3    H130760   3.225   5.232  14.177  0.0849  1.6261 -0.3897
 3115TIP3    H230761   3.176   5.172  14.047 -1.0826  0.2492  0.6519
 3116TIP3   OH230762   6.381   4.456  15.798  0.2821  0.2415 -0.0003
 3116TIP3    H130763   6.382   4.546  15.831  0.1996  0.6615 -1.1039
 3116TIP3    H230764   6.469   4.441  15.765  0.8484 -0.7475  1.8436
 3117TIP3   OH230765   0.821   6.188  16.158  0.4594  0.1393 -0.3060
 3117TIP3    H130766   0.828   6.196  16.063 -0.2926 -1.2505 -0.5258
 3117TIP3    H230767   0.729   6.209  16.177  0.2107 -1.0100 -0.1095
 3118TIP3   OH230768   6.286   4.435  14.829 -0.4301  0.1871  0.0842
 3118TIP3    H130769   6.377   4.451  14.802 -0.4548  1.1552  0.5296
 3118TIP3    H230770   6.289   4.439  14.925 -1.1303  1.2904  0.0680
 3119TIP3   OH230771   3.695   4.956   3.709  0.3585 -0.7533  0.2232
 3119TIP3    H130772   3.618   4.909   3.676 -0.5885  1.6144 -1.2290
 3119TIP3    H230773   3.745   4.977   3.630  1.9163 -1.2301  1.0485
 3120TIP3   OH230774   1.668   0.697   3.506  0.3121 -0.2505 -0.4193
 3120TIP3    H130775   1.592   0.749   3.478  1.2212  0.4415 -1.7068
 3120TIP3    H230776   1.701   0.742   3.584  1.6235  1.7085 -2.0258
 3121TIP3   OH230777   6.591   4.693   5.397 -0.4940 -0.3740  0.2664
 3121TIP3    H130778   6.620   4.688   5.488  0.5980 -0.8848 -0.0962
 3121TIP3    H230779   6.586   4.602   5.368 -2.2804 -0.2919  0.2403
 3122TIP3   OH230780   0.658   2.346  14.397 -0.1031  0.0800  0.8788
 3122TIP3    H130781   0.739   2.394  14.417  0.9911 -0.2156 -2.2850
 3122TIP3    H230782   0.603   2.409  14.351 -0.8860 -0.2856  1.2938
 3123TIP3   OH230783   1.816   5.817  15.796  0.4171  0.1710 -0.3635
 3123TIP3    H130784   1.890   5.780  15.846  0.1726 -0.5458 -0.5141
 3123TIP3    H230785   1.858   5.863  15.724  0.7169 -1.3776 -1.2345
 3124TIP3   OH230786   5.333   2.889   5.401  0.0202  0.3380  0.5960
 3124TIP3    H130787   5.294   2.922   5.321 -0.0303  0.1591  0.5462
 3124TIP3    H230788   5.343   2.795   5.386 -0.9404  0.1304  1.1942
 3125TIP3   OH230789   0.944   0.530   0.279 -0.4648  0.8781 -0.6435
 3125TIP3    H130790   1.027   0.564   0.311 -0.1078  0.5304 -1.1884
 3125TIP3    H230791   0.965   0.443   0.245 -1.2787  0.2631  0.3537
 3126TIP3   OH230792   6.224   3.338  11.060 -0.2654 -0.3135 -0.0423
 3126TIP3    H130793   6.246   3.369  10.972  1.2312 -0.6099  0.2035
 3126TIP3    H230794   6.168   3.407  11.096 -0.6247 -0.0312 -1.0978
 3127TIP3   OH230795   4.178   0.466   1.700  0.2595  0.1263 -0.0579
 3127TIP3    H130796   4.083   0.472   1.709  0.0535 -0.5166 -1.5934
 3127TIP3    H230797   4.195   0.374   1.681  1.2085  0.2089  0.3152
 3128TIP3   OH230798   5.820   2.381   0.850 -0.0795  0.3813  0.0187
 3128TIP3    H130799   5.850   2.349   0.935 -1.6872  0.1913  0.5390
 3128TIP3    H230800   5.802   2.474   0.864  0.2429  0.4962 -0.2933
 3129TIP3   OH230801   6.505   5.163  16.767 -0.5362 -0.1384  0.3585
 3129TIP3    H130802   6.594   5.134  16.786 -0.7456 -0.0469  1.5527
 3129TIP3    H230803   6.507   5.187  16.674  0.6236 -0.3459  0.3152
 3130TIP3   OH230804   3.312   6.691   2.264 -0.5240  0.6937  0.1599
 3130TIP3    H130805   3.389   6.634   2.254 -1.7385 -0.9216 -0.4540
 3130TIP3    H230806   3.277   6.699   2.176 -2.6500 -0.9937  0.7610
 3131TIP3   OH230807   1.009   6.531   1.992  0.2893  0.4862 -0.4233
 3131TIP3    H130808   1.103   6.536   2.012  0.3967 -0.7427 -0.5320
 3131TIP3    H230809   0.966   6.568   2.069  0.8416  0.5187 -0.1227
 3132TIP3   OH230810   6.290   1.110   4.095 -0.3948 -0.6050 -0.3205
 3132TIP3    H130811   6.322   1.199   4.077  2.5895 -1.0757  1.9458
 3132TIP3    H230812   6.286   1.069   4.008 -0.0924  1.1913 -1.2408
 3133TIP3   OH230813   3.591   1.977  15.062 -0.5626 -0.0433 -0.1715
 3133TIP3    H130814   3.521   2.035  15.030 -0.3631  0.5498  0.4699
 3133TIP3    H230815   3.669   2.005  15.013 -0.1310  1.2317  1.1724
 3134TIP3   OH230816   5.277   5.367  11.963 -0.0133  0.1738 -0.1677
 3134TIP3    H130817   5.262   5.419  11.884 -1.2080  1.4067  0.8212
 3134TIP3    H230818   5.321   5.427  12.023 -0.3421 -0.3123  0.5777
 3135TIP3   OH230819   1.366   1.297  16.606 -0.3133  0.3304 -0.4011
 3135TIP3    H130820   1.407   1.219  16.569  0.7568  0.8703 -0.3932
 3135TIP3    H230821   1.314   1.333  16.534 -1.6400 -0.9097 -0.1201
 3136TIP3   OH230822   5.044   1.204  12.485 -0.0984  0.5222  0.3581
 3136TIP3    H130823   5.018   1.117  12.513 -0.4493 -0.0045 -1.5033
 3136TIP3    H230824   4.967   1.240  12.441  0.6211  0.9950 -0.5701
 3137TIP3   OH230825   4.662   5.889  13.215  0.0194 -0.2295  0.3630
 3137TIP3    H130826   4.710   5.965  13.182  0.0176 -1.0222 -1.5315
 3137TIP3    H230827   4.726   5.818  13.215 -0.4272 -0.6373  0.4816
 3138TIP3   OH230828   5.722   3.698   0.344  0.4992  0.1376 -0.0296
 3138TIP3    H130829   5.783   3.771   0.354  0.3377  0.6073 -1.9617
 3138TIP3    H230830   5.775   3.620   0.362  0.8331  0.6850  1.4186
 3139TIP3   OH230831   6.437   3.810  14.660 -0.1079 -0.1387  0.2219
 3139TIP3    H130832   6.494   3.862  14.718  0.3811 -2.0216  1.5337
 3139TIP3    H230833   6.349   3.827  14.692 -0.1206  1.0631 -0.3837
 3140TIP3   OH230834   6.270   5.566   4.112  0.1894 -0.3606 -0.3034
 3140TIP3    H130835   6.256   5.580   4.206  0.5654  0.3963 -0.3492
 3140TIP3    H230836   6.241   5.476   4.097 -1.6148  0.0893  0.1930
 3141TIP3   OH230837   5.552   5.709  11.978  0.0684  0.7714 -0.3835
 3141TIP3    H130838   5.558   5.727  12.071 -2.9840  0.0995  0.0401
 3141TIP3    H230839   5.466   5.742  11.953  0.9559  1.3109 -3.0967
 3142TIP3   OH230840   4.028   0.931  12.259 -0.3626 -0.1767  0.4075
 3142TIP3    H130841   4.036   0.840  12.231 -1.5267 -0.4526  0.8886
 3142TIP3    H230842   4.024   0.981  12.178 -0.5456 -0.6453  0.1237
 3143TIP3   OH230843   3.732   6.315  12.085  0.1552 -0.4441 -0.5605
 3143TIP3    H130844   3.719   6.396  12.135 -1.3382 -0.5374 -0.7775
 3143TIP3    H230845   3.682   6.249  12.133  1.9375 -1.4436  0.0248
 3144TIP3   OH230846   6.482   4.803  13.806  0.7846  0.6472  0.3174
 3144TIP3    H130847   6.442   4.889  13.823  0.4035  0.4470  0.4545
 3144TIP3    H230848   6.465   4.753  13.885 -0.0969  0.0397 -0.2378
 3145TIP3   OH230849   1.173   0.296  16.042  0.8161  0.4297 -0.0329
 3145TIP3    H130850   1.181   0.380  16.087  0.3968  1.0048 -1.0114
 3145TIP3    H230851   1.102   0.309  15.979  3.1833  0.5765 -2.8707
 3146TIP3   OH230852   1.115   1.020   3.755 -0.3030 -0.1849  0.3838
 3146TIP3    H130853   1.163   1.022   3.672  1.1522 -0.9598  1.1629
 3146TIP3    H230854   1.114   1.111   3.784 -1.0697  0.1383 -0.5950
 3147TIP3   OH230855   2.322   6.440   5.962  0.1022  0.7625  0.4388
 3147TIP3    H130856   2.392   6.452   6.027  0.1506  0.9319  0.3558
 3147TIP3    H230857   2.308   6.527   5.926  2.0144  0.2332 -1.7963
 3148TIP3   OH230858   1.355   2.392  11.890  0.0484  0.3753 -0.3849
 3148TIP3    H130859   1.306   2.326  11.841 -0.2721  0.2659  0.0733
 3148TIP3    H230860   1.369   2.463  11.827  1.1539 -0.4788 -1.1393
 3149TIP3   OH230861   2.151   3.169  14.957  0.0906 -0.3386  0.3706
 3149TIP3    H130862   2.122   3.244  14.905 -0.5400 -0.4704  0.5282
 3149TIP3    H230863   2.223   3.203  15.009  0.0859  0.0503  0.1303
 3150TIP3   OH230864   5.242   0.447   0.488 -0.7327 -0.0565 -0.2056
 3150TIP3    H130865   5.248   0.386   0.414 -0.9910 -0.2943 -0.0382
 3150TIP3    H230866   5.258   0.392   0.565  0.2714  0.3332 -0.1300
 3151TIP3   OH230867   4.967   1.414  16.161 -0.0365 -0.4911 -0.0842
 3151TIP3    H130868   4.894   1.475  16.166  1.0078  0.7202  1.1150
 3151TIP3    H230869   4.976   1.380  16.250  2.0866  0.9323  0.3243
 3152TIP3   OH230870   3.764   2.168   6.284 -0.2643 -0.0761  0.3744
 3152TIP3    H130871   3.773   2.085   6.331  0.5937  0.3366  0.9562
 3152TIP3    H230872   3.789   2.147   6.194 -0.2420 -0.4888  0.4760
 3153TIP3   OH230873   1.288   2.829   5.151  0.6000 -0.0292 -0.3257
 3153TIP3    H130874   1.279   2.821   5.056 -0.3978 -2.2834 -0.1104
 3153TIP3    H230875   1.228   2.762   5.187  1.0603  0.6486  1.8840
 3154TIP3   OH230876   3.772   0.448  16.528  0.4287 -0.5301 -0.4590
 3154TIP3    H130877   3.819   0.386  16.473 -0.6128 -0.2987 -1.6597
 3154TIP3    H230878   3.679   0.436  16.505 -0.2122 -1.3133  2.1643
 3155TIP3   OH230879   0.557   2.946   5.948 -0.3959 -0.3680  0.0172
 3155TIP3    H130880   0.566   2.929   6.041  0.5760 -0.8139 -0.1434
 3155TIP3    H230881   0.467   2.923   5.927 -0.1772 -1.7592  0.5421
 3156TIP3   OH230882   0.889   4.496  16.435 -0.0041  0.0242 -0.6289
 3156TIP3    H130883   0.837   4.513  16.357 -0.1261  1.1934 -0.3114
 3156TIP3    H230884   0.867   4.406  16.459 -3.2315  0.9378  0.4326
 3157TIP3   OH230885   4.574   5.229   1.319 -0.3236 -0.1476 -0.6325
 3157TIP3    H130886   4.619   5.152   1.285 -0.2142  0.0587 -0.9654
 3157TIP3    H230887   4.640   5.274   1.373 -0.6164 -0.6821  0.1816
 3158TIP3   OH230888   3.148   0.625   4.603 -0.1642 -0.1602  0.2216
 3158TIP3    H130889   3.158   0.540   4.646  0.3747  0.2449  0.9217
 3158TIP3    H230890   3.170   0.689   4.671  0.8067  0.4960 -0.6909
 3159TIP3   OH230891   3.517   3.261  16.945  0.8388 -0.1195  0.0151
 3159TIP3    H130892   3.506   3.251  16.851  1.2336 -0.7418  0.0293
 3159TIP3    H230893   3.486   3.179  16.983  2.3607 -0.6187  0.2771
 3160TIP3   OH230894   1.350   6.005  11.272  0.2360  0.4840 -0.1360
 3160TIP3    H130895   1.327   5.924  11.316  1.2317  0.2128 -0.0894
 3160TIP3    H230896   1.407   5.978  11.200 -0.6980  0.9967 -1.1021
 3161TIP3   OH230897   1.022   4.263  10.878 -0.7563 -0.6733  0.1736
 3161TIP3    H130898   0.986   4.209  10.807  3.1082  0.2058 -2.8145
 3161TIP3    H230899   1.051   4.200  10.944 -0.3063 -1.9837 -1.2150
 3162TIP3   OH230900   0.492   4.318   1.945 -0.0394 -0.0864 -0.2279
 3162TIP3    H130901   0.436   4.240   1.953  1.0088 -0.8100  0.3978
 3162TIP3    H230902   0.480   4.347   1.855 -2.3718  0.5516  0.2276
 3163TIP3   OH230903   3.095   4.147   3.382 -0.5434 -0.3787  0.8250
 3163TIP3    H130904   3.171   4.135   3.325  1.3635  0.0812  3.1323
 3163TIP3    H230905   3.079   4.242   3.380 -1.3575 -0.5199  0.0288
 3164TIP3   OH230906   5.527   2.055   0.814 -0.2622 -0.0689  0.0423
 3164TIP3    H130907   5.558   2.012   0.734  0.3298 -0.6489  0.5763
 3164TIP3    H230908   5.570   2.008   0.885 -2.6408 -1.1740  0.8526
 3165TIP3   OH230909   6.109   2.464   3.723  0.0514  0.1387 -0.3360
 3165TIP3    H130910   6.083   2.512   3.802  0.7161 -0.1839  0.0793
 3165TIP3    H230911   6.035   2.476   3.664 -2.3980 -2.9354  1.7315
 3166TIP3   OH230912   1.353   0.239   0.080 -0.2176 -0.0750 -0.1142
 3166TIP3    H130913   1.368   0.190   0.160 -1.7550 -0.0163  0.2438
 3166TIP3    H230914   1.305   0.179   0.023  0.7243 -0.0681 -0.9471
 3167TIP3   OH230915   1.709   4.949  15.348 -0.3677 -0.0109  0.5960
 3167TIP3    H130916   1.667   4.944  15.434 -1.1630 -1.2141  0.1736
 3167TIP3    H230917   1.645   4.910  15.288  0.3819  0.3346 -0.4703
 3168TIP3   OH230918   0.134   2.700  14.050  0.2810 -0.2232 -0.0584
 3168TIP3    H130919   0.044   2.671  14.061  0.4064 -0.6142 -0.0230
 3168TIP3    H230920   0.186   2.632  14.094  0.6748 -0.7299 -1.2651
 3169TIP3   OH230921   5.462   3.632  10.553  0.1748  0.2977  0.8051
 3169TIP3    H130922   5.520   3.559  10.531  0.0742  0.0111  1.4637
 3169TIP3    H230923   5.516   3.690  10.606 -0.0510  0.1776  1.1682
 3170TIP3   OH230924   1.309   3.980   1.275 -0.4608  0.5771  0.3954
 3170TIP3    H130925   1.258   3.908   1.312 -0.0095  0.4825  0.8457
 3170TIP3    H230926   1.279   4.058   1.322 -0.8953  0.6798 -0.0393
 3171TIP3   OH230927   4.236   4.974  17.198  0.0329  0.1675  0.1386
 3171TIP3    H130928   4.247   4.995  17.291  2.5099  0.7528 -0.2265
 3171TIP3    H230929   4.276   4.888  17.187  0.7688  0.5901 -0.5769
 3172TIP3   OH230930   1.568   2.573   5.839 -0.9999  0.4967 -0.2729
 3172TIP3    H130931   1.545   2.665   5.849 -2.0182  0.4175 -1.6311
 3172TIP3    H230932   1.595   2.565   5.747 -0.2810 -0.4391 -0.0039
 3173TIP3   OH230933   2.550   1.122   4.672 -0.1545 -0.1674 -0.1116
 3173TIP3    H130934   2.494   1.111   4.596 -1.5739  0.6433  0.7560
 3173TIP3    H230935   2.567   1.033   4.704 -0.2132 -0.4636 -0.8971
 3174TIP3   OH230936   6.214   3.763   5.741 -0.1820 -0.0711  0.3159
 3174TIP3    H130937   6.257   3.734   5.822 -0.4239 -1.2817  0.0372
 3174TIP3    H230938   6.160   3.837   5.768  1.9226  1.4406  0.7053
 3175TIP3   OH230939   4.872   2.961   3.695  0.4619  0.1932  0.1930
 3175TIP3    H130940   4.904   3.004   3.615 -0.4272  1.0837  0.3072
 3175TIP3    H230941   4.946   2.906   3.723  1.2616  0.8720 -0.5149
 3176TIP3   OH230942   1.357   4.065  13.840  0.7592  0.5544  0.7882
 3176TIP3    H130943   1.431   4.047  13.783 -0.1170  0.8027 -0.4843
 3176TIP3    H230944   1.384   4.033  13.926  1.6715 -0.9491 -0.0154
 3177TIP3   OH230945   0.584   0.140   6.739  0.0530 -0.0616  0.6655
 3177TIP3    H130946   0.650   0.072   6.722  1.3436  1.0127  1.1620
 3177TIP3    H230947   0.517   0.096   6.791  0.9993 -0.8958  1.2130
 3178TIP3   OH230948   3.139   4.356  11.345 -0.4169 -0.3447  0.0423
 3178TIP3    H130949   3.168   4.329  11.258  0.8673 -0.4604  0.4774
 3178TIP3    H230950   3.079   4.428  11.330  1.4052  1.0457 -0.8761
 3179TIP3   OH230951   3.932   2.777   3.284  0.0360  0.4338  0.1885
 3179TIP3    H130952   3.954   2.840   3.216  0.1365 -0.3695 -0.5326
 3179TIP3    H230953   3.858   2.728   3.249 -0.5702  0.6669  1.0838
 3180TIP3   OH230954   5.985   0.617   2.458 -0.6709 -0.1903  0.1054
 3180TIP3    H130955   5.979   0.555   2.531 -0.5965 -1.6379 -1.0624
 3180TIP3    H230956   5.894   0.635   2.435 -0.7145  1.1336  1.2266
 3181TIP3   OH230957   4.562   5.692   0.928 -0.1543 -0.2837 -0.4568
 3181TIP3    H130958   4.558   5.758   0.859  1.1007 -0.4774 -0.7398
 3181TIP3    H230959   4.519   5.615   0.890 -3.5094  0.8902  0.5909
 3182TIP3   OH230960   6.400   0.806   4.602  0.1547 -0.0339 -0.6740
 3182TIP3    H130961   6.348   0.803   4.683  0.4360 -3.6071 -0.5010
 3182TIP3    H230962   6.475   0.861   4.625 -0.1388 -0.3618  1.2635
 3183TIP3   OH230963   0.073   0.699  14.837  0.3564 -1.0854  0.0916
 3183TIP3    H130964   0.094   0.720  14.928 -0.2543 -0.2259  0.0498
 3183TIP3    H230965   0.157   0.696  14.793  0.5183  2.6590 -0.1644
 3184TIP3   OH230966   6.068   0.750  16.404  0.3816 -0.2859 -0.1077
 3184TIP3    H130967   6.014   0.673  16.388  0.8628 -0.6950  0.1925
 3184TIP3    H230968   6.150   0.715  16.440 -0.1622  0.4674  2.0621
 3185TIP3   OH230969   4.731   3.590  15.247 -0.2669  0.2262 -0.5082
 3185TIP3    H130970   4.683   3.511  15.221 -0.1746 -0.4253  1.1659
 3185TIP3    H230971   4.681   3.625  15.321  1.1519  0.1940  0.5091
 3186TIP3   OH230972   2.609   1.646   3.422 -0.5155 -0.1698  0.3771
 3186TIP3    H130973   2.685   1.690   3.385 -1.3110  0.5737 -0.4326
 3186TIP3    H230974   2.544   1.649   3.352 -1.2975 -0.7587  1.0665
 3187TIP3   OH230975   2.966   3.642  15.465  0.2154 -0.0850  0.0111
 3187TIP3    H130976   3.024   3.578  15.506  1.2172  0.3153 -0.7543
 3187TIP3    H230977   2.922   3.594  15.395  1.0373  0.0587 -0.6236
 3188TIP3   OH230978   3.616   6.395  15.345  0.2104  0.1197  0.2755
 3188TIP3    H130979   3.659   6.419  15.263  1.0169 -1.3425  0.2420
 3188TIP3    H230980   3.535   6.351  15.317  0.1718  0.1860  0.2817
 3189TIP3   OH230981   2.970   0.078   1.975 -0.0119  0.2318  0.6136
 3189TIP3    H130982   2.989   0.126   1.895  1.6260  0.1900  0.9434
 3189TIP3    H230983   2.963  -0.013   1.947  1.2513  0.1247  0.5879
 3190TIP3   OH230984   6.133   5.298   4.808  0.4368  0.0262 -0.2087
 3190TIP3    H130985   6.071   5.366   4.781  1.6235  0.8380 -0.9824
 3190TIP3    H230986   6.090   5.253   4.881 -0.8976  0.7931 -0.4996
 3191TIP3   OH230987   0.057   1.670   6.024  0.1564 -1.0219 -0.2013
 3191TIP3    H130988   0.030   1.585   6.061  1.0842 -2.5932 -2.8600
 3191TIP3    H230989   0.146   1.683   6.056 -0.0544 -0.9616  0.3638
 3192TIP3   OH230990   6.735   2.664  11.928 -0.1294 -0.4535  0.2007
 3192TIP3    H130991   6.809   2.661  11.867  0.1257 -0.2069  0.4904
 3192TIP3    H230992   6.689   2.744  11.905 -1.0654 -1.2616 -0.8351
 3193TIP3   OH230993   2.940   3.910  16.586  0.0836 -0.1075 -0.1772
 3193TIP3    H130994   2.994   3.859  16.647 -0.8397  0.4320  1.1462
 3193TIP3    H230995   2.953   3.868  16.501  1.7537 -0.6170  0.2984
 3194TIP3   OH230996   2.107   3.824  11.761  0.1172 -0.0340  0.6051
 3194TIP3    H130997   2.057   3.785  11.833 -0.8067 -0.9673 -0.5096
 3194TIP3    H230998   2.081   3.916  11.761 -1.9828 -0.5786 -0.2065
 3195TIP3   OH230999   6.612   6.588  13.436  0.7336 -0.0649  0.2623
 3195TIP3    H131000   6.566   6.670  13.420  0.0174 -0.0823  1.9990
 3195TIP3    H231001   6.702   6.614  13.455  0.3076  0.4360  1.7155
 3196TIP3   OH231002   6.581   5.841  16.797 -0.3893  0.2066 -0.0020
 3196TIP3    H131003   6.637   5.771  16.763  0.1682  0.2398  0.8281
 3196TIP3    H231004   6.552   5.809  16.882 -0.4429  0.8165  0.2130
 3197TIP3   OH231005   0.737   4.422  10.642  0.0478 -0.2666 -0.2546
 3197TIP3    H131006   0.784   4.358  10.696  0.6048  0.2755 -0.0804
 3197TIP3    H231007   0.650   4.385  10.631 -1.0439  0.8360  3.3186
 3198TIP3   OH231008   5.794   5.850  14.867 -0.1569  0.1438  0.4895
 3198TIP3    H131009   5.790   5.945  14.855  0.6327 -0.1651 -3.4401
 3198TIP3    H231010   5.704   5.821  14.852 -0.3077  0.1982  1.2430
 3199TIP3   OH231011   5.621   4.141  11.431  0.3679 -0.2656 -0.0103
 3199TIP3    H131012   5.677   4.179  11.364  1.3704 -0.9439  0.4242
 3199TIP3    H231013   5.591   4.216  11.483  2.2241 -0.0016  0.7688
 3200TIP3   OH231014   2.260   1.438  13.461  0.1230  0.1256  0.0227
 3200TIP3    H131015   2.246   1.483  13.377  0.2545  1.4134  0.6710
 3200TIP3    H231016   2.184   1.463  13.514 -1.1406 -2.4698 -0.4047
 3201TIP3   OH231017   0.415   3.813  11.151  0.1408  0.3130 -0.3254
 3201TIP3    H131018   0.451   3.792  11.237 -0.5019 -4.3938 -0.9705
 3201TIP3    H231019   0.488   3.798  11.091 -0.8402 -2.3681 -0.9925
 3202TIP3   OH231020   3.512   2.182   1.562  0.1106 -0.0207 -0.1816
 3202TIP3    H131021   3.556   2.126   1.626  2.3945 -0.4830 -2.0084
 3202TIP3    H231022   3.502   2.126   1.485  0.4873  1.4632 -1.3385
 3203TIP3   OH231023   3.968   0.675   2.312  0.3109  0.0185  0.2188
 3203TIP3    H131024   3.962   0.618   2.235 -1.7470 -1.1731  1.1962
 3203TIP3    H231025   3.880   0.712   2.322  0.1735 -0.8025  2.6585
 3204TIP3   OH231026   1.607   1.805   5.236  0.2000 -0.6474  0.5679
 3204TIP3    H131027   1.674   1.752   5.194 -1.6509 -2.6956 -0.0403
 3204TIP3    H231028   1.634   1.811   5.327  1.1920 -1.4247  0.3413
 3205TIP3   OH231029   1.833   6.068  13.333 -0.4226 -0.4439  0.0746
 3205TIP3    H131030   1.755   6.028  13.297 -0.7826  0.0500  0.2913
 3205TIP3    H231031   1.825   6.057  13.428 -0.0906 -0.6412  0.0810
 3206TIP3   OH231032   1.571   4.751  16.976  0.4784 -0.1241  0.0681
 3206TIP3    H131033   1.504   4.722  17.038  2.5041 -2.2101  1.4741
 3206TIP3    H231034   1.550   4.842  16.959 -3.1656 -0.8513 -0.2640
 3207TIP3   OH231035   0.579   0.196  15.308  0.5298  0.5323 -0.3673
 3207TIP3    H131036   0.663   0.227  15.343  0.5418  0.4590 -0.3294
 3207TIP3    H231037   0.578   0.103  15.331  1.3172  0.0677 -2.0966
 3208TIP3   OH231038   3.620   1.489   2.590 -0.1355  0.5256  0.1078
 3208TIP3    H131039   3.583   1.573   2.563 -0.7423  0.2690  0.1266
 3208TIP3    H231040   3.578   1.425   2.533 -1.8456 -0.0996  1.9190
 3209TIP3   OH231041   6.370   0.577   1.831  0.3996 -0.1599 -0.1060
 3209TIP3    H131042   6.377   0.562   1.925  0.7076  0.2132 -0.0672
 3209TIP3    H231043   6.280   0.608   1.818 -0.7851 -3.3087 -0.3791
 3210TIP3   OH231044   6.634   5.703   4.169  0.1135  0.1993 -0.4040
 3210TIP3    H131045   6.590   5.620   4.187  0.8215  0.3514  2.4612
 3210TIP3    H231046   6.727   5.684   4.181  0.1862  1.7109  2.1403
 3211TIP3   OH231047   1.677   4.063  12.945 -0.2944  0.1688  0.0065
 3211TIP3    H131048   1.721   4.064  13.030  0.1461 -0.2710 -0.2100
 3211TIP3    H231049   1.597   4.114  12.959  1.2617  2.8431 -0.1535
 3212TIP3   OH231050   2.964   1.152  15.256 -0.0159  0.6277 -0.4579
 3212TIP3    H131051   2.909   1.224  15.288 -0.5120  0.7872 -1.6297
 3212TIP3    H231052   2.991   1.179  15.169  1.0583  0.0651 -0.3128
 3213TIP3   OH231053   1.268   3.301   5.614  0.4940  0.1559 -0.3573
 3213TIP3    H131054   1.341   3.291   5.553 -0.3903 -1.8962 -1.1708
 3213TIP3    H231055   1.264   3.217   5.660 -0.3138  0.8433  0.8696
 3214TIP3   OH231056   5.030   5.212   4.990 -0.7038 -0.0101  0.0248
 3214TIP3    H131057   5.006   5.135   5.041 -2.2910  0.6488  0.3021
 3214TIP3    H231058   4.950   5.263   4.983 -0.3337  0.3569 -2.3911
 3215TIP3   OH231059   0.756   1.983  16.232 -0.1743 -0.0545 -0.1412
 3215TIP3    H131060   0.732   2.029  16.151  1.8154  1.6013  0.0952
 3215TIP3    H231061   0.825   1.923  16.205 -0.8178 -0.8754  0.0276
 3216TIP3   OH231062   0.147   3.977  15.646  0.0075 -0.5245  0.2653
 3216TIP3    H131063   0.069   3.926  15.621 -0.3184 -0.0265  0.2605
 3216TIP3    H231064   0.168   3.948  15.734  0.3397 -1.2928 -0.0538
 3217TIP3   OH231065   4.773   3.186   5.717  1.1625 -0.0852  0.0654
 3217TIP3    H131066   4.800   3.271   5.682  0.0057  0.0210 -0.6182
 3217TIP3    H231067   4.824   3.176   5.797  0.0753  2.0901  1.1363
 3218TIP3   OH231068   6.638   2.652  14.032  0.6490  0.0697  0.3072
 3218TIP3    H131069   6.618   2.561  14.011 -0.8240  0.1986  1.0519
 3218TIP3    H231070   6.632   2.698  13.949 -0.6196 -0.1795  0.2416
 3219TIP3   OH231071   4.247   3.239  16.518 -0.1132  1.0056 -0.3795
 3219TIP3    H131072   4.156   3.218  16.539  0.3172  0.1401  0.6847
 3219TIP3    H231073   4.249   3.243  16.422 -1.2607  1.0005 -0.4141
 3220TIP3   OH231074   3.023   0.971  17.125 -0.4954 -0.8118  0.3899
 3220TIP3    H131075   2.965   1.012  17.189  0.4453 -0.6859  1.1770
 3220TIP3    H231076   2.973   0.974  17.043 -0.3140  2.3345  0.2694
 3221TIP3   OH231077   6.426   6.340   5.357 -0.4157  0.2629 -0.7979
 3221TIP3    H131078   6.498   6.278   5.368  0.8804  2.1160  3.0984
 3221TIP3    H231079   6.347   6.288   5.373  0.3584 -0.9659 -0.8144
 3222TIP3   OH231080   2.404   2.104  15.892  0.3037  0.6254  0.5451
 3222TIP3    H131081   2.459   2.176  15.921 -0.2643  1.1040  0.4563
 3222TIP3    H231082   2.421   2.034  15.955 -1.4487  1.8792  2.5820
 3223TIP3   OH231083   0.259   2.787  10.371  1.0120 -0.0453  1.0528
 3223TIP3    H131084   0.172   2.750  10.381  0.8093 -1.0139 -2.8138
 3223TIP3    H231085   0.318   2.713  10.385  0.8149 -0.9150 -1.9865
 3224TIP3   OH231086   4.700   4.043   2.482 -0.0259 -0.3261  0.0092
 3224TIP3    H131087   4.770   4.069   2.422 -0.2950 -0.8247 -0.5407
 3224TIP3    H231088   4.732   4.065   2.569 -0.0686  1.4221 -0.3859
 3225TIP3   OH231089   1.862   1.004   1.931  0.0474  0.3173 -0.1726
 3225TIP3    H131090   1.937   1.020   1.874  2.4552 -0.0469  2.6678
 3225TIP3    H231091   1.880   1.054   2.010 -2.1099 -0.8013  1.1336
 3226TIP3   OH231092   0.133   1.159   5.932 -0.4775  0.2210 -0.0428
 3226TIP3    H131093   0.060   1.189   5.879  0.3462  1.7852 -0.3475
 3226TIP3    H231094   0.208   1.160   5.873  0.1043  0.2164  0.6782
 3227TIP3   OH231095   3.424   3.744   2.938  0.1202  0.1075  0.0862
 3227TIP3    H131096   3.462   3.666   2.978 -2.4094 -1.1500  0.2852
 3227TIP3    H231097   3.412   3.720   2.846 -1.9619 -0.3687  0.4276
 3228TIP3   OH231098   6.163   2.465  11.059  0.1262  0.5893  0.4072
 3228TIP3    H131099   6.170   2.486  10.965  0.5713 -1.4133 -0.0443
 3228TIP3    H231100   6.082   2.414  11.066  1.6099 -1.8976  0.5408
 3229TIP3   OH231101   0.020   4.739   4.085  0.2286 -0.2717 -0.1210
 3229TIP3    H131102   0.100   4.791   4.072  0.8604 -0.9398  0.9538
 3229TIP3    H231103   0.021   4.675   4.014  0.8068 -0.4683  0.0619
 3230TIP3   OH231104   0.842   4.164  17.162  0.4377  0.0478 -0.3208
 3230TIP3    H131105   0.865   4.255  17.181  1.0213 -0.1779  0.1146
 3230TIP3    H231106   0.907   4.136  17.097  0.7946 -0.3026  0.1762
 3231TIP3   OH231107   6.207   5.032   4.967 -0.4586  0.7175 -0.3181
 3231TIP3    H131108   6.124   4.986   4.980  0.8960 -1.7557  0.3541
 3231TIP3    H231109   6.224   5.027   4.873  0.5404 -2.0547 -0.0984
 3232TIP3   OH231110   4.703   0.086  11.218 -0.1190  0.2389 -0.5006
 3232TIP3    H131111   4.661   0.004  11.243  0.3074  0.0875 -0.2708
 3232TIP3    H231112   4.777   0.059  11.164  0.9892  0.3623  0.8992
 3233TIP3   OH231113   5.819   6.369  17.055 -0.3899 -0.0897  0.4336
 3233TIP3    H131114   5.868   6.440  17.013  0.8146 -0.2645  1.5008
 3233TIP3    H231115   5.788   6.316  16.981  0.7641  0.2064 -0.3057
 3234TIP3   OH231116   5.937   3.185  13.133 -0.1856  0.0473  0.1806
 3234TIP3    H131117   6.023   3.163  13.171  0.0195 -1.3826 -1.0083
 3234TIP3    H231118   5.956   3.201  13.041 -0.9745  1.4212  0.2361
 3235TIP3   OH231119   5.376   2.918  15.376  0.0737 -0.1299  0.6306
 3235TIP3    H131120   5.429   2.921  15.297 -0.2211  0.6830  0.4486
 3235TIP3    H231121   5.315   2.991  15.367 -1.0513 -1.0107  0.8520
 3236TIP3   OH231122   1.064   6.596  12.887 -0.3262  0.1091 -0.0856
 3236TIP3    H131123   0.997   6.533  12.862  0.0430  0.2972 -1.6360
 3236TIP3    H231124   1.118   6.605  12.809  1.6111 -0.1514  1.1660
 3237TIP3   OH231125   0.453   4.021   1.567 -0.6490 -0.2050 -0.3721
 3237TIP3    H131126   0.468   3.935   1.527 -0.1267 -0.5123  0.4716
 3237TIP3    H231127   0.362   4.042   1.544 -0.2410 -0.1630 -2.0775
 3238TIP3   OH231128   1.664   0.232   4.526 -0.3758  0.6881  0.4513
 3238TIP3    H131129   1.741   0.206   4.577  0.5878 -0.5581 -1.5214
 3238TIP3    H231130   1.668   0.178   4.447 -1.0998  3.3768 -1.5830
 3239TIP3   OH231131   4.563   5.868   0.735  0.7082 -1.2355  0.1184
 3239TIP3    H131132   4.483   5.911   0.707 -0.4985 -2.3597  1.6585
 3239TIP3    H231133   4.612   5.853   0.654  0.3136  1.2361 -0.6483
 3240TIP3   OH231134   4.319   4.962   2.117 -0.1243 -0.1372  1.2883
 3240TIP3    H131135   4.327   5.051   2.083  0.8582 -0.9976 -0.9682
 3240TIP3    H231136   4.228   4.955   2.146 -0.3307  1.4658  1.1239
 3241TIP3   OH231137   4.677   5.803   4.339  0.2230  0.7693  0.2675
 3241TIP3    H131138   4.688   5.767   4.251  0.4816 -0.8479  0.9332
 3241TIP3    H231139   4.638   5.890   4.324 -1.4591 -0.1914 -1.3507
 3242TIP3   OH231140   6.328   6.773  13.031  0.0392 -0.0090 -0.1767
 3242TIP3    H131141   6.386   6.698  13.012 -0.1638 -0.4016  0.7129
 3242TIP3    H231142   6.320   6.818  12.947 -0.9431 -1.7632 -1.0886
 3243TIP3   OH231143   4.595   4.852  16.003  0.0323 -0.1347 -0.1787
 3243TIP3    H131144   4.521   4.792  15.996 -0.6989  0.8331 -1.3225
 3243TIP3    H231145   4.564   4.923  16.058 -0.1571  0.6027 -1.1968
 3244TIP3   OH231146   5.147   0.676   4.208  0.0405  0.5577  0.1219
 3244TIP3    H131147   5.219   0.724   4.249  0.6204  0.1463 -0.4058
 3244TIP3    H231148   5.068   0.721   4.239  0.4912  0.7125  1.1010
 3245TIP3   OH231149   2.862   3.031  11.675  0.0021 -0.4043  0.2473
 3245TIP3    H131150   2.865   3.041  11.580  1.4653 -0.9251  0.2090
 3245TIP3    H231151   2.918   2.955  11.693  2.1987  1.4324  1.7281
 3246TIP3   OH231152   5.710   2.120  13.230 -0.0827  0.3242 -0.1850
 3246TIP3    H131153   5.789   2.106  13.179 -1.2026  0.4978 -2.0887
 3246TIP3    H231154   5.710   2.214  13.249  0.4948  0.2049  0.4126
 3247TIP3   OH231155   3.719   6.174   2.725  0.2791 -0.4580  0.2788
 3247TIP3    H131156   3.639   6.152   2.772 -0.1489  1.5436  0.5638
 3247TIP3    H231157   3.698   6.156   2.633 -0.4039 -0.2371  0.3838
 3248TIP3   OH231158   0.159   5.356  16.383  0.5748 -0.0689 -0.1164
 3248TIP3    H131159   0.236   5.333  16.330 -0.4241 -0.4137 -1.5004
 3248TIP3    H231160   0.194   5.381  16.468  2.4453  2.3216 -1.4667
 3249TIP3   OH231161   2.876   5.212   4.355  0.4161  0.1877 -0.4334
 3249TIP3    H131162   2.966   5.212   4.322  1.1682 -1.3648  1.4724
 3249TIP3    H231163   2.884   5.233   4.448 -1.0808 -0.9602 -0.0014
 3250TIP3   OH231164   3.600   3.702  15.988 -0.1893  0.0034 -0.0757
 3250TIP3    H131165   3.561   3.699  15.900 -0.8127 -0.0513  0.1951
 3250TIP3    H231166   3.692   3.681  15.974 -0.1584  0.5685 -0.7900
 3251TIP3   OH231167   1.286   3.487   5.207 -0.1652 -0.5867  0.6890
 3251TIP3    H131168   1.305   3.408   5.258 -0.3102 -0.2555  1.2583
 3251TIP3    H231169   1.267   3.455   5.119  0.3222 -1.1443  0.7838
 3252TIP3   OH231170   1.318   2.373   2.800 -0.0760 -0.0793 -0.3667
 3252TIP3    H131171   1.400   2.415   2.826  0.6659 -2.1268  0.8797
 3252TIP3    H231172   1.252   2.413   2.857  0.4131  0.1722  0.0357
 3253TIP3   OH231173   5.012   0.635   3.545 -0.2542 -0.0991  0.5645
 3253TIP3    H131174   5.079   0.648   3.612  1.1431 -2.1113 -0.3354
 3253TIP3    H231175   5.002   0.540   3.539 -1.2612  0.0719 -1.1940
 3254TIP3   OH231176   4.879   5.546   4.442 -0.0886 -0.1382  0.0080
 3254TIP3    H131177   4.922   5.504   4.368  1.0091  3.1482 -1.4075
 3254TIP3    H231178   4.940   5.535   4.515  1.1480  0.7400 -0.8668
 3255TIP3   OH231179   2.479   2.986  15.208 -0.0513 -0.1577  0.0400
 3255TIP3    H131180   2.500   3.047  15.279 -1.6714  0.7453 -0.1860
 3255TIP3    H231181   2.408   2.932  15.243  1.1766 -1.7716  0.1316
 3256TIP3   OH231182   3.770   3.324   3.695  0.3219  0.0279  0.3643
 3256TIP3    H131183   3.692   3.290   3.739 -0.1157  1.1297  0.4680
 3256TIP3    H231184   3.825   3.357   3.766  0.3734  0.2712  0.2115
 3257TIP3   OH231185   6.019   5.172  10.945  0.0083  0.1603  0.0875
 3257TIP3    H131186   5.982   5.141  10.862  1.6855 -0.9699 -0.3008
 3257TIP3    H231187   6.091   5.229  10.919  2.1238 -2.0766  0.6111
 3258TIP3   OH231188   4.619   4.498   5.862 -0.0109  0.2210  0.1057
 3258TIP3    H131189   4.641   4.457   5.946  1.4441 -0.4448 -0.5634
 3258TIP3    H231190   4.669   4.579   5.862  1.9578 -0.8990 -1.0657
 3259TIP3   OH231191   3.651   6.678  15.089 -0.0678  0.2948 -0.2842
 3259TIP3    H131192   3.560   6.689  15.116  0.0791 -1.5817  1.2416
 3259TIP3    H231193   3.661   6.584  15.076  1.1008  0.6880 -2.7062
 3260TIP3   OH231194   1.596   2.978   3.412 -0.4719 -0.3530  0.0408
 3260TIP3    H131195   1.665   3.043   3.400 -1.3855  0.3937 -1.6479
 3260TIP3    H231196   1.589   2.936   3.326 -1.7807 -0.7261  0.3128
 3261TIP3   OH231197   2.582   1.084   5.864  0.1501  0.4343 -0.1902
 3261TIP3    H131198   2.624   1.136   5.795  0.5768  0.8705  0.3914
 3261TIP3    H231199   2.580   0.995   5.829  0.0266  0.7188 -0.9183
 3262TIP3   OH231200   1.959   5.044   5.587  0.2534  0.1271  0.6450
 3262TIP3    H131201   2.040   5.093   5.581  0.1651  0.2853  0.7510
 3262TIP3    H231202   1.913   5.064   5.506  0.4199 -0.1399  0.4827
 3263TIP3   OH231203   0.661   0.171  13.941  0.0497  0.4475 -0.1259
 3263TIP3    H131204   0.726   0.118  13.987  1.1065  2.9856  1.4920
 3263TIP3    H231205   0.597   0.194  14.008  0.5437  2.5614 -0.3157
 3264TIP3   OH231206   4.833   1.166   4.343  0.0392 -0.4018  0.3388
 3264TIP3    H131207   4.809   1.243   4.292  1.4316 -0.1484  0.0209
 3264TIP3    H231208   4.829   1.196   4.434 -0.2322 -0.2063  0.2659
 3265TIP3   OH231209   2.644   3.665   2.273  0.1825  0.3097  0.1724
 3265TIP3    H131210   2.653   3.607   2.349 -0.4631 -0.4099 -0.2788
 3265TIP3    H231211   2.619   3.606   2.201  0.3460  1.0377 -0.4955
 3266TIP3   OH231212   5.393   0.973  11.175 -0.2705 -0.1461  0.1346
 3266TIP3    H131213   5.365   0.906  11.113  1.2221  0.2556 -1.0364
 3266TIP3    H231214   5.414   0.925  11.255  1.4272 -1.2093 -0.8937
 3267TIP3   OH231215   1.383   1.724   4.180 -0.8587  0.2300  0.2855
 3267TIP3    H131216   1.458   1.665   4.176 -1.0838 -0.0159 -0.5270
 3267TIP3    H231217   1.391   1.778   4.102 -1.5071  0.2169  0.2007
 3268TIP3   OH231218   2.463   5.991  10.540 -0.2430  0.2851  0.9919
 3268TIP3    H131219   2.444   5.898  10.548 -2.0926  0.7819  4.3945
 3268TIP3    H231220   2.377   6.033  10.536  0.1902  2.0678  5.3541
 3269TIP3   OH231221   1.490   4.234  13.032  0.1754  0.2055  0.1219
 3269TIP3    H131222   1.416   4.291  13.009  0.1478  0.2721  0.3756
 3269TIP3    H231223   1.563   4.295  13.046  0.9917  0.0123 -2.7181
 3270TIP3   OH231224   4.712   2.372  13.493  0.1018  0.6491 -0.3530
 3270TIP3    H131225   4.640   2.419  13.450 -0.6435 -0.1876 -0.0576
 3270TIP3    H231226   4.702   2.281  13.465 -0.6681 -0.0244  1.8273
 3271TIP3   OH231227   3.308   6.753  16.876 -0.0629 -0.0623 -0.4959
 3271TIP3    H131228   3.283   6.845  16.886  0.7725  0.2889 -1.4904
 3271TIP3    H231229   3.393   6.747  16.920 -1.1985 -0.9538  1.7385
 3272TIP3   OH231230   3.019   3.131  16.037  0.5652  0.3889 -0.8087
 3272TIP3    H131231   2.977   3.120  15.952 -2.4335 -1.2796  0.7361
 3272TIP3    H231232   2.975   3.207  16.076  1.0121  0.3698 -0.2474
 3273TIP3   OH231233   6.390   0.595   0.318 -0.8872 -0.1427 -0.3130
 3273TIP3    H131234   6.323   0.564   0.258 -1.8507 -0.8640  1.0747
 3273TIP3    H231235   6.444   0.518   0.336 -0.5648  0.0809 -0.3233
 3274TIP3   OH231236   1.287   5.153   1.787 -0.0789  0.7567  0.2513
 3274TIP3    H131237   1.261   5.245   1.782  1.6497  1.3516  1.3384
 3274TIP3    H231238   1.371   5.154   1.831 -0.2920 -1.4163  0.8407
 3275TIP3   OH231239   1.706   4.402   4.367 -0.5290  0.5354 -0.3617
 3275TIP3    H131240   1.623   4.422   4.411 -1.5102 -0.9703 -1.4484
 3275TIP3    H231241   1.760   4.364   4.436 -1.6797 -0.8316 -0.1616
 3276TIP3   OH231242   4.117   1.548  15.576 -0.7261 -0.2857  0.1007
 3276TIP3    H131243   4.106   1.508  15.662 -0.1867  1.1296  0.8592
 3276TIP3    H231244   4.029   1.579  15.553 -1.2052 -2.0477 -0.6112
 3277TIP3   OH231245   4.241   3.778   0.745 -0.5103 -0.4041  0.1568
 3277TIP3    H131246   4.290   3.851   0.783 -0.9823 -0.3336  0.6453
 3277TIP3    H231247   4.282   3.763   0.660 -0.8785  0.8986 -0.2674
 3278TIP3   OH231248   3.831   0.677   0.635  0.1392  0.5368  0.1348
 3278TIP3    H131249   3.847   0.716   0.721 -0.7758 -0.5825  0.8462
 3278TIP3    H231250   3.797   0.749   0.582  1.5561  1.4492  0.4296
 3279TIP3   OH231251   5.543   4.995  14.717  0.4486  0.3367 -0.0065
 3279TIP3    H131252   5.519   5.026  14.630 -1.1796  1.1757  0.6978
 3279TIP3    H231253   5.598   4.919  14.700  0.3217  0.5795 -1.7658
 3280TIP3   OH231254   3.584   2.287  13.529 -0.1031  0.1627  0.3350
 3280TIP3    H131255   3.657   2.319  13.476 -0.8375  1.0118 -0.1965
 3280TIP3    H231256   3.546   2.366  13.567 -0.0712 -0.3687  1.5133
 3281TIP3   OH231257   6.321   4.716   3.725  0.3333  0.5495 -0.3351
 3281TIP3    H131258   6.287   4.644   3.671  1.5755 -0.3845  0.0727
 3281TIP3    H231259   6.415   4.716   3.707  0.4117  1.7811  0.0320
 3282TIP3   OH231260   1.345   6.650   1.762 -0.1210  0.3323 -0.7655
 3282TIP3    H131261   1.324   6.564   1.797 -0.3438  0.3057 -0.9573
 3282TIP3    H231262   1.288   6.659   1.685  0.0087  0.5873 -0.8342
 3283TIP3   OH231263   0.952   4.610   4.963  0.3088 -0.0132  0.3115
 3283TIP3    H131264   0.969   4.693   5.006 -1.6795  1.3127 -1.2915
 3283TIP3    H231265   0.861   4.590   4.984 -0.5779  0.4211 -2.6346
 3284TIP3   OH231266   1.706   4.322   5.135 -0.0677  0.2548 -0.4214
 3284TIP3    H131267   1.615   4.296   5.148  0.2882 -1.0964 -0.5155
 3284TIP3    H231268   1.740   4.261   5.070  1.1238  0.2062  0.2109
 3285TIP3   OH231269   3.801   3.373  13.688  0.1865  0.4280  0.1262
 3285TIP3    H131270   3.839   3.454  13.654  2.3738 -0.2529  0.7351
 3285TIP3    H231271   3.859   3.350  13.761 -1.1496 -1.0219  0.7714
 3286TIP3   OH231272   3.842   0.761  16.226 -0.2258 -0.6638 -0.2885
 3286TIP3    H131273   3.805   0.682  16.185  1.0760 -1.6876  0.4331
 3286TIP3    H231274   3.935   0.756  16.207 -0.0523  0.4339  0.2400
 3287TIP3   OH231275   6.751   1.442   4.206 -0.0861  0.0802  0.0244
 3287TIP3    H131276   6.784   1.359   4.171 -0.0602  0.2080 -0.2554
 3287TIP3    H231277   6.721   1.420   4.295  0.8787 -0.0039  0.3360
 3288TIP3   OH231278   2.742   5.358   3.377  0.4354  0.2972 -0.2744
 3288TIP3    H131279   2.812   5.383   3.317 -0.7681 -0.0934 -1.9185
 3288TIP3    H231280   2.755   5.265   3.392 -1.5891 -0.6871 -3.4168
 3289TIP3   OH231281   6.021   0.993   0.416  0.1387  0.0768 -0.4943
 3289TIP3    H131282   5.977   0.918   0.455  1.0815 -0.0411  0.3735
 3289TIP3    H231283   6.075   0.956   0.346  1.3107 -0.1770  0.5327
 3290TIP3   OH231284   5.411   2.795   4.400  0.6513 -0.2043 -0.0617
 3290TIP3    H131285   5.498   2.834   4.403 -0.3078  2.0432  0.5436
 3290TIP3    H231286   5.384   2.802   4.309 -0.5106  3.0792  0.4310
 3291TIP3   OH231287   2.134   0.930  11.678  0.5082  0.0485 -0.3756
 3291TIP3    H131288   2.118   0.899  11.589 -2.8620  0.3554  0.0146
 3291TIP3    H231289   2.229   0.939  11.683  0.7804  0.9418 -4.2323
 3292TIP3   OH231290   6.049   6.327  13.562 -0.0710  0.6724 -0.1290
 3292TIP3    H131291   6.086   6.409  13.594 -0.0867  0.6064  0.0559
 3292TIP3    H231292   6.124   6.269  13.553  0.0137  0.8604 -0.7405
 3293TIP3   OH231293   2.802   1.068  11.440  0.4465  0.0348 -0.6809
 3293TIP3    H131294   2.822   0.984  11.397  1.4449  0.2349 -0.6381
 3293TIP3    H231295   2.848   1.133  11.387 -1.5029  0.7589 -1.5871
 3294TIP3   OH231296   6.582   1.769   2.427  0.5313 -0.1212  0.6144
 3294TIP3    H131297   6.635   1.841   2.460  0.6080  0.0654  0.0952
 3294TIP3    H231298   6.545   1.728   2.505 -0.5851  1.2864  0.8615
 3295TIP3   OH231299   6.159   2.110   0.738 -0.6084 -0.1752  0.3574
 3295TIP3    H131300   6.180   2.152   0.654  1.1549 -0.5929  0.5399
 3295TIP3    H231301   6.065   2.123   0.749 -0.7378  0.5567 -1.3165
 3296TIP3   OH231302   0.650   2.323   0.724  0.2420 -0.3837 -0.3276
 3296TIP3    H131303   0.697   2.251   0.765  0.4238 -0.8817 -1.3944
 3296TIP3    H231304   0.676   2.400   0.774  1.5040 -0.7859 -0.3435
 3297TIP3   OH231305   0.399   1.444  14.324 -0.0291  0.2832  0.2349
 3297TIP3    H131306   0.361   1.499  14.255  1.2214  0.1919 -0.5521
 3297TIP3    H231307   0.364   1.479  14.405 -1.7287  0.2553 -0.4419
 3298TIP3   OH231308   2.784   0.357   4.414 -0.8424 -0.3753  1.1943
 3298TIP3    H131309   2.831   0.275   4.427  2.0381  0.5842 -1.6243
 3298TIP3    H231310   2.804   0.409   4.491  0.1828 -1.1497  1.4773
 3299TIP3   OH231311   0.848   0.320  13.075 -0.3181  0.5122 -0.0274
 3299TIP3    H131312   0.786   0.378  13.119 -0.2011  0.6261 -0.0146
 3299TIP3    H231313   0.873   0.368  12.996 -0.0649  0.5665  0.0867
 3300TIP3   OH231314   2.686   2.932   2.661 -0.1678  0.4902 -0.5497
 3300TIP3    H131315   2.759   2.955   2.605  0.9283 -1.1012  0.1437
 3300TIP3    H231316   2.723   2.928   2.749 -1.5281  1.5385  0.1132
 3301TIP3   OH231317   4.342   6.514   0.828 -0.6925  0.2983 -0.3753
 3301TIP3    H131318   4.421   6.497   0.777 -1.1897 -1.4313 -0.6251
 3301TIP3    H231319   4.352   6.605   0.858  1.6394 -0.0336  0.0562
 3302TIP3   OH231320   4.103   5.258   5.004 -0.2735  0.3347  0.0053
 3302TIP3    H131321   4.057   5.330   4.959  0.3592  1.2506  0.7704
 3302TIP3    H231322   4.043   5.233   5.075  0.2103  1.2956  0.7906
 3303TIP3   OH231323   2.767   6.523  13.120  0.1935  0.3786 -0.1903
 3303TIP3    H131324   2.828   6.480  13.180  1.3169 -0.6518 -1.9973
 3303TIP3    H231325   2.697   6.460  13.107 -1.0892  1.3566  1.4626
 3304TIP3   OH231326   0.437   4.599   4.871 -0.1836 -0.4906  0.4174
 3304TIP3    H131327   0.508   4.618   4.933 -0.4334 -1.2664  0.9593
 3304TIP3    H231328   0.373   4.669   4.886  0.2617 -0.0447  0.2437
 3305TIP3   OH231329   4.820   5.683  10.811  0.7702 -0.4447 -0.2814
 3305TIP3    H131330   4.792   5.700  10.901  0.7648 -1.5251 -0.0574
 3305TIP3    H231331   4.915   5.676  10.817  0.7030 -1.4314 -0.1755
 3306TIP3   OH231332   4.272   3.936   2.710  0.2517 -0.1248 -0.4150
 3306TIP3    H131333   4.285   3.879   2.635 -1.4094 -0.6188 -0.3718
 3306TIP3    H231334   4.184   3.972   2.698  0.3966  0.6687  0.7118
 3307TIP3   OH231335   3.349   6.427   6.102  0.0873 -0.2771  0.1117
 3307TIP3    H131336   3.294   6.390   6.170 -0.0257 -0.9223 -0.3225
 3307TIP3    H231337   3.423   6.366   6.096 -0.4625 -0.8562 -1.1144
 3308TIP3   OH231338   4.592   2.164  11.048 -0.0715 -0.6218 -0.2853
 3308TIP3    H131339   4.599   2.252  11.011 -1.3372 -0.0182  0.8409
 3308TIP3    H231340   4.505   2.134  11.022 -0.2750 -0.8970  0.6731
 3309TIP3   OH231341   3.958   1.180   0.203  0.1906 -0.7074 -0.9182
 3309TIP3    H131342   3.869   1.174   0.238 -0.6526  0.3440 -2.7221
 3309TIP3    H231343   3.990   1.090   0.205 -0.3627 -0.9144  1.0190
 3310TIP3   OH231344   6.531   4.955   4.138  0.0459 -0.4827 -0.2761
 3310TIP3    H131345   6.482   4.873   4.136 -1.9355  0.6263 -1.8250
 3310TIP3    H231346   6.547   4.976   4.046  0.8442  0.6890  0.1077
 3311TIP3   OH231347   2.314   1.270   0.891 -0.2599 -0.5796  0.1586
 3311TIP3    H131348   2.244   1.309   0.943 -0.4423  0.7817 -1.0680
 3311TIP3    H231349   2.343   1.195   0.944 -1.7157 -0.3861  1.3116
 3312TIP3   OH231350   1.020   1.844   0.305  0.1870  0.4049 -0.5827
 3312TIP3    H131351   0.981   1.759   0.323  3.6237 -1.2456 -0.1992
 3312TIP3    H231352   1.032   1.884   0.391  0.2034  0.5129 -0.6343
 3313TIP3   OH231353   5.926   2.450   5.032  0.9347  0.1025  0.1913
 3313TIP3    H131354   5.841   2.420   5.065  1.4919 -3.0810 -0.9274
 3313TIP3    H231355   5.908   2.480   4.943  0.7301  1.0561  0.5468
 3314TIP3   OH231356   1.811   5.226   5.721 -0.2548 -0.1270  0.0584
 3314TIP3    H131357   1.745   5.237   5.653  0.4261  1.0107 -0.4575
 3314TIP3    H231358   1.849   5.140   5.704 -2.0500 -1.1228  0.8064
 3315TIP3   OH231359   6.609   2.511   4.594  0.4498  0.3140 -0.4509
 3315TIP3    H131360   6.535   2.463   4.556 -0.1982  0.3614  0.6910
 3315TIP3    H231361   6.648   2.450   4.657  0.7791  0.6300 -0.3434
 3316TIP3   OH231362   6.025   1.646  14.599 -0.5183 -0.1123 -0.0415
 3316TIP3    H131363   6.089   1.671  14.531  0.1775 -0.7823  0.3587
 3316TIP3    H231364   6.019   1.724  14.655 -0.8969  0.3526 -0.7080
 3317TIP3   OH231365   6.128   5.482   0.633  0.0393  0.7980 -0.5682
 3317TIP3    H131366   6.128   5.392   0.666 -1.2457  1.2069  0.6385
 3317TIP3    H231367   6.047   5.489   0.583 -0.4683  1.6069  0.3370
 3318TIP3   OH231368   1.528   5.482  15.213  0.1099  0.2137 -0.0079
 3318TIP3    H131369   1.489   5.566  15.191 -1.0029 -0.2994 -0.0774
 3318TIP3    H231370   1.523   5.432  15.131  1.8967  0.4782 -0.3126
 3319TIP3   OH231371   3.777   0.311  12.113 -0.3243 -0.0032  0.6062
 3319TIP3    H131372   3.820   0.378  12.060 -0.8788  0.3556  0.6078
 3319TIP3    H231373   3.708   0.276  12.057 -0.6178  0.0560  0.9298
 3320TIP3   OH231374   6.764   2.955  15.705 -0.1765 -0.5495  0.0885
 3320TIP3    H131375   6.712   2.875  15.704  2.0486 -2.0735 -0.9810
 3320TIP3    H231376   6.780   2.972  15.798 -0.3848 -1.5482  0.3191
 3321TIP3   OH231377   6.777   6.247  13.668  0.5140 -0.0658 -0.8559
 3321TIP3    H131378   6.748   6.332  13.700  3.4253  0.9298 -0.5616
 3321TIP3    H231379   6.739   6.184  13.729 -1.5084  1.0049 -0.9453
 3322TIP3   OH231380   0.235   6.782  13.006  0.0184 -0.1085 -0.1171
 3322TIP3    H131381   0.297   6.710  12.995 -0.3981 -0.4602 -0.1501
 3322TIP3    H231382   0.165   6.746  13.059  0.9488  0.9449  1.9313
 3323TIP3   OH231383   2.903   3.520  16.496  0.9618  0.3191  0.1991
 3323TIP3    H131384   2.821   3.488  16.534  1.9718 -3.4355 -0.3786
 3323TIP3    H231385   2.953   3.553  16.571  0.1488 -0.3096  1.0391
 3324TIP3   OH231386   1.446   0.861  15.713 -0.2947  0.0771  0.2976
 3324TIP3    H131387   1.473   0.773  15.688  0.6340 -0.4823  3.0426
 3324TIP3    H231388   1.526   0.912  15.713 -1.1893  2.1851 -5.0788
 3325TIP3   OH231389   1.905   2.287   5.449 -0.5575  0.4945 -0.1912
 3325TIP3    H131390   1.865   2.349   5.388 -0.5225  1.7653  1.0305
 3325TIP3    H231391   1.966   2.340   5.501 -0.6880 -0.5081  1.0460
 3326TIP3   OH231392   3.005   4.243   4.521  0.1583 -0.0682  0.5971
 3326TIP3    H131393   3.031   4.331   4.493  2.5152 -0.8309  0.1204
 3326TIP3    H231394   3.000   4.248   4.616 -0.6937  0.7888  0.5231
 3327TIP3   OH231395   1.143   6.073   0.954 -1.1535  0.1134  0.7264
 3327TIP3    H131396   1.170   5.983   0.973  0.9558  0.4675 -0.2757
 3327TIP3    H231397   1.168   6.122   1.032  1.2033  0.4088 -0.1282
 3328TIP3   OH231398   1.166   5.999  17.161  0.0642  0.3370  0.4289
 3328TIP3    H131399   1.128   6.019  17.247  0.5291 -0.2042  0.7589
 3328TIP3    H231400   1.093   6.012  17.100 -0.3563  0.3939  0.9361
 3329TIP3   OH231401   3.239   1.849  11.432  0.3282  0.9676  0.3909
 3329TIP3    H131402   3.291   1.772  11.455  0.6706  1.3611  0.9550
 3329TIP3    H231403   3.233   1.899  11.514 -2.3434  0.1237  0.8019
 3330TIP3   OH231404   3.893   5.480   0.085  0.3258  0.0528  0.1289
 3330TIP3    H131405   3.802   5.454   0.091  0.3154  0.1372  0.3487
 3330TIP3    H231406   3.900   5.559   0.140  0.8937 -0.9169  1.5066
 3331TIP3   OH231407   1.916   4.359   0.614  0.2710 -0.7077 -0.5229
 3331TIP3    H131408   1.903   4.453   0.615  1.3631 -0.3113 -4.7525
 3331TIP3    H231409   1.999   4.346   0.660 -0.4803  0.1597  1.1667
 3332TIP3   OH231410   4.921   1.334  16.767  0.6102 -0.4025 -0.6252
 3332TIP3    H131411   4.853   1.307  16.829 -1.2797  0.5660 -2.1519
 3332TIP3    H231412   4.962   1.252  16.739  0.5321 -0.9581  0.8043
 3333TIP3   OH231413   6.058   0.679  16.764  0.1678  0.3964  0.5331
 3333TIP3    H131414   6.094   0.615  16.827 -1.4904 -1.2791 -0.1345
 3333TIP3    H231415   6.026   0.751  16.818 -1.6453 -1.2193  1.7167
 3334TIP3   OH231416   3.709   5.724   0.089  0.5685  0.0153 -0.2332
 3334TIP3    H131417   3.754   5.733   0.006 -1.4046  0.2075 -1.3574
 3334TIP3    H231418   3.623   5.764   0.074  0.0578 -0.1719  1.8230
 3335TIP3   OH231419   1.248   4.223   2.159  0.1177 -0.8032 -0.1785
 3335TIP3    H131420   1.184   4.155   2.136 -0.3523 -0.7011  0.7878
 3335TIP3    H231421   1.315   4.176   2.209  1.7896 -1.2730 -2.6528
 3336TIP3   OH231422   4.712   5.192  15.434 -0.5575 -0.8151  0.2042
 3336TIP3    H131423   4.747   5.221  15.350  0.7258  0.7650  1.2097
 3336TIP3    H231424   4.666   5.269  15.468 -1.1806 -1.4758  0.8933
 3337TIP3   OH231425   1.241   1.238  13.694 -0.4391 -0.3623 -0.0059
 3337TIP3    H131426   1.264   1.145  13.696  0.1231 -0.2119  1.2137
 3337TIP3    H231427   1.260   1.265  13.604 -1.0551 -1.5161 -0.5186
 3338TIP3   OH231428   5.770   2.878  13.411 -0.1687 -0.7019 -0.7225
 3338TIP3    H131429   5.701   2.924  13.460  1.1121 -0.6108  1.1120
 3338TIP3    H231430   5.850   2.898  13.459  1.0363 -1.4784 -2.3230
 3339TIP3   OH231431   6.688   1.439  14.063 -0.4563  0.5127  0.0855
 3339TIP3    H131432   6.702   1.420  14.155  2.6595  2.3636  0.1347
 3339TIP3    H231433   6.750   1.382  14.017 -2.7483 -1.2224 -1.0634
 3340TIP3   OH231434   6.411   0.564   2.681 -0.0113 -0.4565  0.3731
 3340TIP3    H131435   6.431   0.639   2.736 -0.4556  0.1026 -0.2135
 3340TIP3    H231436   6.342   0.518   2.728 -1.5576  0.9171 -0.4611
 3341TIP3   OH231437   4.077   4.065  13.889  0.0349 -0.2672 -0.4328
 3341TIP3    H131438   4.162   4.069  13.846 -0.0430 -2.2089 -0.8781
 3341TIP3    H231439   4.090   4.005  13.963 -0.3520  1.3723  1.0333
 3342TIP3   OH231440   4.791   5.221   5.484  0.4163 -0.4254  0.2993
 3342TIP3    H131441   4.706   5.186   5.458  0.5406 -0.3572 -0.2252
 3342TIP3    H231442   4.797   5.203   5.578  0.1824 -1.1936  0.1788
 3343TIP3   OH231443   1.045   0.309   3.769  0.1943  0.3313 -0.7745
 3343TIP3    H131444   1.014   0.399   3.766 -2.3130 -0.4263 -0.3917
 3343TIP3    H231445   0.990   0.262   3.705  0.1018 -1.2512  0.3951
 3344TIP3   OH231446   3.466   4.244   4.701  0.6621  0.5371 -0.5114
 3344TIP3    H131447   3.444   4.215   4.790  0.6053 -1.1190 -1.0338
 3344TIP3    H231448   3.399   4.207   4.645 -0.1339  2.7519 -1.1490
 3345TIP3   OH231449   5.048   4.097   4.524  0.0737  0.1153 -0.3104
 3345TIP3    H131450   5.070   4.038   4.452  1.7819 -0.2132  0.4246
 3345TIP3    H231451   5.085   4.181   4.499 -0.1148  0.2251 -0.2188
 3346TIP3   OH231452   2.760   6.425   5.610  0.4425 -0.0208 -0.2642
 3346TIP3    H131453   2.841   6.436   5.659  0.2825  0.5163 -0.1107
 3346TIP3    H231454   2.774   6.473   5.529 -0.2700  1.3961  0.4188
 3347TIP3   OH231455   2.120   3.821   2.127 -0.5314  0.1698  0.2925
 3347TIP3    H131456   2.053   3.884   2.154 -0.2322  0.0072  1.4769
 3347TIP3    H231457   2.072   3.740   2.111 -0.9756  0.7829 -1.6557
 3348TIP3   OH231458   4.686   1.492   0.437 -0.3723  0.0355  0.0561
 3348TIP3    H131459   4.735   1.555   0.490  2.0458 -1.0777 -0.7116
 3348TIP3    H231460   4.667   1.420   0.498 -1.2605  0.5310  0.3911
 3349TIP3   OH231461   2.807   3.103  13.008 -0.8759 -0.4835  0.2081
 3349TIP3    H131462   2.840   3.016  13.033 -1.5616  0.0021  3.2805
 3349TIP3    H231463   2.712   3.093  13.005 -1.0173  0.2975  1.4350
 3350TIP3   OH231464   0.117   5.761  11.418 -0.1590  0.2004  0.1356
 3350TIP3    H131465   0.120   5.708  11.498 -1.3497  1.5487  1.1229
 3350TIP3    H231466   0.207   5.759  11.385  0.7429  0.8333  2.3528
 3351TIP3   OH231467   0.309   1.670   4.410  0.2602  0.2289  0.1565
 3351TIP3    H131468   0.320   1.700   4.500 -0.7143 -1.6312  0.9450
 3351TIP3    H231469   0.278   1.580   4.418 -0.0961  0.0963 -2.0476
 3352TIP3   OH231470   3.433   0.691   2.994 -0.2777 -0.5361  0.1750
 3352TIP3    H131471   3.353   0.682   2.943  0.1644 -1.3421 -0.3945
 3352TIP3    H231472   3.503   0.696   2.929  0.1988 -0.4957  0.6754
 3353TIP3   OH231473   5.203   3.791   1.817  0.0749 -0.2330 -0.3161
 3353TIP3    H131474   5.142   3.719   1.797 -0.7564  0.5538 -0.6989
 3353TIP3    H231475   5.290   3.751   1.810 -0.3194 -0.9053 -1.8304
 3354TIP3   OH231476   5.529   1.474  11.999 -0.3924 -0.0787 -0.2368
 3354TIP3    H131477   5.585   1.462  11.922  1.0283  2.0318  0.3637
 3354TIP3    H231478   5.441   1.486  11.963 -0.3724 -2.4974 -1.2772
 3355TIP3   OH231479   5.427   2.919   0.627  0.4015  0.1732  0.2474
 3355TIP3    H131480   5.516   2.953   0.629  0.0053  1.3005 -0.2138
 3355TIP3    H231481   5.385   2.965   0.555 -0.5844 -0.2590  0.5224
 3356TIP3   OH231482   5.241   5.233   1.008  0.6327 -0.2991 -0.2430
 3356TIP3    H131483   5.309   5.182   1.052  1.2601 -0.3346 -1.2142
 3356TIP3    H231484   5.162   5.180   1.014  0.1783  0.4796  2.4325
 3357TIP3   OH231485   2.199   1.222  16.034  0.0439 -0.3648  0.0439
 3357TIP3    H131486   2.211   1.176  15.951 -0.7332  1.2811 -1.0408
 3357TIP3    H231487   2.239   1.165  16.099  0.1990 -1.9631 -1.3779
 3358TIP3   OH231488   4.699   4.991   5.655  0.1449 -0.2449  0.6361
 3358TIP3    H131489   4.639   5.063   5.634  0.1926 -0.3293  0.1964
 3358TIP3    H231490   4.731   5.011   5.742 -1.1379 -0.6034  1.2204
 3359TIP3   OH231491   3.979   5.643  10.288  0.3161 -0.1750 -0.5193
 3359TIP3    H131492   3.950   5.632  10.379  0.0827  0.1374 -0.5541
 3359TIP3    H231493   3.916   5.594  10.236 -1.3061  2.0411 -0.7641
 3360TIP3   OH231494   2.052   5.134  15.404  0.1613 -0.9235  0.6250
 3360TIP3    H131495   2.016   5.093  15.325 -0.2152  1.1413 -0.3366
 3360TIP3    H231496   1.977   5.141  15.464 -0.8086  1.8471 -0.7395
 3361TIP3   OH231497   2.675   0.182   2.918 -0.9339 -0.0222 -0.6026
 3361TIP3    H131498   2.633   0.181   2.832 -2.2348  1.0942 -0.0192
 3361TIP3    H231499   2.638   0.259   2.962 -0.9430 -1.0388  1.2685
 3362TIP3   OH231500   2.010   4.982   2.965 -0.0898  0.4022  0.4904
 3362TIP3    H131501   1.989   5.006   2.875  0.0103  0.7564  0.5607
 3362TIP3    H231502   1.950   5.035   3.018 -1.3249 -1.0343  0.5792
 3363TIP3   OH231503   0.402   3.046   0.572  0.0528 -0.6238  0.3732
 3363TIP3    H131504   0.489   3.071   0.604  2.0747 -3.5912 -2.2596
 3363TIP3    H231505   0.365   3.127   0.538  2.2890  0.5395  0.5270
 3364TIP3   OH231506   1.919   5.934   1.208 -0.1747  0.6329 -0.1646
 3364TIP3    H131507   1.849   5.973   1.260  0.0059  2.3532 -1.1294
 3364TIP3    H231508   1.879   5.917   1.123  0.3218  0.6919 -0.4116
 3365TIP3   OH231509   4.978   3.034  12.479  0.1035  0.4805  0.1388
 3365TIP3    H131510   5.029   3.026  12.560 -1.4397 -1.9674  0.9481
 3365TIP3    H231511   4.921   2.957  12.478 -1.6608  1.6963 -2.0778
 3366TIP3   OH231512   4.617   1.421  15.556 -0.5531  0.4697  0.5110
 3366TIP3    H131513   4.665   1.434  15.474  1.3298 -0.9819  1.3102
 3366TIP3    H231514   4.571   1.338  15.545  0.2407 -0.0623  1.1555
 3367TIP3   OH231515   0.061   2.824   3.015 -0.3200  0.2584 -0.0235
 3367TIP3    H131516   0.087   2.797   3.103  0.2001 -0.9585 -0.5238
 3367TIP3    H231517   0.088   2.751   2.959 -2.8102 -0.0876 -0.8985
 3368TIP3   OH231518   1.705   6.639   6.266 -0.2052  0.0109  0.6748
 3368TIP3    H131519   1.789   6.684   6.271  1.2615 -2.0314 -2.4982
 3368TIP3    H231520   1.723   6.551   6.298 -1.0109 -0.5525 -0.3673
 3369TIP3   OH231521   3.375   1.406   1.193 -0.2531  0.2036 -0.6475
 3369TIP3    H131522   3.465   1.434   1.211  0.1519 -0.9726 -0.7796
 3369TIP3    H231523   3.351   1.353   1.269 -0.8399  0.5207 -0.6103
 3370TIP3   OH231524   0.056   3.929  12.116  0.2483 -1.0680 -0.2226
 3370TIP3    H131525   0.074   3.971  12.032  1.2950 -0.4976  0.2513
 3370TIP3    H231526   0.068   3.835  12.100  0.0357 -0.9950 -0.8061
 3371TIP3   OH231527   2.596   1.745  11.600  0.0323  0.5706  0.8193
 3371TIP3    H131528   2.666   1.712  11.544 -0.4203  0.6508  0.2021
 3371TIP3    H231529   2.591   1.681  11.672  0.4373  0.3316  0.6419
 3372TIP3   OH231530   3.566   1.366  12.834 -0.2496 -0.2402  0.0060
 3372TIP3    H131531   3.497   1.347  12.770  0.6518 -1.5844 -0.6099
 3372TIP3    H231532   3.561   1.293  12.896 -1.2587  1.1528  1.6568
 3373TIP3   OH231533   4.690   2.073   1.392 -0.6320  0.3014 -0.1103
 3373TIP3    H131534   4.694   2.101   1.483 -1.3062  0.6343 -0.1767
 3373TIP3    H231535   4.629   2.000   1.391 -0.3855  0.0964 -0.2467
 3374TIP3   OH231536   1.670   1.726   1.064 -0.0178  0.1975  0.0665
 3374TIP3    H131537   1.674   1.819   1.083  0.5361  0.0260  0.8481
 3374TIP3    H231538   1.687   1.720   0.970  1.0430  0.8207  0.1989
 3375TIP3   OH231539   0.022   2.192   5.267  0.0285 -0.3771 -0.0343
 3375TIP3    H131540   0.112   2.220   5.249 -0.6225  1.1451 -1.2132
 3375TIP3    H231541   0.030   2.103   5.299  2.0846  0.3080  1.5658
 3376TIP3   OH231542   4.108   5.780  13.162  0.0006 -0.2884 -0.0013
 3376TIP3    H131543   4.118   5.740  13.248 -0.8866  0.5938  0.5386
 3376TIP3    H231544   4.018   5.761  13.136 -0.7172  1.8970  0.6185
 3377TIP3   OH231545   1.639   3.429  16.837 -0.2446  0.5821 -0.0992
 3377TIP3    H131546   1.673   3.342  16.816  3.0654  0.9428  2.9343
 3377TIP3    H231547   1.673   3.485  16.767 -1.6975 -0.3185 -1.6042
 3378TIP3   OH231548   0.428   4.427   6.026 -0.0753  0.5297 -0.1432
 3378TIP3    H131549   0.336   4.403   6.042  0.5851 -1.2578  1.3333
 3378TIP3    H231550   0.477   4.377   6.091  2.2863 -1.5641 -3.2356
 3379TIP3   OH231551   5.018   4.135   4.157  0.1488 -0.1618 -0.0391
 3379TIP3    H131552   5.048   4.214   4.203  1.1817 -1.1504  1.0411
 3379TIP3    H231553   4.929   4.156   4.129  0.1742  1.1545  0.7953
 3380TIP3   OH231554   2.936   5.633   3.978 -0.0433  0.3419 -0.3856
 3380TIP3    H131555   2.849   5.596   3.990 -0.3157  1.2922  0.6840
 3380TIP3    H231556   2.951   5.687   4.055  2.4982 -1.6838  0.7110
 3381TIP3   OH231557   4.170   3.871  15.620 -0.4719  0.2724  0.1701
 3381TIP3    H131558   4.114   3.804  15.658 -1.5467 -0.0228 -1.7667
 3381TIP3    H231559   4.182   3.936  15.689 -0.7643 -1.1059  1.5601
 3382TIP3   OH231560   3.871   4.560  11.205 -0.2939 -0.5274 -0.3487
 3382TIP3    H131561   3.909   4.596  11.125  0.6322 -0.8108 -0.0509
 3382TIP3    H231562   3.931   4.489  11.230  0.1496  0.3845  1.2951
 3383TIP3   OH231563   1.077   5.455   6.071  0.3768 -0.3818  0.5084
 3383TIP3    H131564   1.098   5.461   5.978 -0.9257 -0.5546  0.1811
 3383TIP3    H231565   1.029   5.536   6.091 -0.5866 -0.9684  0.6694
 3384TIP3   OH231566   5.318   5.226  10.900  0.3186  0.6243 -0.1863
 3384TIP3    H131567   5.320   5.216  10.804 -1.2035 -0.8419 -0.1082
 3384TIP3    H231568   5.296   5.318  10.913 -1.0958  0.5009 -1.3190
 3385TIP3   OH231569   2.345   5.317   2.952  0.1910 -0.1183 -0.1219
 3385TIP3    H131570   2.309   5.232   2.980 -0.1142  0.0120 -0.1203
 3385TIP3    H231571   2.285   5.382   2.988  1.5984  0.2317  1.7662
 3386TIP3   OH231572   3.757   2.566   5.051 -0.2597  0.3743  0.2389
 3386TIP3    H131573   3.665   2.590   5.041 -0.4490 -1.2639 -3.8063
 3386TIP3    H231574   3.803   2.623   4.989  0.7356 -1.8877 -1.2216
 3387TIP3   OH231575   3.959   5.200  15.307  0.2913  0.3450  0.1438
 3387TIP3    H131576   4.004   5.193  15.223  2.4365  0.0150  1.2299
 3387TIP3    H231577   3.901   5.124  15.310 -0.0208  0.5103 -1.1162
 3388TIP3   OH231578   2.230   2.402   5.310  0.3464  0.3997 -0.5257
 3388TIP3    H131579   2.246   2.496   5.305 -2.6750  1.0765  0.7651
 3388TIP3    H231580   2.163   2.386   5.244  1.3664 -1.0471 -1.2678
 3389TIP3   OH231581   2.190   5.928   1.629 -0.0576 -0.2321 -0.2063
 3389TIP3    H131582   2.262   5.898   1.575  1.9675  0.9094  1.6874
 3389TIP3    H231583   2.145   5.994   1.576  0.4956 -0.7074 -1.2824
 3390TIP3   OH231584   1.223   2.745   3.832  0.3386  0.7228  0.6211
 3390TIP3    H131585   1.183   2.746   3.919  0.5085  0.9169  0.6968
 3390TIP3    H231586   1.258   2.656   3.823 -1.1741  0.1355  0.0628
 3391TIP3   OH231587   5.381   5.332   1.741  0.1033  0.5226 -0.0988
 3391TIP3    H131588   5.434   5.372   1.673 -1.3375  1.6255 -0.6130
 3391TIP3    H231589   5.421   5.360   1.823  1.9810 -0.9858 -0.4216
 3392TIP3   OH231590   4.312   1.738  15.696  0.5046 -0.9274  0.3140
 3392TIP3    H131591   4.304   1.647  15.725  0.9388 -0.5400  1.7199
 3392TIP3    H231592   4.224   1.762  15.666 -0.2612 -1.0402  2.3219
 3393TIP3   OH231593   2.994   5.467  11.092 -0.7747  0.3086  0.5807
 3393TIP3    H131594   2.920   5.411  11.072 -0.4109 -0.0372  0.1832
 3393TIP3    H231595   2.955   5.550  11.120 -1.3104  0.3787 -0.3275
 3394TIP3   OH231596   1.926   5.318   4.423  0.8497 -0.0832  0.0675
 3394TIP3    H131597   1.981   5.244   4.397  3.6102  1.3110  1.5615
 3394TIP3    H231598   1.842   5.278   4.446  1.3418 -2.3840 -1.7362
 3395TIP3   OH231599   3.610   0.721   2.807  0.1707 -0.6103  0.0280
 3395TIP3    H131600   3.610   0.790   2.741 -0.5501  0.1590  0.8093
 3395TIP3    H231601   3.701   0.717   2.837 -0.0788  1.2640  1.2145
 3396TIP3   OH231602   0.535   1.808   0.438  0.1407 -0.2930 -0.4886
 3396TIP3    H131603   0.545   1.755   0.517  0.3075  0.7549  0.2100
 3396TIP3    H231604   0.461   1.768   0.391 -1.5154  0.4470  1.3553
 3397TIP3   OH231605   3.257   4.428  10.868 -0.3349 -0.0784 -0.0578
 3397TIP3    H131606   3.198   4.479  10.925 -0.7428  0.3722 -0.8605
 3397TIP3    H231607   3.344   4.461  10.888 -0.6487  1.4126 -1.0070
 3398TIP3   OH231608   6.385   6.236  13.488 -0.0462  0.1526  0.3910
 3398TIP3    H131609   6.380   6.247  13.583 -0.0358 -0.3120  0.4462
 3398TIP3    H231610   6.449   6.166  13.475 -1.1605 -0.8360  0.1077
 3399TIP3   OH231611   0.031   1.020   2.915  0.2917  0.0305  0.3942
 3399TIP3    H131612   0.066   1.074   2.986 -0.5541 -0.1054  0.9270
 3399TIP3    H231613  -0.011   1.083   2.856 -0.9025 -0.0339  1.1357
 3400TIP3   OH231614   1.466   0.669  17.170  0.6420 -0.5875 -0.2213
 3400TIP3    H131615   1.443   0.584  17.133  0.1314  0.0991 -1.5213
 3400TIP3    H231616   1.423   0.733  17.114  1.3888  0.5562  0.4609
 3401TIP3   OH231617   4.332   2.519   3.084  0.2972 -0.3703 -0.2514
 3401TIP3    H131618   4.290   2.552   3.163  2.1025 -1.3344  1.1878
 3401TIP3    H231619   4.332   2.593   3.024 -0.7409  0.5087  0.7759
 3402TIP3   OH231620   1.532   5.487  12.260 -0.4329  0.0618 -0.4715
 3402TIP3    H131621   1.476   5.557  12.294 -0.7848 -1.1636  1.6277
 3402TIP3    H231622   1.526   5.496  12.165 -3.8398  0.3300 -0.3672
 3403TIP3   OH231623   5.373   0.014   5.215 -1.0152  0.4858  0.1118
 3403TIP3    H131624   5.382   0.001   5.121 -0.2862  0.7353  0.1440
 3403TIP3    H231625   5.395  -0.071   5.253  2.5317  1.2899  0.2514
 3404TIP3   OH231626   5.012   4.604   3.044  0.0761  0.3806  0.6542
 3404TIP3    H131627   4.989   4.548   3.118 -4.7856  3.9913  2.3866
 3404TIP3    H231628   5.066   4.673   3.083 -1.0146  1.3340  0.5245
 3405TIP3   OH231629   1.241   4.419   4.751  0.2205  0.1925  0.3452
 3405TIP3    H131630   1.203   4.375   4.827 -0.1522 -0.8833 -0.4624
 3405TIP3    H231631   1.303   4.482   4.790  0.4431 -0.7152  1.5234
 3406TIP3   OH231632   2.744   1.972   5.529  0.0563 -0.9214 -0.0889
 3406TIP3    H131633   2.652   1.989   5.550  0.5938 -0.3958  2.1031
 3406TIP3    H231634   2.771   2.047   5.477 -0.9360 -1.4810 -1.4736
 3407TIP3   OH231635   3.465   0.076   2.703  0.1815 -0.0812  0.2963
 3407TIP3    H131636   3.371   0.064   2.717  0.2044 -0.2965  0.2653
 3407TIP3    H231637   3.506   0.010   2.758  0.2743 -0.8804 -0.7027
 3408TIP3   OH231638   3.120   3.605  14.408  0.2355 -0.0331 -0.1773
 3408TIP3    H131639   3.136   3.689  14.366  1.5393  0.1841  0.7108
 3408TIP3    H231640   3.043   3.570  14.363 -0.9585  2.0806  0.1142
 3409TIP3   OH231641   0.716   5.308  11.827  0.0011 -0.0272 -0.5656
 3409TIP3    H131642   0.660   5.320  11.904  1.4828 -0.3478  0.5988
 3409TIP3    H231643   0.663   5.254  11.768 -0.9311 -0.3267  0.4927
 3410TIP3   OH231644   1.692   6.250  10.826 -0.3610  0.1068 -0.4526
 3410TIP3    H131645   1.658   6.201  10.751 -1.7054  1.9345 -1.1208
 3410TIP3    H231646   1.689   6.342  10.798 -0.9613  0.8591  1.8417
 3411TIP3   OH231647   4.848   5.238   1.839  0.3478 -0.9174 -0.4011
 3411TIP3    H131648   4.940   5.258   1.824 -0.1853  0.1058 -2.6919
 3411TIP3    H231649   4.813   5.316   1.884  0.6670 -1.5289  0.9672
 3412TIP3   OH231650   4.377   5.817  11.048 -0.3343  0.4503 -0.2827
 3412TIP3    H131651   4.367   5.859  10.963  2.2092 -0.4351 -1.1247
 3412TIP3    H231652   4.290   5.819  11.087 -2.0480 -0.7556 -3.6924
 3413TIP3   OH231653   2.152   2.975  15.677 -0.1078 -0.1060 -0.0442
 3413TIP3    H131654   2.065   2.945  15.653 -1.2237  1.2080  2.1227
 3413TIP3    H231655   2.210   2.929  15.616 -2.2936 -0.7740 -1.7626
 3414TIP3   OH231656   0.341   6.540   5.605 -0.9430 -0.1992 -0.5191
 3414TIP3    H131657   0.251   6.512   5.624 -0.0767 -1.3114  2.5059
 3414TIP3    H231658   0.337   6.636   5.605 -1.7379 -0.1392  2.3581
 3415TIP3   OH231659   5.726   1.809   4.267 -0.1378  0.3250 -0.2889
 3415TIP3    H131660   5.714   1.844   4.355 -0.6878  1.1861 -0.6858
 3415TIP3    H231661   5.819   1.787   4.262 -0.3080 -0.7564  0.8532
 3416TIP3   OH231662   2.161   1.996   2.401 -0.3123 -0.1283 -0.0211
 3416TIP3    H131663   2.187   2.068   2.343 -0.8545  1.0301  1.1388
 3416TIP3    H231664   2.226   1.997   2.471  0.9681 -2.1990 -1.0595
 3417TIP3   OH231665   0.267   3.774   2.149  0.3334 -0.5052 -0.7791
 3417TIP3    H131666   0.226   3.805   2.068  1.1783 -0.5625 -1.2392
 3417TIP3    H231667   0.350   3.736   2.121  1.0944  0.3601  0.2143
 3418TIP3   OH231668   6.421   4.567  15.295  0.1301  0.4393 -0.0293
 3418TIP3    H131669   6.425   4.533  15.384 -1.5237  1.3892  0.4346
 3418TIP3    H231670   6.506   4.542  15.257  0.4171 -0.9848  1.4120
 3419TIP3   OH231671   1.494   3.814   1.157 -0.1214  0.4088  0.0922
 3419TIP3    H131672   1.441   3.884   1.194  0.0649  0.0332  1.1018
 3419TIP3    H231673   1.544   3.779   1.231 -1.2860 -1.7534 -0.0469
 3420TIP3   OH231674   0.715   3.442   2.718  0.6791  0.2631 -0.1784
 3420TIP3    H131675   0.625   3.438   2.685  0.2272 -0.3116  1.0394
 3420TIP3    H231676   0.763   3.377   2.666 -0.1217 -0.9582  0.5551
 3421TIP3   OH231677   6.084   1.339   0.884  0.3906 -0.4804  0.0600
 3421TIP3    H131678   6.036   1.416   0.853 -1.8951 -2.6898 -2.5023
 3421TIP3    H231679   6.099   1.355   0.977 -1.5326  2.2680  0.0160
 3422TIP3   OH231680   0.365   0.358   5.632  0.0644  0.0889 -0.1610
 3422TIP3    H131681   0.336   0.434   5.582 -1.0320 -0.9440 -1.1469
 3422TIP3    H231682   0.330   0.372   5.720 -0.6027  0.4752 -0.4807
 3423TIP3   OH231683   4.355   5.877  12.599  0.5401 -0.5059  0.0634
 3423TIP3    H131684   4.404   5.861  12.679  0.5327  0.4245  0.2643
 3423TIP3    H231685   4.418   5.861  12.528  0.8348 -0.3592  0.2891
 3424TIP3   OH231686   1.332   3.761  17.216  0.2066  0.1916  0.2121
 3424TIP3    H131687   1.332   3.672  17.253 -0.7625  0.3486  0.6166
 3424TIP3    H231688   1.424   3.781  17.203  0.5138 -0.3469  1.4009
 3425TIP3   OH231689   3.006   3.999  12.810  0.1169  0.0273  0.6494
 3425TIP3    H131690   3.068   3.961  12.872  2.1660 -0.2723 -1.4473
 3425TIP3    H231691   2.934   3.936  12.806  0.7032 -0.7204  1.5138
 3426TIP3   OH231692   5.292   2.169   4.217 -0.1467  0.2196 -0.4130
 3426TIP3    H131693   5.363   2.123   4.173  0.7518  2.4344 -1.4241
 3426TIP3    H231694   5.324   2.183   4.306 -1.1998 -2.6147  0.5191
 3427TIP3   OH231695   1.092   4.587  15.566 -0.1994 -0.1986 -0.2172
 3427TIP3    H131696   1.018   4.620  15.515 -0.4846 -0.4670  0.0165
 3427TIP3    H231697   1.053   4.563  15.650  0.1425 -0.4113 -0.1223
 3428TIP3   OH231698   2.452   3.367   5.186  0.1012 -0.3507  0.6212
 3428TIP3    H131699   2.511   3.319   5.244  0.1370 -0.5832  0.3904
 3428TIP3    H231700   2.447   3.315   5.106 -1.0065 -0.7248  0.9139
 3429TIP3   OH231701   0.863   0.365  15.766  0.1863 -0.4023  0.3870
 3429TIP3    H131702   0.931   0.429  15.784 -1.3904  1.3221  0.5472
 3429TIP3    H231703   0.811   0.404  15.696 -1.2630 -1.1232  1.0019
 3430TIP3   OH231704   6.144   5.537  14.385  0.0628 -0.2223  0.1637
 3430TIP3    H131705   6.076   5.597  14.354  1.0513 -0.5311 -3.0501
 3430TIP3    H231706   6.150   5.553  14.479 -4.8958 -0.7072  0.8065
 3431TIP3   OH231707   2.880   1.740  12.863  0.5930  0.2588  0.4786
 3431TIP3    H131708   2.894   1.835  12.869  1.3589  0.1848  0.0200
 3431TIP3    H231709   2.916   1.716  12.778  0.2854 -0.4305  0.5341
 3432TIP3   OH231710   5.837   0.314  13.363 -0.2008  0.0941  0.9239
 3432TIP3    H131711   5.747   0.287  13.342 -0.1359 -0.1594  0.9701
 3432TIP3    H231712   5.880   0.320  13.278 -0.2323  0.1097  0.9086
 3433TIP3   OH231713   6.590   1.268   4.795  0.0390  0.4767  0.0429
 3433TIP3    H131714   6.599   1.264   4.890 -1.1637  0.2916  0.1763
 3433TIP3    H231715   6.670   1.310   4.764  1.3888 -1.3105  0.9499
 3434TIP3   OH231716   3.667   2.982   1.695  0.3563 -0.0436 -0.0548
 3434TIP3    H131717   3.642   3.059   1.643 -1.6167 -2.3743 -2.9211
 3434TIP3    H231718   3.763   2.979   1.689  0.5456  2.5214  0.7701
 3435TIP3   OH231719   4.112   1.038   3.091  0.2503  0.1136 -0.0578
 3435TIP3    H131720   4.125   1.127   3.058 -2.3031  1.4676  2.2008
 3435TIP3    H231721   4.093   1.049   3.184 -2.5941 -2.4902 -0.1569
 3436TIP3   OH231722   5.013   6.642  16.272 -0.3618  0.5366  0.1350
 3436TIP3    H131723   4.978   6.609  16.190 -0.6334  1.7112 -0.2418
 3436TIP3    H231724   4.939   6.689  16.312  0.5078  2.3240 -0.2677
 3437TIP3   OH231725   0.911   5.992  17.050  0.2745 -0.3363 -0.1790
 3437TIP3    H131726   0.872   5.926  16.991  0.3552  1.2146 -2.0622
 3437TIP3    H231727   0.853   5.992  17.126 -1.5760 -0.4120 -1.4978
 3438TIP3   OH231728   5.278   2.246   3.795 -0.4455 -0.3727 -0.3224
 3438TIP3    H131729   5.248   2.172   3.743 -1.0690 -0.0545 -0.4333
 3438TIP3    H231730   5.317   2.306   3.731 -1.2083  0.0166 -0.4396
 3439TIP3   OH231731   1.185   0.480   1.260  0.1714 -0.2754  0.4902
 3439TIP3    H131732   1.184   0.385   1.257  0.2834 -0.2496 -1.3131
 3439TIP3    H231733   1.215   0.507   1.173 -0.8455  1.4035  0.6033
 3440TIP3   OH231734   3.401   1.967   0.766 -0.1075  0.6398 -0.1327
 3440TIP3    H131735   3.394   2.063   0.770 -1.5148  0.5642 -0.0152
 3440TIP3    H231736   3.452   1.944   0.844 -0.4095  1.2540  0.2612
 3441TIP3   OH231737   3.278   0.052   3.517  0.3708 -0.2467 -0.3972
 3441TIP3    H131738   3.291   0.146   3.518 -0.3140 -0.1501 -0.5285
 3441TIP3    H231739   3.365   0.016   3.499  0.2958  0.4213 -2.2944
 3442TIP3   OH231740   0.343   0.025  16.402 -0.1808  0.1402 -0.3910
 3442TIP3    H131741   0.383  -0.001  16.319  0.7425 -2.6866  0.8181
 3442TIP3    H231742   0.251  -0.001  16.393 -0.4538  1.2597 -1.0389
 3443TIP3   OH231743   0.588   3.210   5.813  0.1381 -0.9155  0.6729
 3443TIP3    H131744   0.616   3.123   5.843  0.0379 -0.8880  0.8509
 3443TIP3    H231745   0.493   3.201   5.800  0.0063 -0.6346  1.3984
 3444TIP3   OH231746   0.168   1.132   5.290  0.1596 -0.2123  0.2011
 3444TIP3    H131747   0.152   1.121   5.197 -1.8002  1.0333  0.3247
 3444TIP3    H231748   0.260   1.158   5.297  0.4703 -0.8378 -1.3017
 3445TIP3   OH231749   6.082   4.406  12.766  0.6616  0.3546 -0.6068
 3445TIP3    H131750   6.118   4.488  12.731 -1.3403  1.3421 -0.4677
 3445TIP3    H231751   6.028   4.433  12.840 -0.1706 -1.0792 -0.6521
 3446TIP3   OH231752   1.099   1.760  15.383  0.1419  0.4186  0.0623
 3446TIP3    H131753   1.120   1.668  15.368 -0.4560 -0.2595  2.8512
 3446TIP3    H231754   1.017   1.758  15.432  0.2230  2.4294  0.3504
 3447TIP3   OH231755   0.201   5.049  12.166  0.1420 -0.7549  0.2369
 3447TIP3    H131756   0.254   5.129  12.171 -0.0009 -0.3430 -2.7142
 3447TIP3    H231757   0.265   4.979  12.154  0.1748 -0.7103  0.1451
 3448TIP3   OH231758   1.466   1.296   6.100 -0.3835  0.2303 -0.4188
 3448TIP3    H131759   1.384   1.300   6.148 -1.3280  0.1844 -1.9661
 3448TIP3    H231760   1.531   1.334   6.160 -1.4794  0.1263  0.8873
 3449TIP3   OH231761   0.471   0.434   5.135 -0.9418  0.4773 -0.4968
 3449TIP3    H131762   0.552   0.384   5.145 -1.9228 -1.5984 -2.3080
 3449TIP3    H231763   0.419   0.410   5.212 -0.9249 -0.3927 -0.7439
 3450TIP3   OH231764   3.123   5.529   1.032  0.6397 -0.0063 -0.0015
 3450TIP3    H131765   3.209   5.509   1.071  0.6000  1.9056  1.2171
 3450TIP3    H231766   3.136   5.613   0.989 -0.3989 -0.1517 -0.6085
 3451TIP3   OH231767   3.689   5.650  14.092 -0.1854 -0.1384  0.4050
 3451TIP3    H131768   3.613   5.707  14.078 -0.8210 -1.2675 -1.1235
 3451TIP3    H231769   3.764   5.708  14.080 -0.8017  0.7836  0.8530
 3452TIP3   OH231770   2.305   2.015   2.631 -0.1045 -0.7834 -0.5865
 3452TIP3    H131771   2.330   1.923   2.637  0.5436 -0.5528  0.4785
 3452TIP3    H231772   2.369   2.061   2.686 -0.4861  0.2900 -1.0127
 3453TIP3   OH231773   4.927   1.570   3.759  0.0836  0.1325 -0.3409
 3453TIP3    H131774   4.948   1.655   3.798  0.2523  0.3076 -0.8036
 3453TIP3    H231775   4.869   1.591   3.685  1.2468 -0.0166 -1.3222
 3454TIP3   OH231776   1.184   6.604   0.341  0.4238 -0.1151  0.0528
 3454TIP3    H131777   1.276   6.622   0.324  0.6848  0.0323  1.5263
 3454TIP3    H231778   1.168   6.521   0.296  2.0881 -1.6821  2.1465
 3455TIP3   OH231779   4.004   3.164   5.972 -1.3243  0.0731  0.3891
 3455TIP3    H131780   3.973   3.079   5.941 -0.6751 -0.4431  1.1009
 3455TIP3    H231781   4.099   3.154   5.979 -1.0021  1.4723 -1.3264
 3456TIP3   OH231782   3.244   2.619   2.037  0.7822  0.0088 -0.4936
 3456TIP3    H131783   3.166   2.653   1.993 -0.0985 -1.1792  0.0570
 3456TIP3    H231784   3.304   2.598   1.966  0.0402 -0.3457 -1.0423
 3457TIP3   OH231785   5.487   0.103   3.847 -0.2478  0.6176 -0.0835
 3457TIP3    H131786   5.582   0.096   3.841 -0.3101 -0.5678  0.2344
 3457TIP3    H231787   5.472   0.168   3.917  0.3143  1.2946 -0.5778
 3458TIP3   OH231788   5.155   5.132  13.857 -0.3606  0.2423  0.0707
 3458TIP3    H131789   5.094   5.058  13.865 -0.9298  0.7425  0.4134
 3458TIP3    H231790   5.100   5.206  13.832 -0.1465  1.0472  1.8139
 3459TIP3   OH231791   2.664   5.324  11.739 -0.0647  0.6046  0.1516
 3459TIP3    H131792   2.699   5.235  11.744 -1.5930 -0.0555 -0.4982
 3459TIP3    H231793   2.707   5.363  11.662 -0.3798 -0.0233 -0.3459
 3460TIP3   OH231794   6.367   2.962  12.466  0.2982 -0.7694  0.5319
 3460TIP3    H131795   6.372   3.055  12.489  1.9135 -0.7178  0.1119
 3460TIP3    H231796   6.456   2.930  12.478  0.3025 -1.7072 -1.5887
 3461TIP3   OH231797   2.809   3.811  12.771 -0.2923 -0.5547 -0.1926
 3461TIP3    H131798   2.767   3.846  12.850  1.4041  1.5825 -0.1289
 3461TIP3    H231799   2.737   3.777  12.718 -2.0478  2.0660  0.3012
 3462TIP3   OH231800   5.992   2.779  12.659  0.1844  0.3260  0.6324
 3462TIP3    H131801   6.073   2.737  12.688  0.4006  0.8062  0.7308
 3462TIP3    H231802   6.021   2.850  12.602 -0.1633  0.5732  0.7645
 3463TIP3   OH231803   0.049   5.978  11.223  0.3136  0.3189  0.4561
 3463TIP3    H131804   0.035   5.883  11.224  2.8711 -0.1453  1.8998
 3463TIP3    H231805  -0.018   6.013  11.282 -2.3801 -0.1752 -2.1075
 3464TIP3   OH231806   2.298   2.665   0.130  0.7589  0.7033  0.5259
 3464TIP3    H131807   2.278   2.757   0.111  1.5183  0.4747 -1.7260
 3464TIP3    H231808   2.315   2.626   0.044  0.5645 -1.5381  1.4363
 3465TIP3   OH231809   3.803   5.091  14.568  0.3649  0.0780 -0.0041
 3465TIP3    H131810   3.805   5.042  14.485  0.1231 -0.0329  0.0559
 3465TIP3    H231811   3.773   5.027  14.633  0.0036  0.3155  0.0682
 3466TIP3   OH231812   4.348   2.847   4.126 -0.2440 -0.0675 -0.3464
 3466TIP3    H131813   4.322   2.757   4.110 -0.2513 -0.1948  0.3726
 3466TIP3    H231814   4.373   2.880   4.040  2.8450 -1.7224 -0.2209
 3467TIP3   OH231815   4.046   1.178   2.265  0.0967  0.2048 -0.5640
 3467TIP3    H131816   3.968   1.212   2.309 -1.1482  0.2415 -2.6868
 3467TIP3    H231817   4.118   1.200   2.325 -1.5740 -0.7031  1.9413
 3468TIP3   OH231818   0.961   2.988   6.410 -0.8284  0.2243 -0.1272
 3468TIP3    H131819   1.040   2.939   6.432 -1.9951 -1.8379 -0.2965
 3468TIP3    H231820   0.959   3.060   6.472  0.5654 -0.3669  0.6446
 3469TIP3   OH231821   3.755   0.635  13.269 -0.2587 -0.4659 -0.1384
 3469TIP3    H131822   3.662   0.642  13.287 -0.7037  0.4901 -2.4919
 3469TIP3    H231823   3.762   0.644  13.174  2.1709 -1.2762 -0.1075
 3470TIP3   OH231824   1.207   2.837   6.466 -0.0988  0.0432  0.7769
 3470TIP3    H131825   1.300   2.843   6.487 -0.2239  1.4728  1.0274
 3470TIP3    H231826   1.174   2.767   6.522  0.9749 -1.0810  0.0584
 3471TIP3   OH231827   2.448   6.211   5.874  0.2259  0.6435  0.6109
 3471TIP3    H131828   2.366   6.209   5.924  0.5406 -1.5750  1.1260
 3471TIP3    H231829   2.445   6.295   5.827 -1.9972  0.9429  1.1603
 3472TIP3   OH231830   0.087   2.212   0.974 -0.2201  0.4337  0.4595
 3472TIP3    H131831   0.033   2.191   1.050 -0.1223 -1.1793  0.1200
 3472TIP3    H231832   0.106   2.127   0.934  0.8423  1.1421 -0.6081
 3473TIP3   OH231833   5.403   0.545   3.209  0.1405  0.2196  0.4867
 3473TIP3    H131834   5.430   0.559   3.300  1.1877 -1.2540  0.4503
 3473TIP3    H231835   5.317   0.504   3.215  2.2920 -5.0151  1.2354
 3474TIP3   OH231836   2.858   5.421  13.929 -0.1423  0.0338 -0.3587
 3474TIP3    H131837   2.830   5.504  13.966 -0.9337  0.2917 -1.4838
 3474TIP3    H231838   2.817   5.418  13.842  0.0780 -1.4108 -0.4373
 3475TIP3   OH231839   5.323   5.178   4.534 -0.3191 -0.3970  0.4866
 3475TIP3    H131840   5.372   5.103   4.570 -0.9187 -0.3329  1.4797
 3475TIP3    H231841   5.261   5.200   4.603 -0.7125  0.4941 -0.1470
 3476TIP3   OH231842   2.256   2.128  12.347  0.2058 -0.2572 -0.0767
 3476TIP3    H131843   2.179   2.135  12.289  0.5123  1.0974 -0.3623
 3476TIP3    H231844   2.330   2.117  12.287  0.2993 -0.9682  0.1676
 3477TIP3   OH231845   4.979   0.722   3.247  0.1368 -0.1818  0.1514
 3477TIP3    H131846   4.984   0.732   3.342 -1.4534 -1.0162  0.3492
 3477TIP3    H231847   5.033   0.644   3.229 -0.5818 -0.7842  0.5386
 3478TIP3   OH231848   3.200   0.143   4.882  0.2381  0.2271  0.0037
 3478TIP3    H131849   3.205   0.150   4.977  0.5834 -0.3188  0.0321
 3478TIP3    H231850   3.175   0.231   4.853  0.9318  0.6173  0.5446
 3479TIP3   OH231851   1.900   0.167   1.498 -0.4490  0.0906  0.2859
 3479TIP3    H131852   1.912   0.153   1.404  1.4646  1.9733  0.1850
 3479TIP3    H231853   1.966   0.232   1.521 -2.7033  1.8235  2.3951
 3480TIP3   OH231854   2.396   1.817  14.304 -0.3524  0.7451 -0.4673
 3480TIP3    H131855   2.483   1.783  14.328 -0.3298  1.3850  0.3759
 3480TIP3    H231856   2.414   1.901  14.262 -0.5470  0.7067 -0.6278
 3481TIP3   OH231857   0.520   3.550   5.716 -0.5129  0.4503  0.0224
 3481TIP3    H131858   0.550   3.479   5.659 -2.6405  1.0069 -1.9344
 3481TIP3    H231859   0.593   3.612   5.718  0.4748 -0.6665 -0.1699
 3482TIP3   OH231860   0.300   5.750   1.925 -0.1105 -0.3498  0.4941
 3482TIP3    H131861   0.376   5.808   1.914 -0.6241  0.3746  0.7104
 3482TIP3    H231862   0.231   5.790   1.873 -0.3420 -1.0260  0.2719
 3483TIP3   OH231863   0.675   5.342   4.193 -0.0526 -0.0713 -0.2620
 3483TIP3    H131864   0.628   5.272   4.147 -1.3325 -0.9312  2.1530
 3483TIP3    H231865   0.605   5.395   4.232  0.8956 -0.5664  2.2897
 3484TIP3   OH231866   1.070   2.148  16.971  0.2418 -0.6028  0.0814
 3484TIP3    H131867   1.040   2.166  17.061 -0.2079  0.9821 -0.3576
 3484TIP3    H231868   0.995   2.104  16.930 -1.0584  1.9918 -0.5622
 3485TIP3   OH231869   6.245   5.334  11.900 -0.2281 -0.3620  0.3687
 3485TIP3    H131870   6.216   5.369  11.816  1.1382 -2.2552 -0.9906
 3485TIP3    H231871   6.262   5.411  11.953 -2.7722  0.8954 -0.4301
 3486TIP3   OH231872   0.406   6.304  15.316 -0.1352  0.4898  0.6435
 3486TIP3    H131873   0.367   6.383  15.354  0.6356 -0.3776  3.4467
 3486TIP3    H231874   0.351   6.233  15.347  0.3181 -0.2716 -0.2490
 3487TIP3   OH231875   6.451   2.721  16.094  0.4459 -0.4627  0.5298
 3487TIP3    H131876   6.433   2.815  16.101  2.7318  0.1569 -0.6714
 3487TIP3    H231877   6.402   2.681  16.166 -0.3025  1.6900  1.2908
 3488TIP3   OH231878   0.366   5.007   1.985 -0.3020 -0.0235  0.1434
 3488TIP3    H131879   0.358   5.063   2.062 -1.3765 -2.7843  2.2229
 3488TIP3    H231880   0.441   4.951   2.004 -0.4463 -0.6074 -0.9420
 3489TIP3   OH231881   3.312   4.590   4.830 -0.4721 -0.3288 -0.7452
 3489TIP3    H131882   3.368   4.665   4.813 -0.1159 -0.2307  0.6900
 3489TIP3    H231883   3.338   4.560   4.917 -0.6225 -2.1114 -1.2721
 3490TIP3   OH231884   6.605   0.106  15.436  0.0770  0.4165 -0.8772
 3490TIP3    H131885   6.688   0.140  15.401  0.4841  0.2110 -0.1377
 3490TIP3    H231886   6.584   0.031  15.380  2.3803 -1.9407  1.1648
 3491TIP3   OH231887   6.741   5.005  13.298 -0.3149  0.3737 -0.8448
 3491TIP3    H131888   6.763   5.098  13.309 -0.5385  0.3262  0.0671
 3491TIP3    H231889   6.670   4.990  13.360  0.5748 -0.7085 -0.0469
 3492TIP3   OH231890   5.017   2.394   2.627 -0.2476 -0.0800  0.2819
 3492TIP3    H131891   5.065   2.436   2.697 -0.2597  0.0804  0.1942
 3492TIP3    H231892   5.058   2.308   2.617 -0.4319 -0.2144  0.6787
 3493TIP3   OH231893   1.650   2.598  11.588  0.1987 -0.0550  0.1302
 3493TIP3    H131894   1.698   2.599  11.505 -0.4179 -0.2186 -0.2357
 3493TIP3    H231895   1.700   2.537  11.642  0.4934 -0.1062 -0.1872
 3494TIP3   OH231896   3.190   3.276   0.767 -0.4017  0.1348 -0.2561
 3494TIP3    H131897   3.223   3.213   0.703  0.2082 -1.9218  1.9353
 3494TIP3    H231898   3.113   3.233   0.804  0.0352  0.6511  1.3156
 3495TIP3   OH231899   2.397   4.419   4.495  0.6981  0.4183 -0.5123
 3495TIP3    H131900   2.311   4.418   4.537  0.3328  2.1825 -1.1483
 3495TIP3    H231901   2.429   4.509   4.507  2.2181 -0.0534 -0.7693
 3496TIP3   OH231902   3.637   6.515   3.585  0.8112  0.6718  0.0356
 3496TIP3    H131903   3.548   6.480   3.581  1.6299 -1.5294 -0.4099
 3496TIP3    H231904   3.643   6.556   3.671  0.1967 -1.6999  1.2952
 3497TIP3   OH231905   3.746   3.573  11.059  0.0469  0.5274  1.0225
 3497TIP3    H131906   3.762   3.480  11.049 -2.3988  0.2677 -1.6958
 3497TIP3    H231907   3.808   3.615  11.000 -0.1523  0.4665  0.7674
 3498TIP3   OH231908   1.736   3.699   4.632 -0.1740  0.0846  0.1533
 3498TIP3    H131909   1.776   3.634   4.575 -0.1129  0.3915 -0.1556
 3498TIP3    H231910   1.724   3.776   4.577 -1.2677 -0.0266  0.2198
 3499TIP3   OH231911   2.394   1.403  13.216 -0.0745 -0.0154 -0.3297
 3499TIP3    H131912   2.384   1.314  13.182 -0.4833 -0.2661  0.4122
 3499TIP3    H231913   2.337   1.456  13.160  2.1212  0.2659 -2.4414
 3500TIP3   OH231914   1.003   2.480   4.187  0.5792  0.1260  0.0611
 3500TIP3    H131915   0.966   2.400   4.149 -1.1195  1.0665 -0.3937
 3500TIP3    H231916   1.029   2.454   4.276 -1.6781 -0.5633  0.6030
 3501TIP3   OH231917   6.613   5.083   0.236 -0.3373  0.3277  0.5273
 3501TIP3    H131918   6.558   5.159   0.218  0.1650  0.5127 -0.2324
 3501TIP3    H231919   6.554   5.008   0.228 -0.5178  0.5370 -0.0887
 3502TIP3   OH231920   6.341   3.879   5.088 -0.5755  0.0168 -0.4482
 3502TIP3    H131921   6.346   3.802   5.144  1.7832 -0.0449 -0.6389
 3502TIP3    H231922   6.414   3.934   5.117 -0.6009  0.9539 -2.0677
 3503TIP3   OH231923   1.374   3.206  13.150 -0.0006  0.3096 -0.9751
 3503TIP3    H131924   1.347   3.114  13.151 -0.8331  0.5559 -0.1977
 3503TIP3    H231925   1.402   3.222  13.060  0.5104 -0.8009 -1.0268
 3504TIP3   OH231926   2.042   5.857   3.316 -0.5938  0.5153  0.3773
 3504TIP3    H131927   2.080   5.927   3.370 -1.7277  0.9166  0.6831
 3504TIP3    H231928   1.979   5.814   3.373 -0.6884 -0.0612 -0.1540
 3505TIP3   OH231929   1.262   3.842  10.437  0.1698 -0.0146 -0.2804
 3505TIP3    H131930   1.336   3.795  10.474  0.2254 -0.1045 -0.5033
 3505TIP3    H231931   1.228   3.894  10.510  1.7574  1.6732 -0.6747
 3506TIP3   OH231932   4.743   4.330  13.453 -0.0939  0.3558 -0.0519
 3506TIP3    H131933   4.662   4.347  13.502  0.1431  0.6376  0.2479
 3506TIP3    H231934   4.746   4.235  13.442  0.8498  0.0577  2.2275
 3507TIP3   OH231935   0.422   5.252   3.702 -0.0944  0.4409  0.1133
 3507TIP3    H131936   0.512   5.273   3.725  0.5052 -0.4291 -1.2929
 3507TIP3    H231937   0.401   5.311   3.629 -0.5429  0.4084  0.2140
 3508TIP3   OH231938   3.430   2.909  16.826 -0.0910  0.2242  0.1711
 3508TIP3    H131939   3.475   2.889  16.908 -1.4357  1.5161  1.2907
 3508TIP3    H231940   3.342   2.873  16.837 -0.0525 -0.2825 -1.0389
 3509TIP3   OH231941   4.388   4.375   3.762 -0.0865 -0.5198 -0.3353
 3509TIP3    H131942   4.424   4.400   3.677 -0.7404 -2.5170 -1.2589
 3509TIP3    H231943   4.402   4.280   3.768 -0.8179 -0.5611  1.4155
 3510TIP3   OH231944   4.045   5.595   2.341  0.2916 -0.4195 -0.2680
 3510TIP3    H131945   4.132   5.626   2.316  1.1811 -1.6769  1.0795
 3510TIP3    H231946   4.062   5.521   2.400 -1.7058 -1.9028 -1.4268
 3511TIP3   OH231947   3.160   3.766  11.498  0.2136 -0.3640  0.1485
 3511TIP3    H131948   3.225   3.741  11.432 -0.9807 -2.8926 -0.1945
 3511TIP3    H231949   3.118   3.844  11.462 -0.5818 -1.7961 -2.2990
 3512TIP3   OH231950   2.954   2.234  12.551 -0.1047  0.6702 -0.2420
 3512TIP3    H131951   2.973   2.245  12.458  0.6717 -0.0466 -0.1709
 3512TIP3    H231952   2.909   2.150  12.556  2.5536 -0.7863  0.3794
 3513TIP3   OH231953   4.520   2.259  15.193  0.4871  0.1045  0.1204
 3513TIP3    H131954   4.553   2.349  15.180 -1.7653  0.8991 -0.5076
 3513TIP3    H231955   4.431   2.271  15.225 -0.0980 -1.9287 -0.6265
 3514TIP3   OH231956   3.294   0.809   4.059  0.7542 -0.3453 -0.1669
 3514TIP3    H131957   3.237   0.859   4.001  2.2191  1.1505 -0.3919
 3514TIP3    H231958   3.241   0.793   4.137 -0.7595 -1.1329 -1.3090
 3515TIP3   OH231959   4.051   1.922  15.761  0.1207  0.1995  0.2612
 3515TIP3    H131960   4.080   1.857  15.826  0.3547 -1.6195 -1.5477
 3515TIP3    H231961   4.002   1.987  15.812 -1.8897 -2.4341  1.9802
 3516TIP3   OH231962   4.122   1.591   1.257 -0.1459 -1.1796  0.3189
 3516TIP3    H131963   4.080   1.612   1.173  1.4213 -1.4926 -0.5720
 3516TIP3    H231964   4.066   1.633   1.322 -1.9749 -1.7629 -0.7809
 3517TIP3   OH231965   1.974   2.279  12.476  0.5087 -0.2801  0.5409
 3517TIP3    H131966   1.926   2.352  12.517  1.4623  0.5097  0.3057
 3517TIP3    H231967   1.915   2.204  12.483 -0.2956  0.3965  1.2537
 3518TIP3   OH231968   5.482   4.305  16.198  0.2702 -0.3645 -0.5875
 3518TIP3    H131969   5.571   4.280  16.170  0.8585  1.2271 -0.2763
 3518TIP3    H231970   5.434   4.313  16.116  1.0950  1.0770 -0.9704
 3519TIP3   OH231971   2.305   2.501   4.794 -0.1920 -0.2885 -1.0304
 3519TIP3    H131972   2.226   2.520   4.845 -0.2141  1.1953 -1.5637
 3519TIP3    H231973   2.272   2.466   4.711 -0.1764 -2.1012 -0.3044
 3520TIP3   OH231974   3.371   1.455   0.931 -0.6102  0.3746 -0.4052
 3520TIP3    H131975   3.438   1.400   0.890 -1.5059 -0.3980 -0.9009
 3520TIP3    H231976   3.366   1.423   1.021  0.6019  1.3391  0.0251
 3521TIP3   OH231977   5.873   2.608   4.829 -0.0479 -0.2504 -0.1699
 3521TIP3    H131978   5.940   2.572   4.771 -0.9463 -0.4300 -1.1043
 3521TIP3    H231979   5.794   2.613   4.776 -0.1040  2.6673  0.0317
 3522TIP3   OH231980   5.510   5.287   5.905  0.0496  0.1281 -0.7803
 3522TIP3    H131981   5.522   5.207   5.955  0.9349 -0.0462 -1.2454
 3522TIP3    H231982   5.578   5.346   5.937  0.0352  0.3402 -1.1291
 3523TIP3   OH231983   3.983   4.543  13.664 -0.1804  0.1957 -0.2626
 3523TIP3    H131984   4.054   4.488  13.633  0.2397  0.2063  0.6617
 3523TIP3    H231985   3.953   4.501  13.744 -0.7576  0.5745 -0.2724
 3524TIP3   OH231986   2.641   5.908   2.223  0.0938  0.5062  0.1994
 3524TIP3    H131987   2.611   5.855   2.297 -0.3131 -0.0184 -0.3355
 3524TIP3    H231988   2.737   5.899   2.224  0.0897  0.4825  0.6407
 3525TIP3   OH231989   6.226   6.374  10.558  0.2148  0.8120 -0.0212
 3525TIP3    H131990   6.135   6.374  10.588  0.0524  1.1016 -0.5173
 3525TIP3    H231991   6.232   6.299  10.499  0.8010 -0.4013  1.5047
 3526TIP3   OH231992   6.286   2.319   0.246 -0.5950 -0.0174  0.1051
 3526TIP3    H131993   6.291   2.243   0.188 -1.2113  0.2327 -0.2882
 3526TIP3    H231994   6.263   2.392   0.188  0.0430  0.4818  0.4689
 3527TIP3   OH231995   6.722   1.226   5.756 -0.4187  0.6564 -0.0917
 3527TIP3    H131996   6.759   1.227   5.668  1.2818  1.0088  0.5758
 3527TIP3    H231997   6.635   1.264   5.747 -0.4277  0.3061 -1.6715
 3528TIP3   OH231998   1.317   5.807  13.108 -0.4702 -0.4751 -0.1592
 3528TIP3    H131999   1.240   5.750  13.104 -0.1020 -0.9838 -0.1109
 3528TIP3    H232000   1.377   5.769  13.045 -0.4570  0.2288 -0.5799
 3529TIP3   OH232001   0.167   2.166   0.631 -0.5169 -0.4735  0.3587
 3529TIP3    H132002   0.085   2.137   0.591 -1.4426 -0.1795  1.9672
 3529TIP3    H232003   0.150   2.256   0.657  0.4323 -0.3143  0.4558
 3530TIP3   OH232004   3.376   4.656  16.358  0.2529 -0.2898 -0.4834
 3530TIP3    H132005   3.294   4.655  16.408  0.7122  1.8808  0.4248
 3530TIP3    H232006   3.410   4.744  16.371  3.1798 -1.3755 -0.1571
 3531TIP3   OH232007   5.814   3.499   1.978  0.6449  0.4484 -0.1264
 3531TIP3    H132008   5.738   3.550   1.951 -0.4449 -1.6210 -1.1952
 3531TIP3    H232009   5.847   3.460   1.897  0.8946 -1.2328  0.7499
 3532TIP3   OH232010   6.360   1.915  10.385 -0.1152  0.5114 -0.6995
 3532TIP3    H132011   6.389   1.836  10.338 -2.5842 -0.6499 -0.4124
 3532TIP3    H232012   6.341   1.978  10.316  0.6611  0.4363 -0.9947
 3533TIP3   OH232013   4.187   2.118   0.637  0.0665  0.0876 -0.1305
 3533TIP3    H132014   4.127   2.054   0.676  1.3144 -1.3201 -0.4475
 3533TIP3    H232015   4.270   2.071   0.627  1.4082  2.1102  0.7675
 3534TIP3   OH232016   3.485   1.492  11.079  0.4485  0.4538 -0.6032
 3534TIP3    H132017   3.533   1.417  11.044  0.3708  0.5909 -1.0113
 3534TIP3    H232018   3.437   1.527  11.004 -0.7461 -0.0095 -0.0803
 3535TIP3   OH232019   2.839   2.485  15.855  0.0926  0.3842 -0.2377
 3535TIP3    H132020   2.746   2.471  15.836 -0.5287  0.2898  2.4686
 3535TIP3    H232021   2.842   2.572  15.895  1.2086  0.3962 -0.3085
 3536TIP3   OH232022   5.267   5.893   3.570 -0.6568  0.1300 -0.7304
 3536TIP3    H132023   5.237   5.839   3.643 -0.3558 -0.5554 -1.1019
 3536TIP3    H232024   5.238   5.981   3.591 -0.0207  0.0579  0.5436
 3537TIP3   OH232025   1.069   2.379  13.587  0.1354  0.2824 -0.2344
 3537TIP3    H132026   1.076   2.333  13.670 -0.5490  2.8356  1.3525
 3537TIP3    H232027   1.103   2.467  13.604 -2.2783  1.6856 -1.9014
 3538TIP3   OH232028   6.665   5.675   3.246  0.1311 -0.0225 -0.1317
 3538TIP3    H132029   6.607   5.720   3.183 -0.3195 -1.7524 -1.0330
 3538TIP3    H232030   6.721   5.744   3.281 -1.2844  1.4216 -0.5716
 3539TIP3   OH232031   6.416   6.610  12.627  0.3396  0.0083  0.0301
 3539TIP3    H132032   6.339   6.554  12.619  0.5075 -0.3032  0.5315
 3539TIP3    H232033   6.462   6.577  12.704  1.3339 -0.2470 -0.6568
 3540TIP3   OH232034   5.893   5.452  11.234  0.3039 -0.8728  0.4625
 3540TIP3    H132035   5.946   5.502  11.171 -1.7820  0.3144 -0.4611
 3540TIP3    H232036   5.866   5.374  11.186  0.5492 -1.0695  0.6466
 3541TIP3   OH232037   0.867   0.824   3.528 -0.1004 -0.4171 -0.4246
 3541TIP3    H132038   0.850   0.881   3.603  2.0149 -0.4729  0.1654
 3541TIP3    H232039   0.829   0.740   3.554  1.2024 -0.6330  0.9497
 3542TIP3   OH232040   1.583   2.989   0.040  1.0701  0.2681  0.4169
 3542TIP3    H132041   1.628   3.005  -0.042  2.1734  0.6522  1.0816
 3542TIP3    H232042   1.522   3.062   0.049  1.3835  0.5535  0.2386
 3543TIP3   OH232043   4.651   2.233  16.350  0.5408 -0.2271  0.1501
 3543TIP3    H132044   4.646   2.196  16.438  1.6587 -1.2816 -0.2089
 3543TIP3    H232045   4.733   2.282  16.349  2.0194 -2.5271 -1.0954
 3544TIP3   OH232046   5.759   5.430  16.338  0.0531 -0.2723  0.2080
 3544TIP3    H132047   5.816   5.465  16.269 -1.3400  2.5768  0.3734
 3544TIP3    H232048   5.719   5.352  16.298  0.0560  0.7173 -1.8684
 3545TIP3   OH232049   0.108   4.640  13.980  0.6161  0.1732  0.1099
 3545TIP3    H132050   0.015   4.618  13.980  0.5548  0.4312 -0.0203
 3545TIP3    H232051   0.134   4.632  14.072  0.2507  0.9966  0.2898
 3546TIP3   OH232052   4.036   0.507   6.049  0.4053  0.3929 -0.6171
 3546TIP3    H132053   4.019   0.525   5.957  1.8388  3.2580 -0.4628
 3546TIP3    H232054   4.129   0.485   6.053 -0.0399 -1.6280 -0.0032
 3547TIP3   OH232055   5.015   6.045  15.415  0.2828 -0.0586  0.1175
 3547TIP3    H132056   5.046   6.049  15.324 -2.5085 -1.5110 -1.0169
 3547TIP3    H232057   4.973   6.130  15.429  0.3087 -0.0061 -0.1114
 3548TIP3   OH232058   0.016   4.135   5.150 -0.2538 -0.6609  0.3984
 3548TIP3    H132059   0.084   4.202   5.138 -0.4673 -0.0342  2.3792
 3548TIP3    H232060  -0.059   4.183   5.185 -1.2148 -1.5996 -0.3123
 3549TIP3   OH232061   2.643   0.241  15.339 -0.2954 -0.0345 -0.0210
 3549TIP3    H132062   2.634   0.214  15.430 -0.3946 -0.0342 -0.0314
 3549TIP3    H232063   2.554   0.241  15.304 -0.1518 -1.1042 -0.4326
 3550TIP3   OH232064   4.284   6.636   1.107  0.1226 -0.2971 -1.1030
 3550TIP3    H132065   4.368   6.655   1.064  0.6634 -1.9850 -0.8385
 3550TIP3    H232066   4.302   6.649   1.200 -0.0465 -0.2088 -1.0831
 3551TIP3   OH232067   2.053   2.631  17.024  0.1840 -0.4888 -0.5516
 3551TIP3    H132068   2.129   2.597  17.072  0.4040 -2.4221 -2.1544
 3551TIP3    H232069   1.977   2.597  17.072  0.3792 -1.3376 -0.8441
 3552TIP3   OH232070   2.350   2.973   4.506  0.1410 -0.1277  0.0572
 3552TIP3    H132071   2.349   2.911   4.579 -0.0595 -1.1739 -0.8058
 3552TIP3    H232072   2.261   3.007   4.503  0.1906  0.0402  0.3921
 3553TIP3   OH232073   5.949   1.266  14.038 -0.5420 -0.8609 -0.0315
 3553TIP3    H132074   6.039   1.276  14.007 -0.7937  0.4371 -0.4136
 3553TIP3    H232075   5.918   1.185  13.998  0.2041 -0.9161 -0.5135
 3554TIP3   OH232076   4.409   6.168   5.031  0.2563  0.4686 -0.1373
 3554TIP3    H132077   4.463   6.091   5.049  1.8242  1.3785 -0.7112
 3554TIP3    H232078   4.467   6.227   4.983 -1.4143  1.3254 -1.2054
 3555TIP3   OH232079   2.652   1.674   4.555  0.2878 -0.1456 -0.2471
 3555TIP3    H132080   2.740   1.711   4.565 -0.3516  1.5911 -0.7248
 3555TIP3    H232081   2.638   1.670   4.461 -0.2301 -0.2118 -0.1695
 3556TIP3   OH232082   3.493   6.692   6.488  0.1113 -0.0148 -1.0744
 3556TIP3    H132083   3.510   6.603   6.457  0.8335 -0.2425 -0.0815
 3556TIP3    H232084   3.518   6.748   6.415  1.2023 -0.5633 -1.1416
 3557TIP3   OH232085   1.101   0.472   2.671  0.0734 -0.1046 -0.2774
 3557TIP3    H132086   1.121   0.456   2.579  0.2393 -0.3297 -0.2032
 3557TIP3    H232087   1.158   0.412   2.719 -1.5546 -1.6293 -0.1066
 3558TIP3   OH232088   1.374   4.757  14.109 -0.0611 -0.4943  0.5383
 3558TIP3    H132089   1.418   4.683  14.152  1.0219  0.5544  1.3073
 3558TIP3    H232090   1.399   4.833  14.161 -1.5477  0.3615  0.0422
 3559TIP3   OH232091   4.618   4.157   1.454  0.2594  0.6027  0.0458
 3559TIP3    H132092   4.682   4.086   1.457 -0.9493 -0.5052  0.0577
 3559TIP3    H232093   4.580   4.159   1.542 -0.9080  0.1447 -0.4422
 3560TIP3   OH232094   4.000   0.800   3.973 -0.5089  0.4033  0.0387
 3560TIP3    H132095   4.010   0.840   3.886  0.8920 -0.4201 -0.2008
 3560TIP3    H232096   3.907   0.777   3.978 -0.2568 -1.5137 -2.1729
 3561TIP3   OH232097   1.864   2.168  11.629  0.2955  0.0738 -0.0798
 3561TIP3    H132098   1.803   2.111  11.675  2.0110 -0.1626  2.0538
 3561TIP3    H232099   1.881   2.123  11.546 -2.0672 -0.0138 -0.5803
 3562TIP3   OH232100   1.880   1.977  14.061  0.6839 -0.7346 -0.2648
 3562TIP3    H132101   1.790   1.989  14.093  0.1869 -2.2588 -0.9822
 3562TIP3    H232102   1.909   2.065  14.037 -1.1414 -0.3609 -1.3081
 3563TIP3   OH232103   4.164   0.400  11.912  0.2265  0.0487  0.2260
 3563TIP3    H132104   4.241   0.450  11.886 -0.3180  1.2630  0.8822
 3563TIP3    H232105   4.183   0.372  12.002 -0.9603  2.2211  1.2135
 3564TIP3   OH232106   2.942   2.435  11.272  0.3432  0.7589  0.2819
 3564TIP3    H132107   3.038   2.432  11.275  0.4390 -0.0951 -1.7470
 3564TIP3    H232108   2.920   2.413  11.181 -1.7684  1.6354  0.5126
 3565TIP3   OH232109   0.032   0.871   5.792  0.3940  0.0422 -0.0328
 3565TIP3    H132110  -0.054   0.887   5.832  0.0317  0.3453 -0.9082
 3565TIP3    H232111   0.095   0.897   5.860 -0.1998  1.1398  0.1306
 3566TIP3   OH232112   2.523   1.739  13.039  0.6645 -0.2460  0.7958
 3566TIP3    H132113   2.536   1.656  13.084 -1.4941 -0.8526  0.4429
 3566TIP3    H232114   2.512   1.715  12.946 -0.2393  0.3615  0.7260
 3567TIP3   OH232115   4.299   5.036  15.374 -0.7997 -0.7774  0.2050
 3567TIP3    H132116   4.345   4.973  15.429 -0.7272 -1.1417 -0.2633
 3567TIP3    H232117   4.357   5.049  15.299 -0.7910 -0.1095  0.3223
 3568TIP3   OH232118   2.452   3.201  11.382  0.0039 -0.4319  0.1127
 3568TIP3    H132119   2.485   3.187  11.471  1.1545 -0.9192 -0.3539
 3568TIP3    H232120   2.460   3.295  11.368 -0.9579 -0.2354  0.7965
 3569TIP3   OH232121   2.226   3.488   4.568  0.2147 -0.1117  0.3002
 3569TIP3    H132122   2.290   3.417   4.556  0.5383  0.2446 -0.1076
 3569TIP3    H232123   2.171   3.484   4.490  0.8135  0.6682 -0.1764
 3570TIP3   OH232124   0.829   4.760   0.511 -0.6752  0.4149 -0.7267
 3570TIP3    H132125   0.801   4.796   0.427 -0.3067  1.7829 -0.2858
 3570TIP3    H232126   0.816   4.666   0.502  1.1115  0.2922 -3.0313
 3571TIP3   OH232127   4.761   0.931   5.026 -0.4042  0.0918  0.5897
 3571TIP3    H132128   4.740   0.875   4.951  0.7318  2.0496 -1.2973
 3571TIP3    H232129   4.741   1.020   4.995  1.1499  1.0569  2.2186
 3572TIP3   OH232130   5.535   1.736   5.187  0.3304  0.0382  0.1953
 3572TIP3    H132131   5.497   1.651   5.163 -0.4437 -0.0610  1.6335
 3572TIP3    H232132   5.466   1.799   5.167  0.3770  0.1648  0.4336
 3573TIP3   OH232133   2.747   6.561  16.065 -0.3141  0.6936  0.4466
 3573TIP3    H132134   2.737   6.647  16.104 -3.5082  1.1927 -1.1434
 3573TIP3    H232135   2.819   6.570  16.003  0.3813  1.7468  1.3823
 3574TIP3   OH232136   3.754   2.578  12.731  0.5017  0.0972 -0.3125
 3574TIP3    H132137   3.701   2.638  12.679  1.3999  0.1015 -1.2462
 3574TIP3    H232138   3.777   2.507  12.671  0.3653 -0.6421  0.4734
 3575TIP3   OH232139   2.644   2.140   4.889  0.6486 -0.3710 -0.3169
 3575TIP3    H132140   2.702   2.206   4.851  0.2272 -0.3594 -0.9433
 3575TIP3    H232141   2.564   2.188   4.909  0.3865 -0.6627 -0.6571
 3576TIP3   OH232142   0.471   2.153  14.097  0.2063  0.3821 -0.5233
 3576TIP3    H132143   0.518   2.182  14.175 -0.4100 -1.6194  0.6405
 3576TIP3    H232144   0.393   2.209  14.095 -1.5154 -1.6761  2.2949
 3577TIP3   OH232145   0.652   6.593  16.594  0.1495 -0.3558 -0.1506
 3577TIP3    H132146   0.671   6.674  16.640  0.0385 -1.2760  1.6291
 3577TIP3    H232147   0.731   6.575  16.544  0.6631  0.2107  0.4367
 3578TIP3   OH232148   1.330   3.213  12.636  0.2133  0.7519 -0.4125
 3578TIP3    H132149   1.337   3.195  12.730 -0.3115  1.0172 -0.3144
 3578TIP3    H232150   1.404   3.168  12.597  0.6725  0.9869  0.1796
 3579TIP3   OH232151   0.069   3.643  13.676 -0.1417  0.2131  0.2665
 3579TIP3    H132152   0.070   3.641  13.580 -0.0213 -0.3566  0.2739
 3579TIP3    H232153   0.119   3.721  13.699 -0.5103  0.5760 -0.1390
 3580TIP3   OH232154   6.558   0.663  14.680  0.2808  0.2119  0.4407
 3580TIP3    H132155   6.490   0.601  14.654  0.3196  1.0147 -1.8208
 3580TIP3    H232156   6.568   0.650  14.774  0.5397 -3.3850  0.0245
 3581TIP3   OH232157   3.418   2.317   1.277  0.0882 -0.2671 -0.0112
 3581TIP3    H132158   3.421   2.222   1.286 -0.7266 -0.4186 -1.1470
 3581TIP3    H232159   3.509   2.345   1.287  0.1715 -0.9922  1.8075
 3582TIP3   OH232160   1.252   4.737  13.380  0.4668  0.1399  0.1126
 3582TIP3    H132161   1.308   4.665  13.352  0.5924 -0.8150  2.6006
 3582TIP3    H232162   1.194   4.699  13.445 -1.0221  1.8150 -0.1606
 3583TIP3   OH232163   1.637   2.804   1.963  0.2224 -0.0145 -0.5532
 3583TIP3    H132164   1.680   2.873   1.912 -0.4643  1.8506  1.2504
 3583TIP3    H232165   1.691   2.727   1.949  2.3519  1.4523 -0.8602
 3584TIP3   OH232166   6.040   4.935   2.919  0.6005 -0.0445  0.4334
 3584TIP3    H132167   5.992   4.954   3.000 -2.2443 -0.2171 -1.0626
 3584TIP3    H232168   6.070   4.845   2.929  0.7919  0.1309  1.5185
 3585TIP3   OH232169   5.256   1.495  11.895 -0.3530  0.0489 -0.7830
 3585TIP3    H132170   5.259   1.534  11.982  1.1145  0.5377 -1.0305
 3585TIP3    H232171   5.169   1.518  11.861 -0.4760  0.8814  0.0681
 3586TIP3   OH232172   5.509   2.116   1.623  1.1332 -0.3531 -0.3575
 3586TIP3    H132173   5.477   2.146   1.538  0.1211  1.3329  0.5706
 3586TIP3    H232174   5.536   2.025   1.608 -1.2437 -0.8880 -1.9452
 3587TIP3   OH232175   0.536   2.666  16.490  0.1460 -0.2607 -1.3947
 3587TIP3    H132176   0.480   2.693  16.417  0.8043  2.5533 -0.9701
 3587TIP3    H232177   0.617   2.716  16.478  0.1780  0.5148  1.3338
 3588TIP3   OH232178   2.383   1.335  16.956 -0.0610  0.4401 -0.0154
 3588TIP3    H132179   2.453   1.273  16.936 -0.5274 -0.0125 -0.2586
 3588TIP3    H232180   2.385   1.396  16.882  0.5591  0.8732  0.3427
 3589TIP3   OH232181   5.752   4.688   0.622  0.0106 -0.5044  0.4581
 3589TIP3    H132182   5.756   4.645   0.707 -0.2115 -0.0993  0.6799
 3589TIP3    H232183   5.815   4.760   0.628  1.6545 -1.8072 -0.5056
 3590TIP3   OH232184   5.768   4.014   2.283 -0.3665  0.2288  0.3687
 3590TIP3    H132185   5.778   3.994   2.376 -1.5793 -0.3574  0.3879
 3590TIP3    H232186   5.844   3.973   2.241 -0.0611  0.0951  1.0413
 3591TIP3   OH232187   3.267   3.503  13.201 -0.4227 -0.2521  0.2343
 3591TIP3    H132188   3.216   3.567  13.250 -1.2193  1.1034 -2.1665
 3591TIP3    H232189   3.352   3.545  13.188 -0.1797 -0.6462  0.5393
 3592TIP3   OH232190   2.510   3.622   3.520  0.2921  0.1819  0.4093
 3592TIP3    H132191   2.460   3.567   3.580 -1.9085  2.6233  1.0061
 3592TIP3    H232192   2.444   3.662   3.463  2.0594  0.1439 -1.8440
 3593TIP3   OH232193   0.653   6.049  13.778  0.4142  0.2532  0.4247
 3593TIP3    H132194   0.593   6.100  13.724  2.6623  1.4515 -1.1045
 3593TIP3    H232195   0.597   5.985  13.822 -1.8960  0.9778 -1.2492
 3594TIP3   OH232196   2.461   0.177  12.151 -0.0362  0.0894 -0.4690
 3594TIP3    H132197   2.405   0.222  12.215 -1.2663 -1.0662 -0.6860
 3594TIP3    H232198   2.443   0.084  12.164  2.2380 -0.3591 -0.2386
 3595TIP3   OH232199   2.746   3.858  15.840  0.2783  0.0629 -0.1211
 3595TIP3    H132200   2.719   3.804  15.765  1.4964 -0.6471 -0.0783
 3595TIP3    H232201   2.671   3.916  15.855 -1.3357 -1.9268  0.1351
 3596TIP3   OH232202   4.776   3.139   5.018 -0.0357 -0.2886 -0.0383
 3596TIP3    H132203   4.825   3.180   4.947 -1.7003 -0.0486 -1.1149
 3596TIP3    H232204   4.751   3.211   5.075  0.1235 -0.2874  0.0283
 3597TIP3   OH232205   0.657   3.057   2.629  0.3927 -0.3663 -0.3139
 3597TIP3    H132206   0.576   3.108   2.634  0.2138 -0.6377 -0.4205
 3597TIP3    H232207   0.681   3.042   2.721  1.3390  1.3005 -0.2501
 3598TIP3   OH232208   1.842   2.948   2.657  0.4578  0.0785  0.1919
 3598TIP3    H132209   1.862   2.973   2.567 -1.2738 -1.4978 -0.7012
 3598TIP3    H232210   1.750   2.972   2.669 -0.2143 -2.3518  0.4926
 3599TIP3   OH232211   5.287   4.568  12.472  0.4466  0.2480  0.0932
 3599TIP3    H132212   5.229   4.523  12.533 -0.4596 -1.2664 -1.8008
 3599TIP3    H232213   5.305   4.652  12.515 -0.6622 -0.4719  2.1229
 3600TIP3   OH232214   2.925   2.234   1.710 -0.1359 -0.0998  0.0428
 3600TIP3    H132215   2.907   2.326   1.694  0.1950  0.0705  0.6141
 3600TIP3    H232216   2.855   2.206   1.770  0.1579 -0.0449  0.4093
 3601TIP3   OH232217   3.581   3.449  10.816  0.3761  0.1725  0.3866
 3601TIP3    H132218   3.616   3.538  10.815 -0.0985  0.3938 -1.9904
 3601TIP3    H232219   3.499   3.455  10.767 -0.6492 -1.2443  1.8230
 3602TIP3   OH232220   1.662   0.425   3.601  0.1352 -0.0196  0.4734
 3602TIP3    H132221   1.638   0.503   3.551 -2.0212 -1.3328 -0.7088
 3602TIP3    H232222   1.715   0.458   3.674 -1.9329  2.7275  0.8829
 3603TIP3   OH232223   5.308   5.515   5.440 -0.0970  0.0220 -0.2420
 3603TIP3    H132224   5.279   5.475   5.358 -1.3265 -1.2800  0.7842
 3603TIP3    H232225   5.230   5.556   5.476  0.0979 -0.5905  0.9244
 3604TIP3   OH232226   3.793   3.704   0.751 -0.1403  0.4109 -0.2205
 3604TIP3    H132227   3.833   3.617   0.746 -0.8168  0.0565  0.3681
 3604TIP3    H232228   3.745   3.713   0.668 -0.2253  0.1413 -0.2026
 3605TIP3   OH232229   4.986   3.985   4.759  0.0967  0.1741  0.3289
 3605TIP3    H132230   4.907   3.936   4.741 -0.5566  1.0807  0.6348
 3605TIP3    H232231   4.997   4.043   4.683  0.3310  0.2146  0.3910
 3606TIP3   OH232232   2.914   4.449   3.152  0.2789 -0.3352 -0.4337
 3606TIP3    H132233   2.894   4.540   3.128  0.9280 -0.2436 -0.6341
 3606TIP3    H232234   2.996   4.454   3.201  0.4955 -0.8511 -0.7402
 3607TIP3   OH232235   3.800   4.675   1.893  0.2149 -0.5216 -0.1549
 3607TIP3    H132236   3.892   4.696   1.905  0.4163 -1.0570 -0.7247
 3607TIP3    H232237   3.757   4.711   1.970  0.9414 -0.5177  0.2556
 3608TIP3   OH232238   0.570   1.270   5.837 -0.0919  0.0558  0.2342
 3608TIP3    H132239   0.581   1.244   5.928  0.5544  1.1358  0.4711
 3608TIP3    H232240   0.607   1.197   5.786  0.0241 -0.3100  0.8390
 3609TIP3   OH232241   2.857   0.854   1.925 -0.1410 -0.2354 -0.1328
 3609TIP3    H132242   2.944   0.887   1.901 -0.2819  1.0727  1.0057
 3609TIP3    H232243   2.867   0.829   2.017 -0.4282 -2.1246 -0.5769
 3610TIP3   OH232244   0.519   1.797   4.259 -0.6267  0.2604  0.1291
 3610TIP3    H132245   0.587   1.731   4.268 -0.5451  0.3707  0.3432
 3610TIP3    H232246   0.452   1.771   4.321 -0.4641  0.5358  0.4247
 3611TIP3   OH232247   1.685   5.472   3.880  0.0186 -0.0342 -0.0001
 3611TIP3    H132248   1.625   5.546   3.867 -0.0176 -0.2374 -1.0731
 3611TIP3    H232249   1.628   5.400   3.909 -0.0385  0.1638  0.3957
 3612TIP3   OH232250   0.404   5.669  14.231  0.4579  1.2825  1.2963
 3612TIP3    H132251   0.399   5.668  14.326  0.5280  2.2587  1.3273
 3612TIP3    H232252   0.328   5.619  14.202 -1.0726  3.1576  1.8724
 3613TIP3   OH232253   1.621   5.288   0.689  0.5348  0.3402 -0.4309
 3613TIP3    H132254   1.548   5.232   0.664  0.6939 -0.3349  0.5373
 3613TIP3    H232255   1.682   5.229   0.734  2.0141  0.7436 -1.8279
 3614TIP3   OH232256   6.752   1.262   5.440  0.4400 -0.1033  0.1163
 3614TIP3    H132257   6.823   1.211   5.402 -0.4511  0.0629 -1.9058
 3614TIP3    H232258   6.749   1.342   5.388 -2.0237 -0.6635 -0.7483
 3615TIP3   OH232259   2.713   4.960  16.611  0.3125  0.3401  0.0367
 3615TIP3    H132260   2.771   5.034  16.627 -1.4869  2.1168 -1.1981
 3615TIP3    H232261   2.772   4.888  16.587  2.0251  2.0637 -1.1943
 3616TIP3   OH232262   1.495   6.505  10.921  0.1500  0.1726 -0.0101
 3616TIP3    H132263   1.473   6.414  10.940  1.7279  0.1388  2.0049
 3616TIP3    H232264   1.586   6.502  10.893 -0.3173  0.9831 -1.7798
 3617TIP3   OH232265   2.680   1.871   1.339  0.3535 -0.6000 -0.3741
 3617TIP3    H132266   2.713   1.849   1.426  0.4112  2.7714  0.6019
 3617TIP3    H232267   2.653   1.963   1.346 -1.8014 -0.8458 -3.3173
 3618TIP3   OH232268   3.101   5.477  12.706 -0.1174  0.0022 -0.0220
 3618TIP3    H132269   3.024   5.509  12.658  0.6961  1.9191 -0.1420
 3618TIP3    H232270   3.083   5.384  12.720 -2.3737  0.3338 -0.2190
 3619TIP3   OH232271   1.116   2.710  13.351  0.0280  0.0655  0.7275
 3619TIP3    H132272   1.133   2.649  13.280  0.0363 -0.7001  1.3758
 3619TIP3    H232273   1.203   2.738  13.380  0.0158  0.6422  0.2159
 3620TIP3   OH232274   2.213   1.864  15.254 -0.6582 -0.2548  0.1709
 3620TIP3    H132275   2.156   1.807  15.306  0.2622  1.1868  2.9894
 3620TIP3    H232276   2.290   1.877  15.310 -0.4357  2.9998 -0.7167
 3621TIP3   OH232277   4.063   0.849  13.177 -0.1442  0.5344 -0.2318
 3621TIP3    H132278   4.071   0.869  13.270 -0.7090 -0.0058 -0.0647
 3621TIP3    H232279   3.995   0.908  13.145 -0.3176  0.3536 -0.1928
 3622TIP3   OH232280   4.957   1.863   0.927  0.0290  0.2329  0.4446
 3622TIP3    H132281   4.862   1.856   0.934 -0.0000 -0.3265 -0.3752
 3622TIP3    H232282   4.978   1.828   0.840  0.9866  0.3125  0.6269
 3623TIP3   OH232283   0.164   0.291  12.376  0.5956 -0.0698 -0.1651
 3623TIP3    H132284   0.157   0.354  12.448  0.2051 -0.1821 -0.1018
 3623TIP3    H232285   0.232   0.231  12.404 -0.4550 -0.8976  0.7252
 3624TIP3   OH232286   3.912   4.030  15.321  0.0520 -0.0443  0.2668
 3624TIP3    H132287   3.951   4.031  15.409  1.7643 -0.1523 -0.4413
 3624TIP3    H232288   3.913   4.121  15.293 -0.1460 -0.0574  0.2164
 3625TIP3   OH232289   2.617   5.392  15.635 -0.0086 -0.1261  0.0750
 3625TIP3    H132290   2.673   5.446  15.690 -0.1870 -1.1092  1.2733
 3625TIP3    H232291   2.572   5.334  15.697  0.3058 -1.7672 -1.1641
 3626TIP3   OH232292   6.360   0.938   1.306 -0.1439 -0.4548  0.3991
 3626TIP3    H132293   6.436   0.904   1.258  0.6228  1.4293  0.1723
 3626TIP3    H232294   6.328   0.863   1.357  0.8091 -1.7437 -0.8053
 3627TIP3   OH232295   5.505   3.001  16.576 -1.0339 -0.2987 -0.1912
 3627TIP3    H132296   5.480   2.958  16.658 -1.9507  0.8932  0.1823
 3627TIP3    H232297   5.491   3.094  16.592  1.7635  0.3161 -0.6572
 3628TIP3   OH232298   2.434   3.364  11.829 -0.5565 -0.2110  0.1820
 3628TIP3    H132299   2.426   3.296  11.896  2.0967  0.6873  1.5252
 3628TIP3    H232300   2.470   3.318  11.753  1.4239 -0.3573  1.1530
 3629TIP3   OH232301   1.320   1.502   0.567  0.1489 -0.0348 -0.3264
 3629TIP3    H132302   1.349   1.510   0.658  2.0345 -0.8680 -0.8054
 3629TIP3    H232303   1.383   1.554   0.517  0.9400 -1.9357 -1.4263
 3630TIP3   OH232304   3.473   6.030  11.443 -0.2275  0.3923 -0.3635
 3630TIP3    H132305   3.386   6.059  11.472 -0.0040  1.0076 -0.2904
 3630TIP3    H232306   3.455   5.969  11.372 -0.7335  0.2104 -0.0891
 3631TIP3   OH232307   6.002   3.890   1.999  0.4832 -0.1156  0.5557
 3631TIP3    H132308   6.078   3.928   1.956  0.8178 -3.0078 -1.6797
 3631TIP3    H232309   6.034   3.808   2.037 -0.9684 -0.0856  1.9621
 3632TIP3   OH232310   4.766   1.157  15.674 -0.3426 -0.8371 -0.2037
 3632TIP3    H132311   4.771   1.175  15.580 -2.6145  2.0866  0.0691
 3632TIP3    H232312   4.677   1.125  15.688 -0.6369  0.4210  1.0978
 3633TIP3   OH232313   5.308   3.054  16.892 -0.1329  0.3405  0.0341
 3633TIP3    H132314   5.220   3.082  16.918  0.1318  1.9792 -0.7409
 3633TIP3    H232315   5.300   3.037  16.798  0.4165  0.6145 -0.0620
 3634TIP3   OH232316   4.065   1.770   0.645  0.1109  0.6536 -0.3141
 3634TIP3    H132317   4.042   1.826   0.719  1.1818 -0.3473  0.8474
 3634TIP3    H232318   4.003   1.793   0.576 -1.6217  0.8852  1.2501
 3635TIP3   OH232319   1.679   1.285   2.243 -0.7614 -0.1653  0.4094
 3635TIP3    H132320   1.653   1.344   2.314  2.0299  0.9565  0.6348
 3635TIP3    H232321   1.770   1.309   2.224 -0.7873 -1.7580 -2.2400
 3636TIP3   OH232322   1.518   2.490  14.663  0.0865  0.2206 -0.7902
 3636TIP3    H132323   1.501   2.449  14.578 -0.2403  0.1217 -0.6782
 3636TIP3    H232324   1.598   2.449  14.694 -1.0544 -1.4807  0.0260
 3637TIP3   OH232325   3.673   2.532   3.655  0.1453 -0.6625 -0.3822
 3637TIP3    H132326   3.635   2.481   3.584 -1.3561  0.5927 -0.5394
 3637TIP3    H232327   3.610   2.524   3.727  0.3568  0.1714 -0.0913
 3638TIP3   OH232328   0.852   3.948   4.968 -0.1008 -0.3770  0.1255
 3638TIP3    H132329   0.905   3.977   5.043  0.0323  0.0288 -0.1203
 3638TIP3    H232330   0.900   3.873   4.932  0.8747  0.6260 -0.7236
 3639TIP3   OH232331   0.732   2.905  15.981  0.1118 -0.3775 -0.6246
 3639TIP3    H132332   0.797   2.973  16.000 -0.4094 -0.2339  0.7819
 3639TIP3    H232333   0.674   2.906  16.057 -0.9252 -1.2201 -1.3803
 3640TIP3   OH232334   1.577   1.354   1.735  0.1435  0.3695  0.1758
 3640TIP3    H132335   1.540   1.272   1.770 -0.5477  1.0741  1.1383
 3640TIP3    H232336   1.611   1.400   1.812  2.2440  0.1865 -0.5644
 3641TIP3   OH232337   5.712   2.164   3.612 -0.0271 -0.4909  0.2191
 3641TIP3    H132338   5.686   2.074   3.595 -0.6677 -0.6645  1.9386
 3641TIP3    H232339   5.666   2.188   3.692  2.0924  0.5229  1.2124
 3642TIP3   OH232340   5.072   5.575  12.433 -0.2036 -0.4779  0.3983
 3642TIP3    H132341   5.142   5.513  12.453  2.0064  1.2322 -1.4615
 3642TIP3    H232342   5.006   5.523  12.389  1.9125 -1.5180 -1.7980
 3643TIP3   OH232343   4.428   5.700  16.406 -0.3796 -0.1601  0.7500
 3643TIP3    H132344   4.510   5.690  16.357 -0.9583  0.2095 -0.3213
 3643TIP3    H232345   4.456   5.710  16.497  0.8240  0.9140  0.2886
 3644TIP3   OH232346   2.313   4.893   3.419  0.6104  0.0105 -0.1611
 3644TIP3    H132347   2.292   4.974   3.465  1.8989  1.1158 -1.4274
 3644TIP3    H232348   2.408   4.892   3.414  0.5747 -1.1080 -1.0091
 3645TIP3   OH232349   5.368   6.183  15.318  0.5220  0.5623  0.0406
 3645TIP3    H132350   5.319   6.149  15.243 -0.5001 -0.0398  0.9586
 3645TIP3    H232351   5.427   6.248  15.280  0.6954 -0.4043 -1.4062
 3646TIP3   OH232352   4.937   2.902   0.809 -0.3985  0.5544  0.3038
 3646TIP3    H132353   4.925   2.984   0.761  1.5267  0.9387  0.4005
 3646TIP3    H232354   4.875   2.908   0.881 -0.0249  2.1306  0.5412
 3647TIP3   OH232355   4.175   4.838   5.373 -0.1205 -0.1027 -0.3414
 3647TIP3    H132356   4.095   4.790   5.352  1.0055 -2.4305  0.2898
 3647TIP3    H232357   4.224   4.841   5.290  1.0037 -2.6154  0.1318
 3648TIP3   OH232358   6.219   2.785   4.843 -0.3901 -0.1660 -0.1185
 3648TIP3    H132359   6.314   2.800   4.842 -0.3775 -0.1004  0.8515
 3648TIP3    H232360   6.203   2.733   4.764  0.1422  1.4787 -1.3708
 3649TIP3   OH232361   4.512   2.327  17.033 -0.1307 -0.5268 -0.2817
 3649TIP3    H132362   4.463   2.321  16.951  0.4512 -0.3071 -0.6559
 3649TIP3    H232363   4.594   2.371  17.008  1.2489 -2.8403 -0.1374
 3650TIP3   OH232364   3.103   6.086   6.484 -0.5789 -0.5911  0.1445
 3650TIP3    H132365   3.051   6.038   6.420 -1.6121  0.8998 -0.1777
 3650TIP3    H232366   3.050   6.162   6.507  0.5354 -0.1585  1.4507
 3651TIP3   OH232367   3.090   2.644   4.217  0.2628 -0.1612 -0.0493
 3651TIP3    H132368   3.006   2.690   4.218  0.0354 -0.3781  3.4150
 3651TIP3    H232369   3.066   2.551   4.218  0.6428 -0.3029 -1.6237
 3652TIP3   OH232370   0.290   1.435  14.060  0.1260 -0.8222  0.2907
 3652TIP3    H132371   0.227   1.364  14.074  0.5643 -1.0569  1.0904
 3652TIP3    H232372   0.240   1.515  14.075 -0.6677 -0.8730 -1.6845
 3653TIP3   OH232373   1.105   4.853  11.454  0.3774  0.0382  0.8434
 3653TIP3    H132374   1.024   4.896  11.427  0.3898  0.5430  1.5874
 3653TIP3    H232375   1.100   4.765  11.415  0.9051  1.0645 -1.7250
 3654TIP3   OH232376   4.319   5.015  14.971 -0.2331  0.1349  0.1769
 3654TIP3    H132377   4.376   5.061  14.909  0.3069 -0.3747  0.2801
 3654TIP3    H232378   4.308   4.928  14.933 -0.0980 -0.1031  0.6708
 3655TIP3   OH232379   4.955   5.218   4.524  0.6964 -0.5666  0.4182
 3655TIP3    H132380   4.922   5.167   4.597  1.2556 -1.6698 -0.0839
 3655TIP3    H232381   4.983   5.301   4.563 -1.4011 -0.1049  1.0530
 3656TIP3   OH232382   0.087   0.124   2.746 -0.5327 -0.0909 -0.0961
 3656TIP3    H132383   0.154   0.088   2.689 -0.1364 -0.3213  0.5100
 3656TIP3    H232384   0.029   0.173   2.687  0.6042  0.7781 -0.5347
 3657TIP3   OH232385   0.608   3.602   4.591  0.1005 -0.1067  0.0859
 3657TIP3    H132386   0.619   3.697   4.600 -2.4792  0.2570  0.2881
 3657TIP3    H232387   0.556   3.592   4.511  1.4375 -1.4940 -0.6646
 3658TIP3   OH232388   5.219   0.407   3.508 -0.3573 -0.3451  0.3436
 3658TIP3    H132389   5.148   0.413   3.571  0.6035  0.7932  1.3540
 3658TIP3    H232390   5.299   0.414   3.560  0.5305 -1.6283 -0.7562
 3659TIP3   OH232391   4.374   3.354  11.182 -0.6260 -0.1659  0.0050
 3659TIP3    H132392   4.282   3.361  11.156 -0.0585  0.2301 -2.1091
 3659TIP3    H232393   4.419   3.419  11.129  0.9751 -0.8013  0.5117
 3660TIP3   OH232394   0.810   0.048  13.138 -0.0334  0.5844 -0.2483
 3660TIP3    H132395   0.855   0.041  13.223 -0.3600  0.1403 -0.1071
 3660TIP3    H232396   0.862   0.112  13.089 -1.5787  3.2965  1.4013
 3661TIP3   OH232397   3.893   5.042   5.568  0.8106  0.6278  0.3469
 3661TIP3    H132398   3.981   5.078   5.554  0.8430  0.0477 -1.0735
 3661TIP3    H232399   3.908   4.948   5.583  0.5248  0.7468  1.5032
 3662TIP3   OH232400   0.830   1.879  14.294  0.4685 -0.3386 -0.4792
 3662TIP3    H132401   0.878   1.962  14.297  1.8206 -1.0673 -1.1540
 3662TIP3    H232402   0.894   1.813  14.319 -0.2863 -1.3164 -1.0376
 3663TIP3   OH232403   4.010   2.106   1.662  0.0431  0.4017 -0.3093
 3663TIP3    H132404   4.017   2.153   1.745 -2.7770 -0.6857  0.6691
 3663TIP3    H232405   3.964   2.166   1.604  2.6397  1.4431 -1.4456
 3664TIP3   OH232406   3.099   3.891   0.604  0.1354 -0.2304 -0.7645
 3664TIP3    H132407   3.113   3.877   0.697 -0.0845  1.5698 -0.4417
 3664TIP3    H232408   3.185   3.876   0.564  0.3650 -0.3783 -0.2152
 3665TIP3   OH232409   5.187   5.958   4.476 -0.2356  0.4848 -0.2551
 3665TIP3    H132410   5.099   5.921   4.474  0.4885 -1.3434 -1.2967
 3665TIP3    H232411   5.219   5.948   4.386  1.6308 -0.4844  0.4597
 3666TIP3   OH232412   1.751   4.404  11.893  0.5501 -0.4622 -0.1837
 3666TIP3    H132413   1.742   4.315  11.861  2.7942 -1.6913  2.2759
 3666TIP3    H232414   1.841   4.429  11.874  0.4083  0.7061  0.4990
 3667TIP3   OH232415   1.075   3.267  11.846  0.0264  0.1488  0.5880
 3667TIP3    H132416   1.010   3.326  11.885 -1.2653 -1.5785  1.1857
 3667TIP3    H232417   1.132   3.324  11.795 -0.3961  2.0473  2.1411
 3668TIP3   OH232418   6.704   0.966   0.235 -0.0236  0.6814 -0.0655
 3668TIP3    H132419   6.761   1.032   0.275  0.5095 -0.0058  0.3462
 3668TIP3    H232420   6.751   0.883   0.248 -1.2359  0.0511  0.5372
 3669TIP3   OH232421   3.583   3.751  12.658  0.3743 -0.7949 -0.5304
 3669TIP3    H132422   3.529   3.673  12.660  0.5101 -0.9842 -2.3728
 3669TIP3    H232423   3.671   3.719  12.639  0.4685 -0.2275 -1.1093
 3670TIP3   OH232424   2.208   6.188  11.667  0.7605  0.2463  0.5805
 3670TIP3    H132425   2.174   6.123  11.728  0.1356  0.3895  0.3932
 3670TIP3    H232426   2.228   6.138  11.588  1.3477  0.1003  0.8162
 3671TIP3   OH232427   4.402   1.792   3.893 -0.4291 -0.0633  0.0849
 3671TIP3    H132428   4.451   1.719   3.856 -0.1554  0.2945 -0.2586
 3671TIP3    H232429   4.310   1.767   3.882 -0.3419 -0.9693  1.1955
 3672TIP3   OH232430   6.054   1.423   1.606  0.1115  0.0009 -0.0703
 3672TIP3    H132431   6.146   1.396   1.597 -0.0990 -1.3674  1.4127
 3672TIP3    H232432   6.057   1.494   1.670  0.1340 -0.0801  0.0192
 3673TIP3   OH232433   4.749   0.323   2.827  0.1767  0.0678  0.4627
 3673TIP3    H132434   4.728   0.244   2.877 -0.8028  1.2365  2.0103
 3673TIP3    H232435   4.831   0.303   2.783  0.1216 -1.6809  1.0740
 3674TIP3   OH232436   0.596   6.741   3.464 -0.3358 -0.1798  0.2323
 3674TIP3    H132437   0.523   6.678   3.469 -0.2947 -0.3107 -0.6207
 3674TIP3    H232438   0.585   6.796   3.541 -0.3404 -1.2748  1.0375
 3675TIP3   OH232439   0.453   3.828  15.112 -0.2445 -0.0104 -0.2655
 3675TIP3    H132440   0.470   3.861  15.200  1.2052  1.7041 -1.1273
 3675TIP3    H232441   0.533   3.847  15.063 -1.3198 -0.1620 -2.1819
 3676TIP3   OH232442   1.999   3.958  16.781  0.4550 -0.1491  0.1826
 3676TIP3    H132443   1.969   4.026  16.843  2.5126  0.9809  0.0284
 3676TIP3    H232444   1.919   3.914  16.754 -0.6900  0.4440  2.3514
 3677TIP3   OH232445   6.633   4.918  11.036 -0.2609  0.1359 -0.6429
 3677TIP3    H132446   6.685   4.860  10.981 -1.7558 -2.8327  0.8120
 3677TIP3    H232447   6.680   4.921  11.119 -0.9763 -0.3156 -0.2112
 3678TIP3   OH232448   3.578   3.555   3.058  0.1109  0.4165  0.0424
 3678TIP3    H132449   3.607   3.496   3.128  0.1086  0.1694 -0.1627
 3678TIP3    H232450   3.656   3.567   3.004  0.2185  0.9185  0.3001
 3679TIP3   OH232451   2.387   1.954  14.010 -0.0883  0.0544 -0.4083
 3679TIP3    H132452   2.312   2.013  14.018 -0.3315 -0.0427 -1.7238
 3679TIP3    H232453   2.350   1.866  14.018 -0.1103  0.0104 -0.9450
 3680TIP3   OH232454   1.419   1.556   5.468  0.1348  0.3551  0.0131
 3680TIP3    H132455   1.368   1.605   5.404 -0.1388  1.5747  1.1258
 3680TIP3    H232456   1.452   1.623   5.529  0.2622 -0.7662  1.2285
 3681TIP3   OH232457   0.546   5.561  12.937  0.0657 -0.0978 -0.0894
 3681TIP3    H132458   0.528   5.532  12.848  0.2152 -1.6305  0.3433
 3681TIP3    H232459   0.492   5.504  12.992 -0.0858  0.8712  0.8037
 3682TIP3   OH232460   6.551   2.313  15.425 -0.0441  0.7287  0.9897
 3682TIP3    H132461   6.522   2.237  15.476  1.4700 -0.4301  0.1916
 3682TIP3    H232462   6.642   2.326  15.452  0.7546  0.1946 -1.2357
 3683TIP3   OH232463   1.038   0.876   5.202 -0.9016 -0.6156 -0.0901
 3683TIP3    H132464   1.094   0.950   5.226  1.3488 -2.6907  1.6085
 3683TIP3    H232465   0.973   0.871   5.272 -0.6174 -0.6250  0.1782
 3684TIP3   OH232466   2.239   4.836   0.591  0.7753  0.3434 -0.2276
 3684TIP3    H132467   2.288   4.759   0.620 -0.8229 -0.9011 -0.6967
 3684TIP3    H232468   2.266   4.906   0.651  0.2540 -1.2598  2.0013
 3685TIP3   OH232469   0.161   0.032  15.294 -0.0085 -0.3629  0.0361
 3685TIP3    H132470   0.215   0.025  15.373  0.2008 -0.9938 -0.1542
 3685TIP3    H232471   0.097   0.101  15.314  0.4307 -0.0887  0.5212
 3686TIP3   OH232472   1.548   1.719  11.865  0.2501  0.1546  0.3765
 3686TIP3    H132473   1.517   1.800  11.824 -0.5685 -0.8175 -0.9793
 3686TIP3    H232474   1.499   1.713  11.947 -1.1018  0.0646 -0.4178
 3687TIP3   OH232475   5.896   0.675   4.678  0.1063 -0.2097 -0.1852
 3687TIP3    H132476   5.954   0.717   4.615 -2.3795  0.9909 -1.7827
 3687TIP3    H232477   5.905   0.581   4.660  2.0074 -0.1360  0.1075
 3688TIP3   OH232478   2.335   1.668  11.465 -0.1471  0.0439  0.0320
 3688TIP3    H132479   2.385   1.699  11.540  1.7727 -1.1816 -0.6752
 3688TIP3    H232480   2.398   1.620  11.412 -1.4265  0.9146 -2.4223
 3689TIP3   OH232481   5.828   3.247  12.356 -0.2275  0.2438  0.3772
 3689TIP3    H132482   5.766   3.319  12.367 -0.1150  0.2805  0.8129
 3689TIP3    H232483   5.817   3.195  12.436 -0.4367 -0.3222 -0.0159
 3690TIP3   OH232484   3.531   0.488   2.650 -0.4536  0.1477 -0.0395
 3690TIP3    H132485   3.532   0.567   2.703  0.7536  0.3833 -0.3687
 3690TIP3    H232486   3.594   0.506   2.579  0.3991 -1.3609  0.2835
 3691TIP3   OH232487   5.052   0.536  13.703  0.6853 -0.0620  0.9489
 3691TIP3    H132488   5.023   0.475  13.634  0.7348  0.7577  0.1781
 3691TIP3    H232489   4.979   0.597  13.713  0.8582  0.0860  1.3192
 3692TIP3   OH232490   0.973   6.504   4.622  0.1634  0.4443 -0.1417
 3692TIP3    H132491   0.967   6.535   4.532 -0.5905 -1.0902 -0.6613
 3692TIP3    H232492   1.051   6.449   4.624 -0.2276 -0.1278 -0.0782
 3693TIP3   OH232493   0.826   3.622   2.285  0.7315 -0.3241 -0.3940
 3693TIP3    H132494   0.741   3.639   2.326  0.7481  0.9713 -0.8574
 3693TIP3    H232495   0.883   3.598   2.358  0.2526 -0.0447  0.0793
 3694TIP3   OH232496   2.357   0.151   2.002 -0.1456 -0.1867 -0.3084
 3694TIP3    H132497   2.348   0.074   2.058 -0.5214 -0.1985 -0.3835
 3694TIP3    H232498   2.332   0.225   2.058 -1.5223 -0.2918 -0.7305
 3695TIP3   OH232499   4.701   6.592  17.209  0.2918  0.5905  0.1953
 3695TIP3    H132500   4.665   6.627  17.291 -1.1933 -0.8703  0.2033
 3695TIP3    H232501   4.640   6.620  17.142  0.8384  0.7165 -0.2601
 3696TIP3   OH232502   4.751   5.906   2.272  0.5114  0.4227  0.3208
 3696TIP3    H132503   4.687   5.865   2.215 -0.6379 -1.2258  2.6441
 3696TIP3    H232504   4.739   6.000   2.257  0.0668  0.0674 -1.8663
 3697TIP3   OH232505   2.233   4.207   4.757  0.8450 -0.8667  0.1739
 3697TIP3    H132506   2.217   4.301   4.764  0.5923 -0.8747 -0.2579
 3697TIP3    H232507   2.146   4.169   4.749  1.0326 -0.8708 -2.8024
 3698TIP3   OH232508   3.906   6.409  17.060 -0.5691  0.3322 -0.5819
 3698TIP3    H132509   3.992   6.383  17.028 -0.7272 -1.4123  0.3066
 3698TIP3    H232510   3.845   6.350  17.015 -1.0181 -0.4465  0.9916
 3699TIP3   OH232511   1.987   4.729   2.201 -0.1782 -0.2209  0.2864
 3699TIP3    H132512   1.953   4.768   2.281 -0.1162 -0.4929  0.4456
 3699TIP3    H232513   1.951   4.640   2.199 -0.1879 -0.2127  0.0092
 3700TIP3   OH232514   6.278   1.618   4.027 -0.5587 -0.1334  0.7129
 3700TIP3    H132515   6.329   1.670   4.090 -0.8470  1.5139 -0.3473
 3700TIP3    H232516   6.334   1.543   4.007  1.5992  1.6556 -0.4957
 3701TIP3   OH232517   2.381   5.028   5.184 -0.3774  0.8833 -0.1553
 3701TIP3    H132518   2.390   5.105   5.241 -2.3453  1.1120 -0.1008
 3701TIP3    H232519   2.440   4.964   5.223 -2.0248  0.8502  2.5466
 3702TIP3   OH232520   6.713   2.466  16.244  0.0818  0.0799 -0.0826
 3702TIP3    H132521   6.727   2.509  16.160  0.0642 -1.1620 -0.7432
 3702TIP3    H232522   6.682   2.535  16.302  0.3035  0.9977 -1.0334
 3703TIP3   OH232523   5.630   0.551   0.690 -0.0851 -0.1249  0.6734
 3703TIP3    H132524   5.622   0.457   0.701 -2.2688  0.0978  1.4856
 3703TIP3    H232525   5.563   0.574   0.626  0.5902  0.8667  0.2836
 3704TIP3   OH232526   6.239   4.494  11.786 -0.2491 -0.6442  0.4858
 3704TIP3    H132527   6.231   4.408  11.828 -0.3937  0.0371  1.9098
 3704TIP3    H232528   6.262   4.553  11.857  1.1976  0.2926 -0.7083
 3705TIP3   OH232529   4.679   6.264  12.250  0.3538 -0.2091 -0.5995
 3705TIP3    H132530   4.728   6.301  12.325  2.8526 -1.1308 -1.6563
 3705TIP3    H232531   4.706   6.173  12.247 -0.1178 -0.3252 -2.3098
 3706TIP3   OH232532   5.347   2.490  11.370 -0.5047  0.0209 -0.2461
 3706TIP3    H132533   5.381   2.547  11.439  0.7627 -0.0491 -0.7699
 3706TIP3    H232534   5.359   2.401  11.405 -2.8935  0.0281  0.7573
 3707TIP3   OH232535   6.474   5.430   5.426 -0.2562 -0.1464  0.1736
 3707TIP3    H132536   6.503   5.341   5.406  1.4896  0.3635  0.2081
 3707TIP3    H232537   6.380   5.423   5.442  0.1020 -2.2409  1.6695
 3708TIP3   OH232538   1.390   0.478  13.970 -0.2964 -0.2173  1.1386
 3708TIP3    H132539   1.412   0.505  13.881 -1.8146  0.8228  1.0248
 3708TIP3    H232540   1.460   0.419  13.996  1.2497  1.0521  0.0095
 3709TIP3   OH232541   3.037   2.370   6.273  0.2784 -0.3868  0.4938
 3709TIP3    H132542   2.962   2.312   6.284  1.7079 -2.2061  1.0927
 3709TIP3    H232543   3.080   2.371   6.359  1.2826  0.1481  0.0052
 3710TIP3   OH232544   3.901   3.788  16.177 -0.2287  0.0208  0.4215
 3710TIP3    H132545   3.915   3.880  16.200  0.0620 -0.2673  1.4324
 3710TIP3    H232546   3.851   3.752  16.250 -2.2643 -0.1236 -0.9812
 3711TIP3   OH232547   2.567   6.556  16.713  0.5448 -0.0803 -0.1248
 3711TIP3    H132548   2.560   6.483  16.774  0.0191  0.9667  1.1227
 3711TIP3    H232549   2.548   6.518  16.627  2.4724 -1.8355  0.1511
 3712TIP3   OH232550   2.422   4.739  13.251 -0.1184  0.0800 -0.4134
 3712TIP3    H132551   2.397   4.830  13.269 -0.0472  0.0752 -0.2874
 3712TIP3    H232552   2.348   4.688  13.283  1.2497 -0.1411  2.7561
 3713TIP3   OH232553   3.912   6.419  15.848  0.2258  0.0303  0.3132
 3713TIP3    H132554   3.947   6.357  15.784  2.3253  1.5709 -0.1272
 3713TIP3    H232555   3.936   6.383  15.933 -1.3932 -1.3372  0.2408
 3714TIP3   OH232556   0.112   5.688  11.128 -0.6722  0.1443 -0.1791
 3714TIP3    H132557   0.133   5.647  11.043 -0.7947  0.2341 -0.2518
 3714TIP3    H232558   0.172   5.645  11.190 -0.7659 -0.1128 -0.2645
 3715TIP3   OH232559   1.318   1.521   0.853 -0.7966  0.0548  0.3192
 3715TIP3    H132560   1.230   1.500   0.822 -0.7391  4.9402 -4.5843
 3715TIP3    H232561   1.306   1.600   0.906  0.5400  2.0726 -2.1610
 3716TIP3   OH232562   4.775   5.940  13.490 -0.1821  0.0103  0.1618
 3716TIP3    H132563   4.863   5.975  13.472 -1.1306  1.8140 -1.2492
 3716TIP3    H232564   4.731   5.939  13.405 -0.8049 -3.2582  0.3744
 3717TIP3   OH232565   3.758   1.304   5.266  0.1452 -0.4166 -0.4013
 3717TIP3    H132566   3.709   1.313   5.185 -0.1794  1.9428  0.0021
 3717TIP3    H232567   3.695   1.268   5.329 -0.1204 -0.5041 -0.7184
 3718TIP3   OH232568   0.998   0.005   0.700 -0.2440 -0.1056 -0.3083
 3718TIP3    H132569   0.976   0.090   0.662 -1.4327 -0.2771 -0.0315
 3718TIP3    H232570   0.914  -0.040   0.707 -0.0292 -0.2291  2.1734
 3719TIP3   OH232571   5.111   4.979   3.395 -0.2138 -0.3151  0.3355
 3719TIP3    H132572   5.177   4.947   3.456  0.5113 -0.3346 -0.4388
 3719TIP3    H232573   5.036   5.002   3.450  0.1646 -0.9910  1.1543
 3720TIP3   OH232574   0.427   2.434  10.738 -0.1301  0.1052 -0.8213
 3720TIP3    H132575   0.427   2.463  10.830 -1.5906 -2.1350 -0.0492
 3720TIP3    H232576   0.335   2.440  10.711 -0.4506 -2.9922 -0.7874
 3721TIP3   OH232577   0.464   1.567  12.985 -0.1017 -0.0147  0.2112
 3721TIP3    H132578   0.548   1.567  13.032  0.0373 -0.2849 -0.0356
 3721TIP3    H232579   0.446   1.475  12.968  0.0055  0.0960 -0.5362
 3722TIP3   OH232580   6.705   3.363   5.829  0.1498 -0.7083  0.4120
 3722TIP3    H132581   6.672   3.295   5.887  1.0772 -1.5634 -0.0322
 3722TIP3    H232582   6.754   3.422   5.886 -0.1461 -0.7449  0.7058
 3723TIP3   OH232583   1.712   5.505  16.397  0.2355 -0.1530  0.5993
 3723TIP3    H132584   1.710   5.567  16.323 -0.3940 -1.0832 -0.1865
 3723TIP3    H232585   1.656   5.544  16.463 -0.3400  0.0300  0.0193
 3724TIP3   OH232586   0.445   5.348  10.135  1.0345  0.3936  0.2810
 3724TIP3    H132587   0.423   5.432  10.175 -1.1138 -0.2490  0.5435
 3724TIP3    H232588   0.429   5.284  10.204 -2.2835 -0.6916 -1.2904
 3725TIP3   OH232589   4.435   2.930  11.487  0.1118  0.3043 -0.2125
 3725TIP3    H132590   4.453   2.846  11.531 -0.6175  1.4613  2.5151
 3725TIP3    H232591   4.516   2.980  11.497  0.1735  0.3361 -0.8464
 3726TIP3   OH232592   5.224   3.028   0.990  0.0610 -0.0084  0.3847
 3726TIP3    H132593   5.143   3.072   1.015 -0.3826 -1.9939  2.8421
 3726TIP3    H232594   5.198   2.968   0.921 -0.1733  0.5840 -0.0554
 3727TIP3   OH232595   5.800   1.122  12.582  0.0008  0.1947 -0.7446
 3727TIP3    H132596   5.803   1.148  12.674  1.8628  1.1368 -1.0381
 3727TIP3    H232597   5.835   1.196  12.534 -1.8818  0.1400 -2.3654
 3728TIP3   OH232598   4.376   5.370   2.386 -0.3449 -0.7500 -0.0224
 3728TIP3    H132599   4.340   5.281   2.387  0.1686 -0.9582  0.1779
 3728TIP3    H232600   4.335   5.411   2.310 -0.9900 -0.9858  0.1872
 3729TIP3   OH232601   3.789   6.279   1.640 -0.1270  0.1665 -0.2966
 3729TIP3    H132602   3.824   6.303   1.726  1.8673 -0.4253 -0.8902
 3729TIP3    H232603   3.747   6.358   1.607 -0.4075  0.5606  0.9675
 3730TIP3   OH232604   0.564   2.243   4.829 -0.4592  0.0039  0.2708
 3730TIP3    H132605   0.543   2.333   4.803  3.5014  1.0308 -0.0859
 3730TIP3    H232606   0.605   2.253   4.915  2.4665 -0.9875 -0.8930
 3731TIP3   OH232607   4.794   3.596   4.178  0.2991 -0.3373 -0.0897
 3731TIP3    H132608   4.758   3.653   4.246 -0.9443 -1.3167  0.1322
 3731TIP3    H232609   4.739   3.612   4.102  2.0101  1.1356 -1.0783
 3732TIP3   OH232610   6.167   3.743   0.512 -0.1600  0.7558  0.3324
 3732TIP3    H132611   6.206   3.680   0.451 -1.3091  0.4036 -0.0698
 3732TIP3    H232612   6.149   3.691   0.591  1.2824  1.2000  0.9809
 3733TIP3   OH232613   3.447   0.544  12.568  0.2503 -0.4666 -0.0068
 3733TIP3    H132614   3.489   0.570  12.650  1.4769 -0.5433 -0.5795
 3733TIP3    H232615   3.516   0.554  12.502 -0.8500  0.0457 -1.1066
 3734TIP3   OH232616   2.357   4.975  15.674  0.5938 -0.1728 -0.1655
 3734TIP3    H132617   2.307   5.057  15.672  0.0416 -0.3387  2.5827
 3734TIP3    H232618   2.448   5.003  15.683  0.4175  0.1785  0.6549
 3735TIP3   OH232619   3.632   1.079   6.287 -0.1530  0.0242  0.1245
 3735TIP3    H132620   3.682   1.007   6.247 -0.0601  0.5005 -0.6459
 3735TIP3    H232621   3.606   1.133   6.213  0.0042  0.9288  0.7181
 3736TIP3   OH232622   6.650   6.350  16.388 -0.0013  0.0525  0.2390
 3736TIP3    H132623   6.715   6.280  16.396 -0.4315 -0.4452 -0.4334
 3736TIP3    H232624   6.566   6.304  16.394 -0.3707  0.8853  2.9816
 3737TIP3   OH232625   6.297   3.967   3.711 -0.0592  0.2135  0.1157
 3737TIP3    H132626   6.362   4.032   3.738  0.0339 -0.1942  0.9021
 3737TIP3    H232627   6.238   4.014   3.653  0.7817  0.6587 -0.3931
 3738TIP3   OH232628   3.964   5.300   3.547 -0.1417  0.3790  0.0364
 3738TIP3    H132629   3.954   5.269   3.457 -0.0614  0.7833 -0.1177
 3738TIP3    H232630   3.888   5.264   3.594 -0.3611  0.4316 -0.2737
 3739TIP3   OH232631   1.780   6.407  12.104  0.4043  0.5871 -0.2001
 3739TIP3    H132632   1.810   6.321  12.076 -2.4012 -1.2239  1.7970
 3739TIP3    H232633   1.740   6.446  12.026 -0.6583 -1.1252 -0.5657
 3740TIP3   OH232634   2.394   5.343   1.818 -0.4927  0.3577  0.4436
 3740TIP3    H132635   2.425   5.354   1.908  3.7860 -1.9283 -0.4501
 3740TIP3    H232636   2.451   5.400   1.766 -1.5060  0.1245 -0.9736
 3741TIP3   OH232637   2.824   3.307  12.793  0.0610  0.0784  0.6270
 3741TIP3    H132638   2.830   3.242  12.863 -1.5536  0.3976  1.0995
 3741TIP3    H232639   2.785   3.384  12.834  0.8827  0.9648 -0.1889
 3742TIP3   OH232640   0.601   4.282  14.928 -0.2798 -0.0526  0.3985
 3742TIP3    H132641   0.551   4.363  14.928 -0.8190 -0.3598 -0.9215
 3742TIP3    H232642   0.594   4.250  15.018 -1.4797  0.5052  0.5247
 3743TIP3   OH232643   0.624   3.588  12.995  0.3145  0.2200  0.1359
 3743TIP3    H132644   0.596   3.633  13.075 -0.5145 -0.8990  0.5024
 3743TIP3    H232645   0.712   3.557  13.015  0.5219  0.8495  0.2224
 3744TIP3   OH232646   5.515   0.842   2.648 -0.2297  0.2819  0.5048
 3744TIP3    H132647   5.558   0.901   2.586 -0.3291  0.5443  0.6837
 3744TIP3    H232648   5.445   0.895   2.686 -0.3343  0.0403  0.6498
 3745TIP3   OH232649   4.604   0.446   6.899 -0.4021  0.2396 -0.4129
 3745TIP3    H132650   4.534   0.394   6.938  0.3329 -0.9652 -0.6210
 3745TIP3    H232651   4.565   0.484   6.820 -0.8283 -0.3966 -0.5156
 3746TIP3   OH232652   5.439   5.946   0.938  0.5870 -0.4841 -0.6406
 3746TIP3    H132653   5.492   5.996   0.999  1.2676 -1.2831 -0.5691
 3746TIP3    H232654   5.440   5.998   0.858  0.8065 -0.1029 -0.3957
 3747TIP3   OH232655   3.272   2.083  15.447 -0.4920 -0.1015 -0.1383
 3747TIP3    H132656   3.185   2.046  15.430  0.0650 -1.6338  0.1760
 3747TIP3    H232657   3.303   2.113  15.362 -1.5206  0.9073 -0.1694
 3748TIP3   OH232658   5.257   6.026   1.663  0.4792 -0.1215  0.0297
 3748TIP3    H132659   5.244   6.010   1.569 -1.1840 -2.3984  0.5642
 3748TIP3    H232660   5.317   5.956   1.691  0.3637  0.0821  0.8057
 3749TIP3   OH232661   2.567   5.457   4.237 -0.1417 -0.3629 -0.8143
 3749TIP3    H132662   2.547   5.451   4.330 -0.6218 -0.5445 -0.9238
 3749TIP3    H232663   2.496   5.409   4.194 -0.8184  1.0674 -1.3595
 3750TIP3   OH232664   1.692   2.032   2.395  0.1307  0.2801 -0.1743
 3750TIP3    H132665   1.772   1.984   2.416  0.4212  1.2696  1.0511
 3750TIP3    H232666   1.622   1.969   2.411  0.6630 -1.5356 -3.8527
 3751TIP3   OH232667   4.392   2.691  13.620 -0.8071  0.1383 -0.6290
 3751TIP3    H132668   4.465   2.752  13.623 -0.6343 -0.1033  0.5560
 3751TIP3    H232669   4.432   2.604  13.629 -1.2775  0.0447  0.7302
 3752TIP3   OH232670   3.983   4.334  16.662 -0.3461 -0.0688 -0.4828
 3752TIP3    H132671   4.002   4.270  16.731  0.3076 -0.1704 -0.7511
 3752TIP3    H232672   4.037   4.410  16.683 -1.0303  0.3550 -0.2344
 3753TIP3   OH232673   5.929   4.633   5.361  0.1873 -0.3175  0.2643
 3753TIP3    H132674   5.850   4.660   5.407 -0.0488  0.6749 -0.6887
 3753TIP3    H232675   5.974   4.715   5.340  0.5705 -0.7746 -0.7467
 3754TIP3   OH232676   5.842   4.896  12.981 -0.0067 -0.6540 -0.3755
 3754TIP3    H132677   5.837   4.845  12.900  0.0055 -0.7324 -0.3263
 3754TIP3    H232678   5.755   4.934  12.990  0.1110 -0.3177 -0.6387
 3755TIP3   OH232679   3.634   5.406   2.001  0.0267 -0.1786 -0.1517
 3755TIP3    H132680   3.579   5.388   1.924 -0.1049  1.2310 -0.4174
 3755TIP3    H232681   3.723   5.411   1.966 -0.0319  0.4507 -0.2274
 3756TIP3   OH232682   2.436   0.417   3.854 -0.8421  0.0109  0.1040
 3756TIP3    H132683   2.368   0.474   3.817  1.0360  0.7867 -2.4512
 3756TIP3    H232684   2.438   0.341   3.795  0.5747  0.0889  0.0154
 3757TIP3   OH232685   6.476   0.817   4.251  0.3187 -0.1132 -0.7226
 3757TIP3    H132686   6.460   0.723   4.262  0.2394 -0.2180 -1.6627
 3757TIP3    H232687   6.402   0.860   4.293  0.2976 -0.4754 -0.3906
 3758TIP3   OH232688   5.447   0.740  16.218 -0.5308  1.0853  0.1607
 3758TIP3    H132689   5.517   0.703  16.271 -1.1130  0.9108  0.8107
 3758TIP3    H232690   5.442   0.683  16.141 -1.0171  0.1582  0.8615
 3759TIP3   OH232691   1.882   2.912   4.968  0.0588 -0.0217 -0.1372
 3759TIP3    H132692   1.855   2.923   5.059  1.9586 -0.0645  0.4749
 3759TIP3    H232693   1.955   2.972   4.957  1.2280 -1.5269 -0.9840
 3760TIP3   OH232694   0.240   5.885   6.436  0.0096 -0.1369  0.0156
 3760TIP3    H132695   0.297   5.808   6.437 -1.2430 -1.1070 -0.3499
 3760TIP3    H232696   0.300   5.960   6.429  1.2235 -1.1034 -0.2180
 3761TIP3   OH232697   2.020   4.826   1.731  0.3964  0.0164  0.0385
 3761TIP3    H132698   2.100   4.826   1.679  0.9432  0.9158  0.8483
 3761TIP3    H232699   2.039   4.764   1.802  0.5022  0.4641  0.4053
 3762TIP3   OH232700   3.934   3.092   4.617 -0.0880  0.1446  0.3637
 3762TIP3    H132701   3.980   3.174   4.632 -0.8242  1.1469 -2.2455
 3762TIP3    H232702   3.996   3.039   4.566 -1.1027  0.8443 -1.7053
 3763TIP3   OH232703   5.655   1.137  10.542  0.4011  0.0661 -0.3359
 3763TIP3    H132704   5.691   1.117  10.629  0.2838  0.5309 -0.1819
 3763TIP3    H232705   5.671   1.057  10.491  1.0829  0.0363 -0.0834
 3764TIP3   OH232706   4.476   5.324   0.434 -0.0146 -0.0037  0.2187
 3764TIP3    H132707   4.411   5.270   0.479  0.3302 -0.2767  0.3894
 3764TIP3    H232708   4.521   5.264   0.375  0.0879  0.1841  0.1032
 3765TIP3   OH232709   5.563   5.617  12.260  0.0478 -0.2615  0.5293
 3765TIP3    H132710   5.487   5.575  12.219 -0.2806  0.5921  0.2405
 3765TIP3    H232711   5.626   5.545  12.274 -0.0621 -0.6663 -0.9382
 3766TIP3   OH232712   2.023   4.722  14.873  0.1703  0.5757  0.2301
 3766TIP3    H132713   2.079   4.791  14.837 -1.3109 -0.1180 -3.9442
 3766TIP3    H232714   2.074   4.641  14.860  0.0403  0.4147  0.7178
 3767TIP3   OH232715   3.521   2.500  13.158  0.0026  0.3184  0.1365
 3767TIP3    H132716   3.485   2.545  13.082 -2.3788 -1.4126  0.1252
 3767TIP3    H232717   3.456   2.511  13.227  3.2259  4.0850  3.0176
 3768TIP3   OH232718   3.608   0.986  14.995  0.4331 -0.2333  0.2613
 3768TIP3    H132719   3.682   1.044  14.983 -0.1241  0.5653  0.6393
 3768TIP3    H232720   3.535   1.030  14.950  0.1192 -0.8774  0.1182
 3769TIP3   OH232721   3.516   6.590  13.940 -0.2411  0.1121  0.1392
 3769TIP3    H132722   3.506   6.576  14.034 -0.5771 -0.3762  0.0343
 3769TIP3    H232723   3.430   6.623  13.912 -0.9159 -1.9580 -0.3852
 3770TIP3   OH232724   4.372   5.636  14.507  0.3637  0.6057 -0.0028
 3770TIP3    H132725   4.326   5.717  14.530  1.6917  1.1369  0.9491
 3770TIP3    H232726   4.447   5.665  14.456 -0.5270 -0.2836 -1.9007
 3771TIP3   OH232727   3.746   1.933  15.936 -0.3932 -0.1881  0.4999
 3771TIP3    H132728   3.816   1.994  15.956  0.5875 -1.5386  1.3333
 3771TIP3    H232729   3.718   1.956  15.847  2.2336 -0.6575 -0.5275
 3772TIP3   OH232730   2.377   3.703  13.203 -0.2396  0.3920 -0.4163
 3772TIP3    H132731   2.430   3.668  13.132  0.5155  3.3079 -1.4279
 3772TIP3    H232732   2.288   3.671  13.185  0.4441 -1.3009 -0.9568
 3773TIP3   OH232733   6.633   2.749   4.991  0.0307  0.1055 -0.2417
 3773TIP3    H132734   6.615   2.669   5.040 -0.0458  0.2859  0.0240
 3773TIP3    H232735   6.598   2.732   4.904 -2.7718  0.9698  0.6221
 3774TIP3   OH232736   1.012   3.034   2.415  0.6267 -0.5600  0.0865
 3774TIP3    H132737   1.088   3.035   2.358 -0.5813 -0.7747 -1.5950
 3774TIP3    H232738   0.978   2.944   2.409 -0.4711 -0.1447 -0.1889
 3775TIP3   OH232739   1.203   3.017  14.879 -0.7441 -0.1670 -0.0792
 3775TIP3    H132740   1.144   3.022  14.953 -1.8100 -1.7668 -0.7595
 3775TIP3    H232741   1.272   2.955  14.907 -0.5949  0.0032 -0.0686
 3776TIP3   OH232742   4.798   2.768   3.306 -0.3063  0.1377 -0.4754
 3776TIP3    H132743   4.763   2.837   3.362 -0.5023 -0.0123 -0.4106
 3776TIP3    H232744   4.735   2.761   3.234  0.0261  0.4371 -0.8009
 3777TIP3   OH232745   0.734   3.813   3.166  0.0434 -0.2912  0.0547
 3777TIP3    H132746   0.764   3.742   3.223 -1.6256 -1.6041 -0.5943
 3777TIP3    H232747   0.786   3.803   3.086 -1.2478 -1.8475 -0.6429
 3778TIP3   OH232748   6.567   4.241   2.640 -0.3408  0.1705 -0.1440
 3778TIP3    H132749   6.513   4.231   2.562 -0.1695  0.2246 -0.2711
 3778TIP3    H232750   6.636   4.302   2.614 -0.6069  0.6378  0.2171
 3779TIP3   OH232751   2.590   5.058   0.819  0.0039 -0.9540  0.1226
 3779TIP3    H132752   2.554   4.984   0.769  1.8936 -1.7615 -0.1520
 3779TIP3    H232753   2.663   5.089   0.765 -1.3074  1.8181 -0.2501
 3780TIP3   OH232754   2.952   1.383  11.900 -0.1259 -0.1854 -0.2629
 3780TIP3    H132755   2.999   1.299  11.899  1.7247  0.7045  1.8763
 3780TIP3    H232756   2.945   1.405  11.993  2.1145  3.3722 -0.7478
 3781TIP3   OH232757   2.828   0.223  10.992 -0.2245  0.7727  0.0785
 3781TIP3    H132758   2.848   0.150  10.934 -0.4453  1.0450 -0.3401
 3781TIP3    H232759   2.732   0.223  10.999 -0.2395  1.1896 -0.1378
 3782TIP3   OH232760   4.461   6.646   4.012 -0.1882  0.5663 -1.0196
 3782TIP3    H132761   4.372   6.613   4.021 -0.1640  0.8462  0.6029
 3782TIP3    H232762   4.456   6.736   4.043  1.1316 -0.2308  1.8814
 3783TIP3   OH232763   5.266   3.325   5.279  0.4780 -0.1885 -0.0604
 3783TIP3    H132764   5.297   3.398   5.225  1.1541  0.8022  1.5812
 3783TIP3    H232765   5.186   3.358   5.320  1.1120 -0.1364  1.1561
 3784TIP3   OH232766   2.584   6.044  12.094 -0.3288  0.3007  0.5797
 3784TIP3    H132767   2.641   6.120  12.108  1.8858 -1.4419  1.5003
 3784TIP3    H232768   2.536   6.066  12.014  0.5872  2.4487  0.5389
 3785TIP3   OH232769   4.568   5.957   5.057  0.0628 -0.1710  0.2165
 3785TIP3    H132770   4.570   5.919   5.144  2.7156  0.3741  0.4778
 3785TIP3    H232771   4.585   5.883   4.998 -2.6252 -0.7142 -0.0125
 3786TIP3   OH232772   3.806   3.442   3.222 -0.7557 -0.2691 -0.2182
 3786TIP3    H132773   3.815   3.464   3.315  0.0464 -2.3809  0.2759
 3786TIP3    H232774   3.892   3.460   3.184 -0.7836 -0.3472 -0.3196
 3787TIP3   OH232775   4.821   6.270   1.649  0.5632 -0.3871 -0.4024
 3787TIP3    H132776   4.797   6.278   1.556  0.3522  1.0928 -0.2405
 3787TIP3    H232777   4.769   6.337   1.693 -0.2151 -1.8321  0.9830
 3788TIP3   OH232778   3.130   5.478  14.984  0.2748  0.2843 -0.2778
 3788TIP3    H132779   3.210   5.426  14.994 -0.1130  0.0802  2.7665
 3788TIP3    H232780   3.155   5.565  15.016 -0.3587  0.6244 -0.6898
 3789TIP3   OH232781   5.943   0.513   1.411  0.3510 -0.1081 -0.1935
 3789TIP3    H132782   5.916   0.513   1.320 -0.3169  0.0752 -0.0023
 3789TIP3    H232783   5.902   0.592   1.448  1.5653  0.4548 -0.0124
 3790TIP3   OH232784   1.434   5.715   1.029  0.0973  0.0066  0.6300
 3790TIP3    H132785   1.501   5.723   0.960  0.6807 -0.2294  1.1618
 3790TIP3    H232786   1.444   5.625   1.062 -1.4403 -0.5383 -0.2487
 3791TIP3   OH232787   5.894   4.475  12.983  0.0545 -0.9862  0.1622
 3791TIP3    H132788   5.816   4.496  12.932  1.1390 -1.0212 -1.5758
 3791TIP3    H232789   5.888   4.530  13.061 -1.1812 -0.2527 -0.4365
 3792TIP3   OH232790   4.252   5.462  17.178  0.0107  0.4657 -0.1078
 3792TIP3    H132791   4.321   5.526  17.164 -0.1926  0.6080 -0.4803
 3792TIP3    H232792   4.207   5.457  17.093  1.4571 -1.8846 -0.8145
 3793TIP3   OH232793   4.385   3.903   0.971 -0.2327  0.4448 -0.6013
 3793TIP3    H132794   4.331   3.925   1.047  0.3611 -1.3404  0.3988
 3793TIP3    H232795   4.372   3.976   0.910 -2.4286  0.8629  0.2918
 3794TIP3   OH232796   3.365   3.994  16.136  0.0237  0.3118  0.1217
 3794TIP3    H132797   3.449   3.986  16.089  0.0128  1.1490 -0.0596
 3794TIP3    H232798   3.337   4.084  16.119 -0.7166  0.1625  0.5204
 3795TIP3   OH232799   5.278   4.026  11.175  0.6381 -0.3485 -0.4939
 3795TIP3    H132800   5.213   3.995  11.112  0.6977 -2.2872  0.3159
 3795TIP3    H232801   5.362   4.000  11.137  0.8966  1.2350 -1.0510
 3796TIP3   OH232802   1.643   2.410   2.791 -0.1757 -0.2747  0.1404
 3796TIP3    H132803   1.703   2.438   2.721  3.6221 -2.2808  2.2465
 3796TIP3    H232804   1.631   2.487   2.845 -0.6325  0.5033 -1.0252
 3797TIP3   OH232805   2.167   2.446  13.163  0.0451  0.3933 -0.4644
 3797TIP3    H132806   2.173   2.379  13.095 -1.9516  0.6840 -0.9991
 3797TIP3    H232807   2.256   2.454  13.197  0.7626 -0.9359 -1.9041
 3798TIP3   OH232808   0.581   5.479  11.253  0.1169  1.4089 -0.0807
 3798TIP3    H132809   0.652   5.507  11.311  0.2656 -0.4853  0.7280
 3798TIP3    H232810   0.574   5.385  11.267 -1.7404  1.3464 -1.0707
 3799TIP3   OH232811   3.097   0.770   5.216 -0.1182  0.1428  0.3679
 3799TIP3    H132812   3.177   0.718   5.224  0.1140  0.5691  0.8433
 3799TIP3    H232813   3.126   0.854   5.182 -0.3442  0.3542  0.6927
 3800TIP3   OH232814   0.179   4.820   1.905 -0.0000 -0.1615 -0.2521
 3800TIP3    H132815   0.238   4.754   1.868 -0.6855 -0.3245 -1.1011
 3800TIP3    H232816   0.231   4.899   1.909  0.7749 -0.7007  0.5851
 3801TIP3   OH232817   5.298   5.792  12.374  0.2111 -0.1733  0.0351
 3801TIP3    H132818   5.281   5.725  12.308 -0.0326  0.7618 -0.8864
 3801TIP3    H232819   5.243   5.768  12.448 -0.8933 -0.2731 -0.7876
 3802TIP3   OH232820   4.378   4.618   0.752 -0.4253  0.1664  0.4139
 3802TIP3    H132821   4.385   4.637   0.659  3.0566 -3.3935 -0.2926
 3802TIP3    H232822   4.428   4.688   0.794  0.2756  0.3370 -0.6659
 3803TIP3   OH232823   4.399   2.877   2.650 -0.1229  0.2646 -0.2998
 3803TIP3    H132824   4.379   2.952   2.707 -0.8076 -1.2691  1.5825
 3803TIP3    H232825   4.326   2.873   2.589 -1.3325 -0.2448  1.1232
 3804TIP3   OH232826   5.052   1.366  15.013  0.1203 -0.3640 -0.4786
 3804TIP3    H132827   5.057   1.337  15.104 -0.2159  1.2438  0.0817
 3804TIP3    H232828   5.138   1.404  14.994 -0.6074  1.7152  0.0758
 3805TIP3   OH232829   6.170   0.321  14.886 -0.3647  0.4803 -0.2992
 3805TIP3    H132830   6.075   0.325  14.892 -0.2947  0.2356  1.9185
 3805TIP3    H232831   6.201   0.374  14.960  1.1714 -0.6084 -0.1048
 3806TIP3   OH232832   3.413   4.080  12.347  0.2099 -0.6840 -0.7958
 3806TIP3    H132833   3.395   4.045  12.260 -1.0297  1.3393 -1.4230
 3806TIP3    H232834   3.356   4.156  12.354 -0.0770 -1.0571  1.9947
 3807TIP3   OH232835   0.287   6.049  11.365 -0.0128 -0.2592 -0.5532
 3807TIP3    H132836   0.341   5.997  11.305  0.0970 -1.3353  0.4536
 3807TIP3    H232837   0.197   6.022  11.346  0.0309 -0.6832 -0.1478
 3808TIP3   OH232838   0.329   1.041   0.333  0.3211  0.0700 -0.4623
 3808TIP3    H132839   0.379   0.961   0.313 -0.4119 -0.5987  0.3159
 3808TIP3    H232840   0.361   1.068   0.419  1.1127  1.0676 -1.0529
 3809TIP3   OH232841   4.117   2.567   2.418 -0.2263 -0.5818  0.1370
 3809TIP3    H132842   4.103   2.485   2.371 -0.6260  0.2713 -1.3100
 3809TIP3    H232843   4.173   2.619   2.360 -0.3768  0.3510  0.7916
 3810TIP3   OH232844   2.487   4.034  16.056 -0.1794  0.2975  0.0746
 3810TIP3    H132845   2.502   4.019  15.963 -1.1919 -1.1055  0.0972
 3810TIP3    H232846   2.458   3.949  16.089  1.7718  0.3129  2.0340
 3811TIP3   OH232847   2.125   3.276  13.192  0.4141 -0.6090  0.7489
 3811TIP3    H132848   2.172   3.268  13.110  1.2697 -1.0216  1.2721
 3811TIP3    H232849   2.190   3.309  13.255 -0.0918 -0.7819  1.3792
 3812TIP3   OH232850   0.213   1.404   4.428 -0.0212 -0.7332 -0.8497
 3812TIP3    H132851   0.193   1.358   4.346 -1.3497 -0.9346 -0.4365
 3812TIP3    H232852   0.283   1.352   4.469  2.5352  0.7479 -2.9885
 3813TIP3   OH232853   1.592   0.942   2.790  0.6436  0.2403 -0.3668
 3813TIP3    H132854   1.497   0.936   2.785  0.6221  0.1243  0.1721
 3813TIP3    H232855   1.613   0.922   2.881  1.3107 -1.5124 -0.8650
 3814TIP3   OH232856   0.621   2.556   1.184 -0.3293 -0.0196  0.5680
 3814TIP3    H132857   0.528   2.564   1.205 -0.1631  1.2249  0.9405
 3814TIP3    H232858   0.633   2.464   1.160 -1.0713 -0.9857  3.4875
 3815TIP3   OH232859   2.841   0.978   0.987 -0.2925  0.8904  0.0863
 3815TIP3    H132860   2.922   0.984   0.937 -0.8208 -1.0583 -1.1471
 3815TIP3    H232861   2.772   0.998   0.923 -0.8405  1.4607  0.8393
 3816TIP3   OH232862   5.036   1.572   5.049  0.3076  0.3038  0.0096
 3816TIP3    H132863   4.953   1.614   5.072  1.1130  2.0736 -0.1861
 3816TIP3    H232864   5.078   1.554   5.133  0.1706  0.3243  0.0825
 3817TIP3   OH232865   3.394   0.787   0.250  0.4893 -0.0329  0.1535
 3817TIP3    H132866   3.352   0.869   0.224  0.2722 -0.3512 -0.5220
 3817TIP3    H232867   3.447   0.762   0.174 -0.0331 -0.8971  0.0607
 3818TIP3   OH232868   4.106   5.482   3.799 -0.2970 -0.0469  0.7917
 3818TIP3    H132869   4.087   5.391   3.772 -2.6854  0.9464 -1.3560
 3818TIP3    H232870   4.177   5.510   3.742 -0.5680 -0.1268  0.4110
 3819TIP3   OH232871   4.465   4.207  13.917 -0.1877  0.8079 -0.0033
 3819TIP3    H132872   4.432   4.177  14.002  2.6673  0.9086  1.2444
 3819TIP3    H232873   4.463   4.303  13.923  0.2275  0.8140  0.0341
 3820TIP3   OH232874   2.965   2.903   4.672  0.6122  0.2260  0.0355
 3820TIP3    H132875   2.875   2.892   4.641  0.5569  2.2316 -0.6469
 3820TIP3    H232876   3.016   2.915   4.593  1.3628 -0.0053  0.4742
 3821TIP3   OH232877   0.343   1.179  13.423 -0.8506 -0.8199  0.6283
 3821TIP3    H132878   0.248   1.171  13.411 -1.1146  1.8252  0.3503
 3821TIP3    H232879   0.376   1.090  13.416 -3.1164 -1.6008 -1.0840
 3822TIP3   OH232880   5.295   1.375  16.817  0.3914 -0.1234 -0.0263
 3822TIP3    H132881   5.339   1.297  16.781  1.2054  0.3685 -0.1123
 3822TIP3    H232882   5.204   1.364  16.791  0.4747 -1.0990  0.0400
 3823TIP3   OH232883   4.766   4.638  12.438  0.2348 -0.4827 -0.3766
 3823TIP3    H132884   4.721   4.691  12.504 -1.3546 -0.1478 -1.6709
 3823TIP3    H232885   4.751   4.685  12.356 -0.1089 -2.2786 -1.3755
 3824TIP3   OH232886   0.382   2.789  13.977  0.5275 -0.5961  0.5812
 3824TIP3    H132887   0.306   2.769  14.032  0.0944  0.8453  0.5560
 3824TIP3    H232888   0.419   2.704  13.954 -3.0167 -1.6253 -2.1626
 3825TIP3   OH232889   4.906   4.801   4.031 -0.1233  0.6340  0.5169
 3825TIP3    H132890   4.877   4.732   3.972  0.4712  0.3976  0.4931
 3825TIP3    H232891   4.887   4.768   4.119  0.2760  0.3845  0.5109
 3826TIP3   OH232892   0.037   5.001   0.912  0.7090  0.0500 -0.4916
 3826TIP3    H132893  -0.008   5.065   0.967  0.7361 -0.1208 -0.2691
 3826TIP3    H232894   0.035   5.039   0.824  1.3967  0.7099 -0.2327
 3827TIP3   OH232895   2.666   0.807  13.644  0.5150 -0.1346  0.0013
 3827TIP3    H132896   2.688   0.877  13.582 -3.4486  2.4840  1.1713
 3827TIP3    H232897   2.617   0.744  13.592 -1.6941  1.4180  0.0761
 3828TIP3   OH232898   3.646   5.321  12.101  0.4349  0.3459  0.0492
 3828TIP3    H132899   3.619   5.274  12.180 -2.6371 -1.3304 -1.7989
 3828TIP3    H232900   3.720   5.271  12.067  0.0675 -0.5006  0.4637
 3829TIP3   OH232901   1.944   4.976  15.176 -0.2577  0.2470 -1.1090
 3829TIP3    H132902   1.875   4.951  15.238  1.0930 -0.2183  0.2625
 3829TIP3    H232903   1.945   4.904  15.113 -1.0461  0.2838 -1.1817
 3830TIP3   OH232904   3.609   3.449   0.420  0.0657  0.5839  0.4221
 3830TIP3    H132905   3.587   3.373   0.472 -0.4995  0.2049 -0.3443
 3830TIP3    H232906   3.668   3.416   0.353  1.9274  1.3363  1.6339
 3831TIP3   OH232907   1.628   0.243  13.858  0.3526  0.0331 -0.0527
 3831TIP3    H132908   1.549   0.192  13.877  0.7125 -0.8449 -0.8849
 3831TIP3    H232909   1.679   0.188  13.799  1.3358  0.8310  0.0301
 3832TIP3   OH232910   1.530   6.261  11.757  0.3837  0.1771  0.3078
 3832TIP3    H132911   1.479   6.329  11.714 -0.9620 -0.9433  0.0571
 3832TIP3    H232912   1.587   6.226  11.688 -0.2466 -0.1785 -0.0431
 3833TIP3   OH232913   6.625   6.468  13.704 -0.0682  0.4308  0.3180
 3833TIP3    H132914   6.579   6.499  13.626 -1.8488 -0.7729  0.8290
 3833TIP3    H232915   6.565   6.487  13.776  0.0465 -1.4915  0.9753
 3834TIP3   OH232916   5.611   3.813  17.080 -0.1100  0.0593 -0.3401
 3834TIP3    H132917   5.573   3.816  16.992 -0.1160 -1.2261 -0.4012
 3834TIP3    H232918   5.609   3.904  17.110  0.6468  0.6622 -1.9838
 3835TIP3   OH232919   5.298   3.725  16.661 -0.2910  0.4969 -0.1155
 3835TIP3    H132920   5.267   3.802  16.709  1.9374  1.9931 -0.9224
 3835TIP3    H232921   5.261   3.735  16.573  0.0959  0.7383 -0.2543
 3836TIP3   OH232922   4.188   6.112  14.667  0.1965 -0.1803 -0.3044
 3836TIP3    H132923   4.228   6.186  14.620 -0.0018  0.4150  0.4475
 3836TIP3    H232924   4.144   6.062  14.598  0.2671  0.4479 -0.8175
 3837TIP3   OH232925   3.000   2.382   4.209  0.2942 -0.1819  0.3747
 3837TIP3    H132926   3.014   2.308   4.150 -0.4649 -1.3099  1.5511
 3837TIP3    H232927   2.967   2.343   4.290  0.6060  1.3788  1.3111
 3838TIP3   OH232928   5.065   4.085   3.886 -0.1750  0.5428 -0.1433
 3838TIP3    H132929   5.079   4.092   3.981 -1.8492  1.6853  0.0607
 3838TIP3    H232930   5.064   3.991   3.870 -0.4130  0.3099  1.0820
 3839TIP3   OH232931   0.502   4.427  11.934  0.1875  0.0484  0.1220
 3839TIP3    H132932   0.523   4.411  12.026 -0.5958 -1.3023  0.1024
 3839TIP3    H232933   0.569   4.379  11.885 -0.4625 -0.7645  0.0172
 3840TIP3   OH232934   6.644   1.776   0.270 -0.2255 -0.1216  0.0484
 3840TIP3    H132935   6.648   1.857   0.219  1.3877  0.2416  0.6739
 3840TIP3    H232936   6.623   1.805   0.359 -2.0676 -0.6605 -0.1602
 3841TIP3   OH232937   2.854   5.735  14.558  0.2649 -0.5101 -0.3076
 3841TIP3    H132938   2.921   5.787  14.513 -0.3801 -0.2946 -1.0380
 3841TIP3    H232939   2.890   5.721  14.645  1.0130  0.0927 -0.5031
 3842TIP3   OH232940   5.151   0.118   5.541 -0.8251  0.1109 -0.6797
 3842TIP3    H132941   5.178   0.206   5.565 -2.2919  0.4220 -0.0989
 3842TIP3    H232942   5.121   0.126   5.450 -4.7334  1.1637  0.5394
 3843TIP3   OH232943   1.884   5.560  14.330  0.6861 -0.0098 -1.0118
 3843TIP3    H132944   1.816   5.492  14.333 -2.2751  2.5606 -2.8270
 3843TIP3    H232945   1.880   5.602  14.416  1.0306 -0.7712 -0.6151
 3844TIP3   OH232946   4.313   2.497   0.193 -0.0219  0.0826  0.2325
 3844TIP3    H132947   4.366   2.564   0.149 -2.1537  0.8570 -1.3289
 3844TIP3    H232948   4.323   2.419   0.140 -0.3181  0.1934  0.0094
 3845TIP3   OH232949   6.122   6.742   4.024 -0.0908  0.0710  0.7071
 3845TIP3    H132950   6.092   6.798   3.952  0.7828  0.4178  0.5957
 3845TIP3    H232951   6.170   6.801   4.082 -1.7572  0.0324  2.2014
 3846TIP3   OH232952   3.821   2.520  12.405 -0.5510 -0.5453 -0.2938
 3846TIP3    H132953   3.787   2.439  12.442  2.7331 -3.2379 -2.5986
 3846TIP3    H232954   3.760   2.541  12.334 -0.7805 -1.7029 -0.4633
 3847TIP3   OH232955   6.251   2.357  16.085 -0.1019  0.1719 -0.6921
 3847TIP3    H132956   6.301   2.359  16.167 -0.5187  1.2679 -0.4354
 3847TIP3    H232957   6.212   2.270  16.083  0.9458 -0.3156 -0.3650
 3848TIP3   OH232958   1.305   3.035   5.588  0.1406 -0.1804 -0.2824
 3848TIP3    H132959   1.267   2.949   5.578 -0.3757 -0.1254  1.0688
 3848TIP3    H232960   1.289   3.078   5.504 -0.8709 -0.8950 -0.4721
 3849TIP3   OH232961   5.498   5.614   4.086 -0.0275  0.6970 -0.4139
 3849TIP3    H132962   5.535   5.599   4.173  0.9611  0.7980 -0.7993
 3849TIP3    H232963   5.505   5.709   4.073 -0.2101  0.6870 -0.5905
 3850TIP3   OH232964   4.102   1.130  15.956  0.1183 -0.1162 -0.0970
 3850TIP3    H132965   4.074   1.186  15.883  1.2285  0.4593 -0.0981
 3850TIP3    H232966   4.125   1.191  16.026 -0.4355 -0.6474  0.5689
 3851TIP3   OH232967   3.028   1.434   5.955  0.2514  0.3373 -0.1806
 3851TIP3    H132968   3.119   1.403   5.963  0.8330  0.9156 -3.2371
 3851TIP3    H232969   2.975   1.356   5.973  1.3776 -0.2417  0.7578
 3852TIP3   OH232970   2.948   3.769   0.062 -0.3857  0.1279 -0.1268
 3852TIP3    H132971   2.910   3.718  -0.009 -2.2804  0.7659  0.3601
 3852TIP3    H232972   2.959   3.707   0.134 -3.1909  0.4170  0.6454
 3853TIP3   OH232973   0.943   2.565   5.512  0.1242  0.2366 -0.5222
 3853TIP3    H132974   0.904   2.537   5.430 -0.2989  0.4643 -0.3994
 3853TIP3    H232975   0.985   2.649   5.491 -2.9585  2.1143  0.2635
 3854TIP3   OH232976   6.735   4.767   5.664  0.2235 -0.0131 -0.2406
 3854TIP3    H132977   6.796   4.793   5.733 -1.1770 -1.2161  1.5356
 3854TIP3    H232978   6.660   4.729   5.711 -1.7931  1.1226 -2.3216
 3855TIP3   OH232979   6.637   0.747  15.923  0.2131  0.3505 -0.1936
 3855TIP3    H132980   6.676   0.828  15.954  1.9192 -1.0159  1.5077
 3855TIP3    H232981   6.631   0.692  16.001 -2.6466 -0.5439 -0.9224
 3856TIP3   OH232982   5.534   4.159  12.625  0.1840  0.3209 -0.3442
 3856TIP3    H132983   5.557   4.205  12.706 -1.2547  0.2527  0.1323
 3856TIP3    H232984   5.484   4.083  12.655 -0.0353  0.0895 -1.2898
 3857TIP3   OH232985   4.388   1.660   4.787 -0.0230 -0.2665  0.3109
 3857TIP3    H132986   4.463   1.617   4.827  0.8365  1.5882  0.8325
 3857TIP3    H232987   4.375   1.739   4.839 -0.5981  0.8477 -1.4257
 3858TIP3   OH232988   3.018   5.454   1.755 -0.4464 -0.0223 -0.2674
 3858TIP3    H132989   2.930   5.488   1.769  0.1154  1.6388 -0.5117
 3858TIP3    H232990   3.007   5.384   1.691 -1.7768 -0.9941  0.9675
 3859TIP3   OH232991   0.903   5.634   4.249 -0.5367  0.0832  0.0085
 3859TIP3    H132992   0.901   5.717   4.200  0.8299  0.7594  1.0188
 3859TIP3    H232993   0.823   5.635   4.301 -0.6480  0.6793 -0.1655
 3860TIP3   OH232994   1.992   1.747  10.937  0.2059  0.1635  0.0389
 3860TIP3    H132995   2.035   1.833  10.938  3.3861 -1.2798 -0.1392
 3860TIP3    H232996   2.044   1.695  10.876 -3.0142 -1.3253 -1.6612
 3861TIP3   OH232997   4.562   1.272   2.702  0.1124  0.1869 -0.3284
 3861TIP3    H132998   4.477   1.263   2.744 -0.1186 -0.5713 -0.9422
 3861TIP3    H232999   4.590   1.182   2.685  0.5176  0.4605 -1.1551
 3862TIP3   OH233000   5.692   2.851   2.803 -0.0105 -0.0012 -0.5813
 3862TIP3    H133001   5.670   2.819   2.716  2.8763 -1.6355 -0.8395
 3862TIP3    H233002   5.772   2.901   2.791 -0.3878  1.0538  0.9627
 3863TIP3   OH233003   6.158   6.293   5.410 -0.3561  1.1985 -0.6733
 3863TIP3    H133004   6.168   6.387   5.423  0.5323  1.0103  0.1639
 3863TIP3    H233005   6.088   6.268   5.470 -0.8098  1.3688 -1.1257
 3864TIP3   OH233006   6.212   6.076   3.904  0.0756 -1.1595 -0.6034
 3864TIP3    H133007   6.127   6.061   3.945  0.6409 -2.1456  0.2740
 3864TIP3    H233008   6.256   5.991   3.908  2.1270 -0.1282  1.4395
 3865TIP3   OH233009   0.325   6.632  12.111 -0.2713 -0.4227 -0.4141
 3865TIP3    H133010   0.389   6.597  12.049 -0.5037  0.4593 -1.1823
 3865TIP3    H233011   0.378   6.665  12.184  0.0087 -1.4358 -0.1443
 3866TIP3   OH233012   0.666   1.770  11.936  0.2229 -0.2382  0.2534
 3866TIP3    H133013   0.640   1.849  11.890 -1.2302 -0.6043  0.3910
 3866TIP3    H233014   0.600   1.705  11.911  0.9580 -1.1910  0.7266
 3867TIP3   OH233015   0.271   5.902  14.130 -0.2467  0.3557 -0.0270
 3867TIP3    H133016   0.191   5.881  14.179 -0.6521  0.6849 -0.5312
 3867TIP3    H233017   0.341   5.859  14.178 -0.6035  0.8451  0.9605
 3868TIP3   OH233018   2.546   6.154  11.564  0.2376  0.1426  0.0248
 3868TIP3    H133019   2.530   6.105  11.644  1.8224 -0.6847 -0.1259
 3868TIP3    H233020   2.484   6.118  11.501 -1.0194  0.8055  0.8540
 3869TIP3   OH233021   5.018   4.436   1.760 -0.3983 -0.1696 -0.1837
 3869TIP3    H133022   5.051   4.518   1.796 -0.0978 -0.1647 -0.4661
 3869TIP3    H233023   5.090   4.374   1.773 -0.4517 -0.2729 -0.3860
 3870TIP3   OH233024   6.675   0.330  11.747  0.2021 -0.6121 -0.6607
 3870TIP3    H133025   6.637   0.269  11.811  2.2874 -2.1536 -0.7918
 3870TIP3    H233026   6.769   0.322  11.759  0.5821  2.7046 -0.6681
 3871TIP3   OH233027   2.409   6.538  12.004 -0.2590 -0.2687  0.3448
 3871TIP3    H133028   2.375   6.604  12.065  2.4107  1.5845  0.0111
 3871TIP3    H233029   2.439   6.589  11.929 -0.1321 -2.1351 -0.9207
 3872TIP3   OH233030   2.010   3.117   5.404  0.0954 -0.2010 -0.4808
 3872TIP3    H133031   2.070   3.044   5.419  0.2673  0.0079 -0.1509
 3872TIP3    H233032   2.029   3.146   5.315  0.4892 -0.1279 -0.3734
 3873TIP3   OH233033   4.828   2.386  14.706  0.4193  0.4771  0.3347
 3873TIP3    H133034   4.746   2.343  14.731  0.7365 -1.9189 -2.2611
 3873TIP3    H233035   4.829   2.467  14.757 -3.4996  0.5729  0.5626
 3874TIP3   OH233036   5.778   1.893   1.903 -0.5543  0.4388  0.2945
 3874TIP3    H133037   5.832   1.957   1.949  0.1281 -0.4706  0.7785
 3874TIP3    H233038   5.833   1.815   1.896 -1.0456  0.2013 -1.1027
 3875TIP3   OH233039   1.215   6.179   3.535  0.5566 -0.3859  0.4154
 3875TIP3    H133040   1.184   6.103   3.584  1.1615 -0.8891  0.0376
 3875TIP3    H233041   1.306   6.191   3.564  0.2490  0.6439  1.0024
 3876TIP3   OH233042   1.645   3.632  12.782 -0.0775 -0.4928 -0.1030
 3876TIP3    H133043   1.642   3.696  12.853 -0.9765  0.5324 -1.0207
 3876TIP3    H233044   1.696   3.559  12.817  0.9775  0.7128  0.9836
 3877TIP3   OH233045   4.828   4.106  16.733 -0.6655 -0.0025 -0.8173
 3877TIP3    H133046   4.806   4.141  16.647 -0.3004  1.4253 -0.3498
 3877TIP3    H233047   4.923   4.119  16.741 -0.5961 -0.6860 -0.4385
 3878TIP3   OH233048   4.911   2.924   4.785  0.1757  0.4268  0.3335
 3878TIP3    H133049   4.923   3.018   4.794 -0.2829  0.5063  0.0993
 3878TIP3    H233050   4.828   2.906   4.829 -2.6267  0.9397 -4.1828
 3879TIP3   OH233051   6.689   5.592  16.757  0.6589 -0.3519  0.0003
 3879TIP3    H133052   6.724   5.552  16.837  1.0482 -1.1716 -0.5716
 3879TIP3    H233053   6.675   5.519  16.698 -0.7850  0.1110 -0.2658
 3880TIP3   OH233054   2.359   2.081  12.614 -0.4303  0.3817 -0.7377
 3880TIP3    H133055   2.321   2.052  12.531 -0.8116  0.1880 -0.4975
 3880TIP3    H233056   2.304   2.040  12.681 -0.9511  1.6158 -0.3870
 3881TIP3   OH233057   5.607   6.110  11.107 -0.4663 -0.0590  0.8315
 3881TIP3    H133058   5.615   6.072  11.020 -0.9350  2.0063 -0.1721
 3881TIP3    H233059   5.697   6.116  11.140 -0.0197  1.3602 -0.5442
 3882TIP3   OH233060   6.674   3.179  17.075  0.2016 -0.4880 -0.6560
 3882TIP3    H133061   6.693   3.250  17.014 -1.1101  1.0382  0.6258
 3882TIP3    H233062   6.657   3.103  17.019  0.6165  0.4560 -2.1078
 3883TIP3   OH233063   2.622   2.473  15.463  0.7029 -0.6168  0.5342
 3883TIP3    H133064   2.711   2.478  15.427  0.5061 -1.4476 -0.1163
 3883TIP3    H233065   2.587   2.391  15.428  0.1737 -1.0107  1.9121
 3884TIP3   OH233066   5.180   1.294  11.655 -0.2208  0.1314  0.3478
 3884TIP3    H133067   5.231   1.284  11.735 -0.4466  1.1336  0.6292
 3884TIP3    H233068   5.163   1.388  11.648 -0.5876  0.0093 -0.6395
 3885TIP3   OH233069   0.595   1.698  10.921  0.0645  0.2211  0.1363
 3885TIP3    H133070   0.589   1.603  10.927 -2.9291  0.1303 -2.2384
 3885TIP3    H233071   0.675   1.714  10.871  1.6694 -0.8350  2.1865
 3886TIP3   OH233072   5.525   0.919   5.414  0.5364 -0.6421 -0.0003
 3886TIP3    H133073   5.437   0.932   5.379 -0.3082 -0.9827  1.8501
 3886TIP3    H233074   5.542   0.998   5.466  0.3610 -1.5261  1.4660
 3887TIP3   OH233075   4.864   0.125   3.899 -0.6555 -0.5290  0.3252
 3887TIP3    H133076   4.830   0.196   3.952 -1.6925 -0.7382 -0.0355
 3887TIP3    H233077   4.804   0.120   3.824 -0.2597 -1.3971  0.0535
 3888TIP3   OH233078   5.161   4.457  16.656 -0.0873  0.4461 -0.6218
 3888TIP3    H133079   5.099   4.462  16.583  1.2968  0.7924 -1.8184
 3888TIP3    H233080   5.204   4.543  16.657  1.7328 -0.4191 -1.0914
 3889TIP3   OH233081   6.198   5.789  13.228 -0.7873  0.0535 -0.3112
 3889TIP3    H133082   6.128   5.748  13.178 -2.4350 -0.6305  2.3491
 3889TIP3    H233083   6.233   5.857  13.171 -0.7270 -2.3333 -3.3408
 3890TIP3   OH233084   2.366   5.393  11.651 -0.1593 -0.2227  0.3427
 3890TIP3    H133085   2.327   5.479  11.669 -1.9332 -0.7220 -0.7702
 3890TIP3    H233086   2.432   5.381  11.719 -0.5998  1.5702  1.1435
 3891TIP3   OH233087   0.882   3.237   2.574  0.2958 -0.0237 -0.2788
 3891TIP3    H133088   0.790   3.217   2.555 -0.3202  0.6228  1.7378
 3891TIP3    H233089   0.930   3.161   2.543 -0.9355 -0.5046 -1.1225
 3892TIP3   OH233090   5.846   1.994   0.463  0.6103 -0.1095  0.1807
 3892TIP3    H133091   5.818   2.008   0.553 -0.5073  0.1807 -0.1954
 3892TIP3    H233092   5.772   1.949   0.422  2.5404 -3.8730  0.3612
 3893TIP3   OH233093   1.319   5.690  12.718  0.2120 -0.9373 -0.5297
 3893TIP3    H133094   1.274   5.771  12.697  0.2201 -1.0240 -0.8935
 3893TIP3    H233095   1.373   5.711  12.794 -0.6730 -0.9173  0.1048
 3894TIP3   OH233096   0.938   4.737   5.839 -0.2668  0.2697  0.0192
 3894TIP3    H133097   1.031   4.727   5.823 -0.2927  1.8816 -1.4458
 3894TIP3    H233098   0.927   4.830   5.857 -1.4542 -0.0899  1.3022
 3895TIP3   OH233099   0.878   5.142   3.177 -0.1989  0.4033  0.0547
 3895TIP3    H133100   0.906   5.231   3.156  0.9841 -0.4279 -2.2553
 3895TIP3    H233101   0.959   5.096   3.197 -0.5592 -0.6396 -0.8194
 3896TIP3   OH233102   0.172   6.264  12.790  0.0723  0.3325  0.6225
 3896TIP3    H133103   0.126   6.259  12.874  0.7997  0.1997  1.0130
 3896TIP3    H233104   0.167   6.175  12.754  3.2324 -0.7186  2.3980
 3897TIP3   OH233105   5.506   0.078  17.058 -0.0557 -0.1559  0.1340
 3897TIP3    H133106   5.425   0.045  17.019 -1.0060  0.2058  1.7318
 3897TIP3    H233107   5.529   0.153  17.003  0.2508 -1.3500 -1.4453
 3898TIP3   OH233108   1.003   0.725   0.854 -0.1335 -0.2961  0.1796
 3898TIP3    H133109   0.947   0.647   0.855 -2.7048  1.4217  0.6472
 3898TIP3    H233110   1.071   0.707   0.918 -0.9600 -1.9596  0.6401
 3899TIP3   OH233111   3.836   4.726  13.777 -0.2659 -1.0639  0.6391
 3899TIP3    H133112   3.768   4.768  13.724  1.0191  1.1225  0.6247
 3899TIP3    H233113   3.867   4.654  13.723 -2.6131 -2.2404  0.7027
 3900TIP3   OH233114   1.121   4.205  12.057  0.4063  0.1635  0.1214
 3900TIP3    H133115   1.213   4.229  12.053  0.2364  0.7769 -0.2290
 3900TIP3    H233116   1.111   4.162  12.142  0.8213  0.9472  0.5771
 3901TIP3   OH233117   6.177   3.902  11.064  0.6488 -0.5148  0.3772
 3901TIP3    H133118   6.222   3.953  10.998 -1.3474 -0.0675 -0.7221
 3901TIP3    H233119   6.221   3.925  11.146  2.4360 -0.2129 -0.6140
 3902TIP3   OH233120   4.083   5.610  12.785  0.2784  0.6540 -0.5825
 3902TIP3    H133121   4.046   5.545  12.845 -4.3837  2.5682 -1.0164
 3902TIP3    H233122   4.057   5.580  12.698  2.3762  0.6968 -1.2948
 3903TIP3   OH233123   1.326   4.158   3.604  0.6432  0.5284  0.2022
 3903TIP3    H133124   1.364   4.216   3.539  2.0260 -0.3977  0.1440
 3903TIP3    H233125   1.353   4.195   3.688 -0.2786  1.1415  0.2487
 3904TIP3   OH233126   3.536   3.143   5.643 -0.4701 -0.0585 -0.1768
 3904TIP3    H133127   3.541   3.232   5.608  1.4447 -0.0528  0.0060
 3904TIP3    H233128   3.576   3.149   5.730 -0.2999 -1.1074 -0.1751
 3905TIP3   OH233129   4.846   0.278  14.278  0.6179 -0.0936  0.2650
 3905TIP3    H133130   4.861   0.333  14.356  1.1334 -2.1699  1.7137
 3905TIP3    H233131   4.934   0.263  14.243  0.4631  0.1114 -0.2123
 3906TIP3   OH233132   3.801   5.318   1.762 -0.2919 -0.3266  0.0434
 3906TIP3    H133133   3.862   5.292   1.693  1.6896  0.7373  1.2714
 3906TIP3    H233134   3.758   5.237   1.788  1.1826 -1.2938 -0.3922
 3907TIP3   OH233135   4.429   2.075  13.900 -0.0221  0.0461  0.0214
 3907TIP3    H133136   4.421   2.096  13.807 -1.0547 -1.3491 -0.2344
 3907TIP3    H233137   4.508   2.121  13.928  1.4557 -1.1076 -2.0213
 3908TIP3   OH233138   0.239   1.193   4.765 -0.4789  0.3607 -0.0570
 3908TIP3    H133139   0.287   1.222   4.687  0.1974 -2.2400 -0.7390
 3908TIP3    H233140   0.147   1.197   4.739 -0.2170 -2.2803 -1.8461
 3909TIP3   OH233141   0.959   3.127   1.639  0.2287  0.3414  0.1801
 3909TIP3    H133142   0.864   3.140   1.633  0.3004  1.0330  0.3808
 3909TIP3    H233143   0.970   3.033   1.653 -0.4063  0.1974 -0.2476
 3910TIP3   OH233144   3.707   6.349   3.055 -0.2421  0.2339  0.3859
 3910TIP3    H133145   3.657   6.393   3.123  1.5699  3.1285  0.0136
 3910TIP3    H233146   3.655   6.360   2.976 -2.2474 -2.9508  1.0682
 3911TIP3   OH233147   5.058   3.073   2.490 -0.7162  0.1649  0.0789
 3911TIP3    H133148   5.027   3.140   2.551 -0.4001  0.1633  0.2430
 3911TIP3    H233149   5.092   3.123   2.416 -1.3053  0.1621 -0.2015
 3912TIP3   OH233150   2.625   6.145  15.998 -0.4068 -0.1535  0.0653
 3912TIP3    H133151   2.580   6.229  15.996 -0.5033 -0.1278  1.8093
 3912TIP3    H233152   2.555   6.080  16.005 -0.2954 -0.3107 -0.2692
 3913TIP3   OH233153   5.160   2.369  13.872  0.0191  0.2252  0.0977
 3913TIP3    H133154   5.101   2.354  13.798  1.0530 -1.0351 -0.5049
 3913TIP3    H233155   5.152   2.290  13.926  0.6652  0.3252  0.3480
 3914TIP3   OH233156   5.807   0.408  11.307 -0.2696  0.3027  1.2505
 3914TIP3    H133157   5.881   0.437  11.253 -1.0142  2.3643  1.2484
 3914TIP3    H233158   5.798   0.315  11.287  0.7917  0.5482 -0.5797
 3915TIP3   OH233159   6.592   2.887  11.838 -0.0186 -0.5956 -0.4860
 3915TIP3    H133160   6.595   2.940  11.918  1.9517 -1.3056 -0.0395
 3915TIP3    H233161   6.579   2.950  11.768  1.8225  0.4983  0.0809
 3916TIP3   OH233162   3.171   1.047   5.299  0.1129  0.1319 -0.4549
 3916TIP3    H133163   3.251   1.098   5.289 -1.1484  2.6887  1.2978
 3916TIP3    H233164   3.109   1.107   5.341 -2.1227 -2.3201  0.0560
 3917TIP3   OH233165   0.029   6.639  13.170  0.2183  0.4336  0.1924
 3917TIP3    H133166   0.109   6.654  13.221  0.3918  1.1295 -0.2751
 3917TIP3    H233167   0.005   6.548  13.189  1.6816 -0.1067 -0.4428
 3918TIP3   OH233168   2.889   5.250   3.943 -0.2689 -0.0835 -0.0887
 3918TIP3    H133169   2.949   5.214   3.877 -0.6694  0.8916 -1.0131
 3918TIP3    H233170   2.936   5.324   3.981 -0.4811  0.0532 -0.0907
 3919TIP3   OH233171   2.703   3.327   0.615  0.3146 -0.0235  0.1142
 3919TIP3    H133172   2.757   3.265   0.566  0.4136 -1.1390  1.5539
 3919TIP3    H233173   2.652   3.373   0.548  1.3071 -0.6293 -1.0993
 3920TIP3   OH233174   2.910   5.134  16.399 -0.1846  0.3688 -0.0571
 3920TIP3    H133175   2.855   5.155  16.474 -1.8636  0.5069 -1.2818
 3920TIP3    H233176   2.976   5.204  16.398  0.2999 -0.0085  1.6420
 3921TIP3   OH233177   5.339   1.814  15.929  0.5689 -0.4931  0.2362
 3921TIP3    H133178   5.377   1.872  15.994 -0.6224 -0.7870  1.2435
 3921TIP3    H233179   5.357   1.855  15.845  0.3122  0.9978  0.8889
 3922TIP3   OH233180   3.980   3.920  16.453 -0.0594  0.4610  0.5796
 3922TIP3    H133181   3.989   4.012  16.426  0.2605  0.3379  0.2642
 3922TIP3    H233182   3.894   3.916  16.496 -0.5819  0.6684 -0.4026
 3923TIP3   OH233183   2.302   2.483  11.475  0.1088  0.3485  0.0295
 3923TIP3    H133184   2.297   2.445  11.387 -0.9009  1.5786 -0.4731
 3923TIP3    H233185   2.305   2.577  11.460  2.5175  0.5346  1.2471
 3924TIP3   OH233186   1.566   4.657  15.257  0.4092 -0.3055 -0.3771
 3924TIP3    H133187   1.509   4.600  15.207 -0.4460  0.2355 -0.0380
 3924TIP3    H233188   1.520   4.741  15.260  1.3272  0.2139 -0.2930
 3925TIP3   OH233189   2.988   0.155   4.463 -0.0240 -0.3434 -0.0927
 3925TIP3    H133190   3.061   0.215   4.447  0.9589 -1.1771  1.0996
 3925TIP3    H233191   2.996   0.089   4.395  0.2551 -0.3668 -0.0368
 3926TIP3   OH233192   0.286   3.628  16.606 -0.3941  0.0065  0.4494
 3926TIP3    H133193   0.333   3.599  16.684 -0.2188  1.7647  1.0464
 3926TIP3    H233194   0.207   3.670  16.641 -0.0776  1.2502 -0.2733
 3927TIP3   OH233195   0.086   6.492  12.003  0.5942  0.5056 -0.0921
 3927TIP3    H133196   0.142   6.545  12.059  0.3132  0.3038  0.3873
 3927TIP3    H233197   0.107   6.521  11.914  0.5651  1.3032  0.1501
 3928TIP3   OH233198   4.776   6.111   0.087  0.2584 -0.0493  0.6222
 3928TIP3    H133199   4.778   6.205   0.109  1.3307  0.1330 -0.1300
 3928TIP3    H233200   4.859   6.077   0.121  0.5487 -0.3971 -0.3847
 3929TIP3   OH233201   5.819   4.194   4.499 -0.3929  0.3436  0.0107
 3929TIP3    H133202   5.869   4.276   4.499  1.2548 -0.6131  0.5409
 3929TIP3    H233203   5.883   4.127   4.475 -2.2294 -0.5560 -2.9786
 3930TIP3   OH233204   0.618   6.330  15.133 -0.1766 -0.0535 -0.3188
 3930TIP3    H133205   0.580   6.403  15.084  0.0136  0.2366 -0.0353
 3930TIP3    H233206   0.555   6.313  15.203  0.3907  0.6863  0.3899
 3931TIP3   OH233207   3.798   1.551  14.827 -0.2065  0.4891  0.4163
 3931TIP3    H133208   3.860   1.620  14.850 -0.9646  1.5075 -0.4826
 3931TIP3    H233209   3.790   1.557  14.732 -0.1974 -0.9317  0.3140
 3932TIP3   OH233210   3.574   5.764  13.789  0.6762 -0.4643  0.0989
 3932TIP3    H133211   3.642   5.822  13.823  1.4090 -0.1093 -1.8729
 3932TIP3    H233212   3.609   5.731  13.707 -1.3675 -0.6030 -0.7707
 3933TIP3   OH233213   3.258   6.595   3.181 -0.0181 -0.2542 -0.0256
 3933TIP3    H133214   3.300   6.651   3.116  0.7169  1.4795  1.8439
 3933TIP3    H233215   3.169   6.630   3.189 -0.2744 -0.7937 -0.4362
 3934TIP3   OH233216   6.544   4.188  16.589  0.4071  0.4689 -0.0140
 3934TIP3    H133217   6.495   4.208  16.509  0.2417  0.3943  0.0688
 3934TIP3    H233218   6.480   4.145  16.646 -0.0312  2.2848  0.9295
 3935TIP3   OH233219   3.547   5.286   3.018  0.0578  0.3714 -0.9151
 3935TIP3    H133220   3.487   5.356   3.044 -0.3729 -0.2796 -0.0974
 3935TIP3    H233221   3.613   5.330   2.965  0.7908  1.7449  1.0145
 3936TIP3   OH233222   3.169   6.728  14.702  0.4912  0.6696  0.3502
 3936TIP3    H133223   3.139   6.641  14.674  0.3841  0.7453  0.2285
 3936TIP3    H233224   3.265   6.723  14.696  0.5136  0.3971  0.8339
 3937TIP3   OH233225   5.137   4.684   0.346  0.0526 -0.5054  0.1110
 3937TIP3    H133226   5.091   4.660   0.426  1.5179 -1.3617  0.7507
 3937TIP3    H233227   5.185   4.604   0.321  0.0882 -0.0812 -1.3013
 3938TIP3   OH233228   5.072   2.814   4.058  0.1557 -0.1144 -0.1012
 3938TIP3    H133229   5.028   2.881   4.006  0.7971 -0.7672 -1.5592
 3938TIP3    H233230   5.151   2.793   4.007  1.4033 -0.0011  1.7107
 3939TIP3   OH233231   0.841   2.774   5.933  0.2188  0.0291  0.0412
 3939TIP3    H133232   0.762   2.828   5.941  0.1808 -0.0889  0.5126
 3939TIP3    H233233   0.821   2.713   5.861 -0.1387 -0.0233  0.1804
 3940TIP3   OH233234   3.223   5.692  11.953  0.1468  0.5302  0.2714
 3940TIP3    H133235   3.191   5.604  11.972 -1.9108  1.4699  1.5126
 3940TIP3    H233236   3.179   5.748  12.017  3.3234  2.1923  1.1880
 3941TIP3   OH233237   6.656   3.244   1.702  0.2219  0.1978  0.2298
 3941TIP3    H133238   6.708   3.289   1.636 -0.8708 -0.0277 -0.8249
 3941TIP3    H233239   6.597   3.311   1.736 -0.8028 -0.1834 -0.7147
 3942TIP3   OH233240   2.261   4.289   3.396 -0.8791  0.1423  0.4035
 3942TIP3    H133241   2.234   4.357   3.334  2.1487  2.5010  1.4317
 3942TIP3    H233242   2.355   4.277   3.379 -1.1088 -3.1989  0.9052
 3943TIP3   OH233243   4.876   3.941  16.068  0.5970  0.1173  0.0281
 3943TIP3    H133244   4.843   4.028  16.092  0.2364  0.1829 -0.6936
 3943TIP3    H233245   4.811   3.880  16.105  1.3935  0.0844  1.4567
 3944TIP3   OH233246   3.307   5.169  12.683 -0.4045 -0.7304  0.8047
 3944TIP3    H133247   3.232   5.184  12.740  0.0176  1.7729  0.8324
 3944TIP3    H233248   3.379   5.146  12.742  0.3734  3.1415  1.6333
 3945TIP3   OH233249   4.778   1.666   2.504 -0.1396 -0.2393  0.5208
 3945TIP3    H133250   4.744   1.754   2.518  1.6684  0.5845 -0.0027
 3945TIP3    H233251   4.781   1.656   2.409  0.3573 -0.5751  0.5679
 3946TIP3   OH233252   0.417   5.191  13.446 -0.6998  1.0157 -0.1277
 3946TIP3    H133253   0.361   5.116  13.427 -0.9856  1.0011  0.7347
 3946TIP3    H233254   0.506   5.156  13.440 -0.8236  0.6896 -0.0985
 3947TIP3   OH233255   5.888   3.075   1.617 -0.6545  0.2077  0.4641
 3947TIP3    H133256   5.921   3.091   1.706  1.0789  3.3676 -0.5722
 3947TIP3    H233257   5.965   3.047   1.568 -0.7632  1.8080 -0.7090
 3948TIP3   OH233258   6.630   5.622  13.058  0.3598  0.3315 -0.1854
 3948TIP3    H133259   6.695   5.600  12.991  0.9951  2.4353 -0.3407
 3948TIP3    H233260   6.594   5.538  13.085  1.7117 -0.7465 -1.5429
 3949TIP3   OH233261   3.418   1.101  13.669  0.1573  0.4662 -0.1937
 3949TIP3    H133262   3.412   1.180  13.723  2.9090  1.5744 -1.2784
 3949TIP3    H233263   3.446   1.032  13.729 -1.2986  0.5252  0.5831
 3950TIP3   OH233264   2.969   0.182  15.935 -0.1902 -0.2815  0.4528
 3950TIP3    H133265   2.913   0.140  16.001  2.3077 -2.8243  1.1024
 3950TIP3    H233266   3.018   0.247  15.985  0.6945 -1.2412  0.8655
 3951TIP3   OH233267   1.844   3.385   3.832 -0.5851 -0.1283  0.1433
 3951TIP3    H133268   1.822   3.350   3.918 -1.3679  0.5029  0.2064
 3951TIP3    H233269   1.808   3.322   3.770 -1.7121  0.3821  0.2597
 3952TIP3   OH233270   4.255   1.153   2.451 -0.1076 -0.6916 -0.0168
 3952TIP3    H133271   4.347   1.155   2.426 -0.2154 -0.8315 -0.4411
 3952TIP3    H233272   4.238   1.239   2.489  0.5549 -1.1523  1.3922
 3953TIP3   OH233273   5.331   4.551  13.642 -0.0369  0.1511 -0.6050
 3953TIP3    H133274   5.375   4.588  13.719  0.6179 -0.4440 -0.6759
 3953TIP3    H233275   5.290   4.471  13.674 -0.5072  0.3582 -0.6874
 3954TIP3   OH233276   2.078   6.004   0.220  0.8632 -0.1339 -0.0787
 3954TIP3    H133277   2.040   5.931   0.172 -1.5880  1.2961 -0.5072
 3954TIP3    H233278   2.169   6.007   0.192  1.0787 -3.0400  0.0584
 3955TIP3   OH233279   3.679   2.627  11.139  0.1497  0.0589  0.3263
 3955TIP3    H133280   3.592   2.586  11.137  0.6738 -1.0799 -0.2333
 3955TIP3    H233281   3.695   2.656  11.049  0.7645 -0.6803  0.1862
 3956TIP3   OH233282   4.431   4.837  15.646 -0.0773  0.9191 -0.0372
 3956TIP3    H133283   4.511   4.885  15.627  1.0542 -0.6886  0.4858
 3956TIP3    H233284   4.417   4.783  15.568  0.4707 -0.2676  0.6752
 3957TIP3   OH233285   5.653   3.170   5.392  0.4062  0.5880  0.5191
 3957TIP3    H133286   5.601   3.250   5.402  0.1341  0.3776  0.8432
 3957TIP3    H233287   5.592   3.100   5.416  0.1058  0.1353 -1.4200
 3958TIP3   OH233288   0.518   2.247   4.528  0.3542 -0.1075 -0.0094
 3958TIP3    H133289   0.524   2.340   4.549 -0.3647  0.2735 -1.3640
 3958TIP3    H233290   0.427   2.224   4.548  0.2236 -0.2393 -0.7371
 3959TIP3   OH233291   6.257   2.415  16.756  0.0379  0.3372 -0.2174
 3959TIP3    H133292   6.170   2.446  16.728  0.2685 -0.0403 -1.3970
 3959TIP3    H233293   6.238   2.339  16.811 -0.4388  1.3043  1.0159
 3960TIP3   OH233294   1.816   1.168  16.832  0.0924  0.4153 -0.3497
 3960TIP3    H133295   1.846   1.178  16.922 -1.4832  2.2006  0.0341
 3960TIP3    H233296   1.862   1.237  16.784  1.5117 -0.9978 -1.1450
 3961TIP3   OH233297   3.434   5.667  13.293  0.2686  0.1590 -0.4788
 3961TIP3    H133298   3.352   5.667  13.244 -2.0254  0.1680  3.0348
 3961TIP3    H233299   3.411   5.703  13.379  3.2626 -2.6212  1.7461
 3962TIP3   OH233300   2.825   4.852  16.019  0.3099  0.3403  0.4621
 3962TIP3    H133301   2.855   4.940  15.997  1.9354 -0.0024  1.1832
 3962TIP3    H233302   2.876   4.827  16.096  1.4042 -2.0023 -0.9158
 3963TIP3   OH233303   2.647   6.763  16.341  0.3370  0.5702 -1.1366
 3963TIP3    H133304   2.687   6.694  16.393 -0.4406 -0.0975 -1.3974
 3963TIP3    H233305   2.608   6.822  16.406  0.4422  0.4109 -0.9261
 3964TIP3   OH233306   3.409   2.884   5.822 -0.0277 -0.2136 -0.0439
 3964TIP3    H133307   3.412   2.791   5.802 -1.6996 -0.4486  0.5856
 3964TIP3    H233308   3.340   2.918   5.765  0.2677  0.5586  0.0433
 3965TIP3   OH233309   4.322   4.083  12.883 -0.0683  0.0047  0.3284
 3965TIP3    H133310   4.245   4.073  12.826 -0.3422 -1.2124  0.8897
 3965TIP3    H233311   4.345   3.994  12.909  2.6397  0.1438 -1.2126
 3966TIP3   OH233312   3.820   0.176  13.813  0.5296 -0.4585  0.3166
 3966TIP3    H133313   3.909   0.145  13.796  2.4834  3.0350  2.7368
 3966TIP3    H233314   3.779   0.104  13.861  3.0733 -1.1815  1.6148
 3967TIP3   OH233315   4.680   0.464   0.814 -0.0606  0.7288  0.0683
 3967TIP3    H133316   4.679   0.550   0.772 -0.1662 -0.0956 -1.6947
 3967TIP3    H233317   4.726   0.478   0.897  0.3725  2.3736 -0.4210
 3968TIP3   OH233318   2.076   1.869  12.441 -0.1540 -0.1496 -0.1626
 3968TIP3    H133319   2.038   1.948  12.402 -0.9773 -1.3780 -1.9961
 3968TIP3    H233320   2.002   1.824  12.481 -0.3377 -1.5038 -1.8966
 3969TIP3   OH233321   4.392   1.231  12.282 -0.1985  0.1727  0.0645
 3969TIP3    H133322   4.313   1.210  12.231  0.3185 -0.0700 -0.6405
 3969TIP3    H233323   4.413   1.321  12.257  0.7049 -0.3213 -1.0285
 3970TIP3   OH233324   4.571   6.521  11.491 -0.5164 -0.3488  1.0014
 3970TIP3    H133325   4.554   6.543  11.583 -3.9698 -1.4757  0.7719
 3970TIP3    H233326   4.531   6.435  11.479 -0.2670 -0.1865 -1.6032
 3971TIP3   OH233327   5.942   2.620   2.727 -0.1224 -0.2317 -0.0025
 3971TIP3    H133328   5.854   2.583   2.737 -0.0113 -0.7288 -0.7592
 3971TIP3    H233329   5.949   2.641   2.634  0.2884  0.5238  0.1882
 3972TIP3   OH233330   4.234   4.678   1.558  0.2981  0.0149 -0.1307
 3972TIP3    H133331   4.186   4.625   1.621  0.4397  1.1749  0.9968
 3972TIP3    H233332   4.320   4.690   1.598  1.0357 -0.7557 -1.4163
 3973TIP3   OH233333   5.016   3.880  13.084  0.0519 -0.0118  0.2994
 3973TIP3    H133334   4.975   3.945  13.026 -0.9968 -1.9735 -1.2676
 3973TIP3    H233335   5.101   3.863  13.045 -0.6815 -1.3835 -0.7902
 3974TIP3   OH233336   5.209   5.189  15.673 -0.0009 -0.0298  0.0802
 3974TIP3    H133337   5.186   5.168  15.763 -0.2552  0.9159  0.2484
 3974TIP3    H233338   5.133   5.162  15.622 -0.2119  0.2312  0.2550
 3975TIP3   OH233339   2.842   0.531  12.568  0.3538 -0.0153 -0.1859
 3975TIP3    H133340   2.914   0.540  12.506  0.5019  0.3432  0.0301
 3975TIP3    H233341   2.856   0.603  12.630 -0.5183  0.4137 -0.4729
 3976TIP3   OH233342   0.448   5.135  15.724 -0.2254  0.5781  0.2990
 3976TIP3    H133343   0.525   5.116  15.779  1.0783 -0.5395 -1.7809
 3976TIP3    H233344   0.461   5.225  15.696 -0.6670  1.0062  1.3981
 3977TIP3   OH233345   0.316   5.585  17.112 -0.4594 -0.4951  0.0337
 3977TIP3    H133346   0.377   5.658  17.097  0.1584 -0.7561  1.0943
 3977TIP3    H233347   0.299   5.549  17.025  0.7061 -0.2402 -0.3243
 3978TIP3   OH233348   0.015   6.534   0.184  0.8500 -0.3824 -0.4452
 3978TIP3    H133349  -0.008   6.619   0.222  2.5788  0.0373 -0.2561
 3978TIP3    H233350  -0.037   6.471   0.234  0.9118  0.4125  0.6584
 3979TIP3   OH233351   2.242   6.671   5.754 -0.2516 -0.1651  0.4831
 3979TIP3    H133352   2.311   6.699   5.815  0.5472 -1.2584  0.1137
 3979TIP3    H233353   2.283   6.677   5.668 -0.4399 -1.3208  0.2993
 3980TIP3   OH233354   5.100   0.041  15.746  0.3750 -0.7967  0.0490
 3980TIP3    H133355   5.179   0.094  15.732 -0.0658 -0.2873 -0.5986
 3980TIP3    H233356   5.109  -0.032  15.684 -0.9570  0.7604 -2.1199
 3981TIP3   OH233357   4.011   2.302   5.132  0.2136  0.4738  0.4368
 3981TIP3    H133358   3.945   2.358   5.173 -1.3470 -1.8580  1.2817
 3981TIP3    H233359   4.076   2.288   5.201 -0.1680  0.0684  0.7206
 3982TIP3   OH233360   2.785   5.287  14.641 -0.4741 -0.0601 -0.2903
 3982TIP3    H133361   2.739   5.239  14.710 -1.6801  0.2293 -0.8527
 3982TIP3    H233362   2.739   5.371  14.637 -0.0060  0.1708 -1.0076
 3983TIP3   OH233363   6.205   5.092   3.693 -0.1119 -0.3198  0.2493
 3983TIP3    H133364   6.220   5.026   3.625  1.0427 -0.0091  0.1762
 3983TIP3    H233365   6.285   5.089   3.746 -0.1035  0.9194  0.3196
 3984TIP3   OH233366   6.585   0.041   4.898 -0.6631 -0.1820 -0.8224
 3984TIP3    H133367   6.670   0.073   4.926 -0.9661  0.8287 -1.0188
 3984TIP3    H233368   6.604  -0.041   4.852 -0.0147 -1.0519  0.9108
 3985TIP3   OH233369   0.117   1.921   0.896  0.5386  0.4351 -0.4771
 3985TIP3    H133370   0.058   1.877   0.835 -0.2660  0.1841  0.4430
 3985TIP3    H233371   0.201   1.924   0.851  0.2486 -0.7682 -1.1444
 3986TIP3   OH233372   1.977   0.702   0.543  0.5220  0.2223  0.5466
 3986TIP3    H133373   2.007   0.698   0.452 -0.5406  2.4821  0.0140
 3986TIP3    H233374   1.891   0.745   0.537  0.1075 -0.2562  2.5580
 3987TIP3   OH233375   0.127   4.723   3.236 -0.1039  0.0659  0.1717
 3987TIP3    H133376   0.182   4.651   3.267  0.0992 -0.5160 -1.4622
 3987TIP3    H233377   0.152   4.797   3.291  1.3437 -0.5312  0.3608
 3988TIP3   OH233378   2.815   1.541   5.127  0.1023 -0.4484  0.6279
 3988TIP3    H133379   2.759   1.603   5.172 -2.5500 -1.1962 -1.3712
 3988TIP3    H233380   2.848   1.589   5.051 -2.9162 -1.5773 -1.5969
 3989TIP3   OH233381   4.314   4.302   1.765 -0.4421  0.2630  0.3349
 3989TIP3    H133382   4.257   4.378   1.777 -1.1743 -0.2583  0.2217
 3989TIP3    H233383   4.400   4.340   1.748 -0.8398  1.0705  0.0427
 3990TIP3   OH233384   4.347   5.785   2.834  0.4704  0.1879  0.3723
 3990TIP3    H133385   4.278   5.835   2.879  0.2833  1.2611 -1.0567
 3990TIP3    H233386   4.417   5.848   2.820  1.1052 -0.5008  0.3868
 3991TIP3   OH233387   5.438   4.652  13.877  0.5814 -0.2504  0.2101
 3991TIP3    H133388   5.429   4.745  13.896 -1.4269 -0.8685  2.8940
 3991TIP3    H233389   5.470   4.613  13.958  1.7167 -1.9078 -0.9593
 3992TIP3   OH233390   3.612   1.199  16.231  0.2225  0.0983  0.4261
 3992TIP3    H133391   3.621   1.138  16.304  2.4953  0.9350  0.9188
 3992TIP3    H233392   3.637   1.149  16.154  1.1496  0.1308  0.6990
 3993TIP3   OH233393   5.788   6.605   0.005 -0.1129  0.1387  0.2813
 3993TIP3    H133394   5.732   6.543  -0.043 -1.7796  0.8468  1.2462
 3993TIP3    H233395   5.815   6.669  -0.061 -2.5310  1.2138  0.2569
 3994TIP3   OH233396   4.383   2.103  14.630  0.4735  0.1078 -0.6154
 3994TIP3    H133397   4.290   2.102  14.650  0.3349 -0.4959 -1.2624
 3994TIP3    H233398   4.415   2.018  14.660  0.7949  0.2590 -0.5217
 3995TIP3   OH233399   5.917   1.351  12.205  0.0218 -0.6039  0.5501
 3995TIP3    H133400   5.975   1.277  12.219  1.4119  0.6179  1.5127
 3995TIP3    H233401   5.835   1.312  12.174  0.7362 -2.5147  0.9578
 3996TIP3   OH233402   0.961   2.574   1.506 -0.0854 -0.0528  0.3377
 3996TIP3    H133403   0.871   2.558   1.479  0.1145  0.5222 -0.7403
 3996TIP3    H233404   0.956   2.592   1.600 -1.3553  1.9956 -0.0707
 3997TIP3   OH233405   1.475   3.815   3.295 -0.9428 -0.0167 -0.0559
 3997TIP3    H133406   1.444   3.839   3.208 -0.7372 -1.6435 -0.6208
 3997TIP3    H233407   1.569   3.800   3.284 -1.0500 -0.9941  0.2395
 3998TIP3   OH233408   4.849   2.836   1.894  0.1022 -0.0787  0.8166
 3998TIP3    H133409   4.903   2.759   1.878  2.4157  1.5435  0.3108
 3998TIP3    H233410   4.840   2.840   1.989  1.2024 -0.1931  0.9342
 3999TIP3   OH233411   0.010   5.239   2.175 -0.3066  0.1159  0.0799
 3999TIP3    H133412   0.035   5.285   2.095 -1.8029 -0.5791 -0.8116
 3999TIP3    H233413  -0.031   5.305   2.229 -1.9468 -0.0011 -0.9687
 4000TIP3   OH233414   4.766   4.747   2.410  0.0743 -0.0193  0.3450
 4000TIP3    H133415   4.716   4.766   2.331 -1.5214 -1.7231  0.8796
 4000TIP3    H233416   4.780   4.833   2.451 -0.1702  0.7438 -1.1226
 4001TIP3   OH233417   2.607   1.169   0.421 -0.1063  0.7243  0.0271
 4001TIP3    H133418   2.527   1.185   0.370 -0.1501  0.4845  0.0191
 4001TIP3    H233419   2.627   1.077   0.406  0.0976  0.7503  0.1378
 4002TIP3   OH233420   4.575   3.002   0.509 -0.3057  0.2173  0.5091
 4002TIP3    H133421   4.609   2.965   0.428 -0.3923 -1.3180  1.1438
 4002TIP3    H233422   4.641   3.065   0.536 -0.0967  0.4737 -0.5545
 4003TIP3   OH233423   5.511   3.683   5.199  0.3039  0.6844 -0.4300
 4003TIP3    H133424   5.501   3.722   5.112  2.1183  1.9066 -0.1427
 4003TIP3    H233425   5.463   3.601   5.194  0.5521  0.6168 -2.6723
 4004TIP3   OH233426   4.495   0.050  14.662  0.4344  0.4076 -0.0616
 4004TIP3    H133427   4.561   0.065  14.594  1.0538  0.3423  0.5141
 4004TIP3    H233428   4.523  -0.031  14.705  0.3589  0.7353  0.6169
 4005TIP3   OH233429   4.887   1.890   2.966  0.0928  0.2145 -0.4001
 4005TIP3    H133430   4.866   1.820   2.905 -0.0804  1.1324 -1.4343
 4005TIP3    H233431   4.838   1.868   3.046 -1.7152  0.2723 -1.4330
 4006TIP3   OH233432   3.200   1.142  14.575 -0.1662 -0.4634 -0.2636
 4006TIP3    H133433   3.105   1.154  14.579 -0.2065 -1.0441  2.4740
 4006TIP3    H233434   3.216   1.063  14.627  1.6736 -1.5948 -2.3868
 4007TIP3   OH233435   0.562   4.868   2.109  0.0759  0.6530 -0.0139
 4007TIP3    H133436   0.502   4.824   2.170 -1.2830  1.8460 -0.4407
 4007TIP3    H233437   0.613   4.928   2.164  0.1265  0.4287  0.1888
 4008TIP3   OH233438   4.549   1.107  16.207  0.6840  0.2855  0.0234
 4008TIP3    H133439   4.500   1.127  16.127  0.0235 -0.0094  0.3450
 4008TIP3    H233440   4.602   1.185  16.223  1.2295  0.1371 -0.9921
 4009TIP3   OH233441   2.959   2.654  11.472  0.2329  0.0191 -0.1539
 4009TIP3    H133442   2.891   2.675  11.536 -2.1766 -2.3437 -1.7306
 4009TIP3    H233443   3.040   2.652  11.523 -1.1610  0.7663  2.2693
 4010TIP3   OH233444   1.043   2.340  14.067  0.1025 -0.0560  1.2139
 4010TIP3    H133445   1.040   2.245  14.080 -1.1841 -0.6700 -2.4216
 4010TIP3    H233446   0.952   2.365  14.054  0.6051  1.2656  0.0399
 4011TIP3   OH233447   4.837   2.147   6.345 -0.9665  0.1453 -0.5819
 4011TIP3    H133448   4.871   2.235   6.363 -0.1647 -0.5875  1.9325
 4011TIP3    H233449   4.751   2.161   6.306 -0.1572  2.0284 -1.8066
 4012TIP3   OH233450   0.824   4.944   5.299 -0.1222  0.0496  0.2263
 4012TIP3    H133451   0.824   4.996   5.219 -0.6244 -0.6908 -0.2666
 4012TIP3    H233452   0.769   4.869   5.279 -2.0580  0.8984  1.9602
 4013TIP3   OH233453   3.001   5.639  16.096 -0.4207 -0.4926 -0.7267
 4013TIP3    H133454   2.989   5.726  16.135 -1.7537 -0.8789 -0.2390
 4013TIP3    H233455   2.916   5.617  16.059  0.2086 -1.1354 -1.8489
 4014TIP3   OH233456   4.942   2.532   2.405  0.5268 -0.7372  0.2682
 4014TIP3    H133457   5.010   2.520   2.471  0.2560  0.9872  0.9332
 4014TIP3    H233458   4.864   2.490   2.442  0.6785 -0.8072  0.5074
 4015TIP3   OH233459   6.392   6.219  14.791 -0.1599 -0.4072  0.5181
 4015TIP3    H133460   6.313   6.175  14.761 -1.0571  0.2714  1.7826
 4015TIP3    H233461   6.407   6.185  14.880  0.0263  0.6573  0.9088
 4016TIP3   OH233462   2.011   3.138   1.770 -0.6598  0.0333 -0.1857
 4016TIP3    H133463   2.047   3.145   1.681 -0.6098 -0.0932 -0.1754
 4016TIP3    H233464   1.999   3.045   1.784  0.9268 -0.0975  0.5735
 4017TIP3   OH233465   6.358   6.740   3.790  0.0411 -0.4126  0.5635
 4017TIP3    H133466   6.437   6.793   3.800  0.1781  0.1342 -2.5347
 4017TIP3    H233467   6.289   6.804   3.770 -0.5451 -1.1274  0.2403
 4018TIP3   OH233468   2.856   5.083  14.384  0.3359  0.1531  0.7908
 4018TIP3    H133469   2.847   5.122  14.470  1.2533  1.0393  0.5031
 4018TIP3    H233470   2.832   5.153  14.323  1.0557 -0.0096  0.3014
 4019TIP3   OH233471   5.519   2.065  13.416 -0.3869  0.9018  0.2092
 4019TIP3    H133472   5.567   2.108  13.345  0.4882  1.7710  1.2931
 4019TIP3    H233473   5.558   1.977  13.422 -0.4057  0.8544 -0.3061
 4020TIP3   OH233474   4.824   3.272  12.126 -0.3609 -0.6263  0.0292
 4020TIP3    H133475   4.775   3.286  12.208 -0.6695  0.8851 -0.3770
 4020TIP3    H233476   4.912   3.250  12.154 -0.6449 -0.8649  0.7684
 4021TIP3   OH233477   1.868   1.083  12.882 -0.1720  0.3995  0.0201
 4021TIP3    H133478   1.783   1.054  12.852  0.5059 -2.5854  0.7084
 4021TIP3    H233479   1.859   1.093  12.977  0.6727 -1.8956  0.3962
 4022TIP3   OH233480   1.740   3.822   0.830 -0.2223 -0.2668  0.7158
 4022TIP3    H133481   1.661   3.805   0.778 -1.6424 -0.7790  2.8840
 4022TIP3    H233482   1.707   3.840   0.918  2.1254 -1.5666  1.9643
 4023TIP3   OH233483   0.346   1.566   5.925  0.4569 -0.7514 -0.5027
 4023TIP3    H133484   0.268   1.512   5.941 -1.2938  1.7435  0.0466
 4023TIP3    H233485   0.328   1.610   5.842 -0.3630  2.2765  1.1123
 4024TIP3   OH233486   0.832   6.745  10.685  0.2826  0.1912  0.2651
 4024TIP3    H133487   0.914   6.712  10.648  0.2153  1.4575 -1.1610
 4024TIP3    H233488   0.837   6.840  10.671 -1.3776  0.3018  0.2271
 4025TIP3   OH233489   6.250   1.699   2.312 -0.5376 -0.2355  0.0904
 4025TIP3    H133490   6.343   1.683   2.327 -0.8362 -0.2076  2.4184
 4025TIP3    H233491   6.208   1.614   2.329 -0.9877 -0.1107 -0.3770
 4026TIP3   OH233492   1.925   4.016   2.152 -0.0320 -0.3582  0.0460
 4026TIP3    H133493   1.876   4.098   2.151  0.6106  0.0343 -0.3513
 4026TIP3    H233494   1.868   3.953   2.108 -0.4088 -0.0514  0.0901
 4027TIP3   OH233495   4.075   3.650  15.763  0.4582 -0.0122 -0.2238
 4027TIP3    H133496   4.006   3.609  15.817  0.9140  0.5911  0.8498
 4027TIP3    H233497   4.104   3.580  15.705  1.5608 -1.4263  1.9046
 4028TIP3   OH233498   4.582   2.453   4.502  0.4758  0.1954  0.7085
 4028TIP3    H133499   4.627   2.369   4.499 -1.6813 -1.1050  1.7154
 4028TIP3    H233500   4.489   2.431   4.494 -0.1890  2.4507  1.2599
 4029TIP3   OH233501   2.556   2.211  15.332 -0.0344 -0.8866  0.2472
 4029TIP3    H133502   2.576   2.148  15.401  0.6085 -0.2856  0.6281
 4029TIP3    H233503   2.602   2.178  15.255  0.8182 -0.5579  0.6095
 4030TIP3   OH233504   2.674   5.064  12.335  1.0207 -0.2499  0.8077
 4030TIP3    H133505   2.655   5.137  12.276 -0.2076  0.0917  1.5968
 4030TIP3    H233506   2.744   5.015  12.291 -0.2226 -0.3288 -1.2170
 4031TIP3   OH233507   2.912   5.570   5.283 -0.2339  0.0907 -0.4578
 4031TIP3    H133508   2.837   5.603   5.233  0.4502 -0.0332 -1.5835
 4031TIP3    H233509   2.910   5.621   5.364 -1.4565  0.1770 -0.5116
 4032TIP3   OH233510   1.339   3.584  16.327 -0.4492  0.5715  0.0472
 4032TIP3    H133511   1.384   3.622  16.402 -1.2965  0.0305  0.8484
 4032TIP3    H233512   1.258   3.634  16.319  0.6126  2.1363 -1.9440
 4033TIP3   OH233513   6.640   5.427  14.937 -0.3024 -0.5129 -0.1822
 4033TIP3    H133514   6.695   5.433  14.859  1.5373 -0.8373  1.0201
 4033TIP3    H233515   6.575   5.496  14.926  2.2098  2.0215 -0.3420
 4034TIP3   OH233516   3.128   5.249  13.615  0.5294 -0.2240  0.3702
 4034TIP3    H133517   3.136   5.310  13.688  1.2689 -0.7357  0.7226
 4034TIP3    H233518   3.048   5.199  13.634 -0.2908  0.8567 -0.1088
 4035TIP3   OH233519   2.490   5.726   2.986 -0.3066 -0.2006  0.5192
 4035TIP3    H133520   2.400   5.702   3.008 -0.9248 -0.0574 -1.6644
 4035TIP3    H233521   2.544   5.674   3.046 -1.8178 -0.1906  1.9538
 4036TIP3   OH233522   0.297   6.328  13.042  0.6532  0.3295 -0.2732
 4036TIP3    H133523   0.318   6.285  13.125 -0.2914 -0.9002 -0.6469
 4036TIP3    H233524   0.220   6.382  13.062  2.0441  2.2033  0.2807
 4037TIP3   OH233525   0.870   5.220  15.568  0.4444 -0.4753 -0.3603
 4037TIP3    H133526   0.885   5.285  15.500  0.6146 -1.5808 -1.3993
 4037TIP3    H233527   0.797   5.167  15.537  0.1789 -0.6736  0.5571
 4038TIP3   OH233528   2.475   3.132  13.477  0.4817 -0.3997 -0.0499
 4038TIP3    H133529   2.537   3.066  13.447  1.1936  0.3927 -0.3731
 4038TIP3    H233530   2.528   3.194  13.528  0.2431  1.0266 -1.4527
 4039TIP3   OH233531   0.343   1.791  11.060 -0.1473  0.2160  0.3325
 4039TIP3    H133532   0.436   1.784  11.042 -0.1736  1.4880 -0.3965
 4039TIP3    H233533   0.306   1.707  11.031  0.6159  0.0970 -0.3091
 4040TIP3   OH233534   5.915   1.789  16.653  0.1292  0.2605 -0.1396
 4040TIP3    H133535   5.880   1.863  16.604  0.6625  0.0514 -0.8628
 4040TIP3    H233536   5.848   1.721  16.646  0.7439 -0.2402 -1.7651
 4041TIP3   OH233537   0.360   4.045   1.254  0.5763 -0.3276 -0.0849
 4041TIP3    H133538   0.450   4.023   1.276  1.9360  3.0051 -1.6202
 4041TIP3    H233539   0.334   3.978   1.190  2.0207 -1.2585  0.2596
 4042TIP3   OH233540   2.737   2.018  11.685  1.3051  0.1085 -0.1015
 4042TIP3    H133541   2.797   1.970  11.742  1.3412 -0.7331 -0.8096
 4042TIP3    H233542   2.677   1.951  11.652  0.9210  0.6786 -0.5823
 4043TIP3   OH233543   0.795   3.657  12.701 -0.4582  0.1287 -0.4958
 4043TIP3    H133544   0.823   3.702  12.781  0.1734 -0.2593 -0.4887
 4043TIP3    H233545   0.733   3.717  12.660 -0.0116  0.7874 -0.2315
 4044TIP3   OH233546   2.922   3.471  13.556  0.2316  0.2952 -0.1649
 4044TIP3    H133547   2.920   3.558  13.597  0.1496  0.1481  0.1444
 4044TIP3    H233548   2.887   3.486  13.468  0.2667  0.5861 -0.1315
 4045TIP3   OH233549   3.302   0.949  17.068 -0.0329  0.3236 -0.0091
 4045TIP3    H133550   3.287   0.912  16.981  0.9700  0.4553 -0.2497
 4045TIP3    H233551   3.216   0.983  17.095  0.1208  2.5523 -2.0192
 4046TIP3   OH233552   1.288   4.818  14.716 -0.3843  0.6678 -0.1130
 4046TIP3    H133553   1.293   4.743  14.657  0.6226 -0.6991  1.6029
 4046TIP3    H233554   1.365   4.870  14.694  0.1577  0.0039  0.1685
 4047TIP3   OH233555   5.892   6.267  11.494 -0.1429 -0.2841 -0.0239
 4047TIP3    H133556   5.865   6.185  11.534  1.0948 -0.6062  0.2052
 4047TIP3    H233557   5.916   6.244  11.404  1.1634 -0.3958  0.3276
 4048TIP3   OH233558   4.912   2.582  16.273  0.2706 -0.0507  0.1589
 4048TIP3    H133559   4.907   2.486  16.281 -2.0022 -0.0887 -0.8071
 4048TIP3    H233560   4.875   2.601  16.187  0.1207  1.7341  0.5759
 4049TIP3   OH233561   1.635   3.035   3.863 -0.5817 -0.3976 -0.1591
 4049TIP3    H133562   1.687   3.057   3.786 -1.3204 -0.9852 -0.8395
 4049TIP3    H233563   1.580   2.962   3.835  0.0724 -1.5198  1.3074
 4050TIP3   OH233564   1.859   6.567  11.649  0.4431 -0.3816  0.2447
 4050TIP3    H133565   1.918   6.594  11.720  1.0066  0.0604 -0.3757
 4050TIP3    H233566   1.917   6.556  11.574 -0.2308 -0.2720 -0.2958
 4051TIP3   OH233567   1.976   1.644  11.972 -0.4339  0.8219  0.1365
 4051TIP3    H133568   1.915   1.603  11.911 -2.2332  2.3637  0.7900
 4051TIP3    H233569   1.932   1.638  12.057  0.3969  1.8011  0.6593
 4052TIP3   OH233570   5.956   3.616   3.207  0.1144 -0.0701  0.3387
 4052TIP3    H133571   5.964   3.670   3.285 -1.2695  0.1682  0.3377
 4052TIP3    H233572   5.963   3.677   3.134 -2.5510  0.3661  0.3413
 4053TIP3   OH233573   0.370   0.487  12.794 -0.9301  0.0459 -0.1379
 4053TIP3    H133574   0.293   0.470  12.740 -1.3913  1.3400  0.0814
 4053TIP3    H233575   0.399   0.400  12.822 -3.0317 -0.4259  0.7725
 4054TIP3   OH233576   2.235   6.381   2.375  0.5290  0.0798  0.4139
 4054TIP3    H133577   2.141   6.395   2.381  0.3617 -0.5909 -0.5198
 4054TIP3    H233578   2.256   6.324   2.449  0.1083 -0.2497  0.2782
 4055TIP3   OH233579   0.185   2.968   6.300  0.3718 -0.2000  0.1035
 4055TIP3    H133580   0.271   2.943   6.265  0.7952 -2.2879  2.4019
 4055TIP3    H233581   0.191   2.950   6.394 -2.2325  0.6704  0.5038
 4056TIP3   OH233582   0.573   4.544   0.137 -0.0277  0.0075  0.7221
 4056TIP3    H133583   0.500   4.482   0.139 -1.4151  1.5325  0.3332
 4056TIP3    H233584   0.606   4.540   0.047  1.0935 -1.4272  1.1608
 4057TIP3   OH233585   0.848   6.027  14.433  0.5190  0.2053  0.3144
 4057TIP3    H133586   0.918   6.089  14.410  0.3698 -0.2449 -1.5773
 4057TIP3    H233587   0.770   6.064  14.391  0.4766 -1.3209 -1.0429
 4058TIP3   OH233588   5.674   3.903   3.458  0.4570 -0.2139  0.2482
 4058TIP3    H133589   5.674   3.984   3.509  1.0140 -1.6602  2.7503
 4058TIP3    H233590   5.767   3.884   3.442  0.3107  1.4931 -3.7603
 4059TIP3   OH233591   4.080   6.183  15.418 -0.1053  0.1936 -0.0586
 4059TIP3    H133592   4.079   6.278  15.410 -0.7531  0.1591 -0.4620
 4059TIP3    H233593   3.996   6.155  15.381  0.2742 -0.5684 -0.3597
 4060TIP3   OH233594   4.765   1.326   2.178 -0.1815  0.0633  0.0885
 4060TIP3    H133595   4.736   1.249   2.129  2.5507 -1.4854  0.7367
 4060TIP3    H233596   4.768   1.297   2.269  1.3024  0.7574  0.2857
 4061TIP3   OH233597   5.267   4.350  15.219  0.2158  0.9079 -0.5552
 4061TIP3    H133598   5.252   4.383  15.308 -0.8506  0.6407 -0.6199
 4061TIP3    H233599   5.351   4.305  15.224 -0.0838  0.4163  0.4722
 4062TIP3   OH233600   5.060   2.049   6.237  0.7138 -0.4500  0.5208
 4062TIP3    H133601   5.086   1.972   6.287  0.8703  0.5434  2.0441
 4062TIP3    H233602   4.968   2.064   6.261  0.1797 -1.0538 -1.0018
 4063TIP3   OH233603   6.748   0.203  16.473 -0.0943  0.1823  0.0836
 4063TIP3    H133604   6.673   0.222  16.529 -0.1727  2.3285 -0.6377
 4063TIP3    H233605   6.766   0.110  16.486 -1.6086  0.0882  1.7940
 4064TIP3   OH233606   0.676   5.092  13.334 -0.0262 -0.1457  0.0488
 4064TIP3    H133607   0.771   5.097  13.329 -0.0272  0.6273  0.5500
 4064TIP3    H233608   0.655   5.002  13.309  0.7874 -0.1469 -0.6708
 4065TIP3   OH233609   0.364   4.554   5.205  0.6099  0.8677  0.4672
 4065TIP3    H133610   0.418   4.522   5.277 -1.3305 -0.5589  1.3562
 4065TIP3    H233611   0.370   4.650   5.211  1.4258  0.7481  1.7598
 4066TIP3   OH233612   5.510   2.651   0.063  0.8884  0.4154 -0.1395
 4066TIP3    H133613   5.488   2.572   0.113  0.4144  1.1187  0.8009
 4066TIP3    H233614   5.571   2.621  -0.004 -1.9038 -1.4376 -2.0869
 4067TIP3   OH233615   4.977   0.377  15.542 -0.5136 -0.4256 -0.4634
 4067TIP3    H133616   4.940   0.314  15.604 -2.0867 -1.0394 -1.9475
 4067TIP3    H233617   4.957   0.462  15.581  1.4215 -0.7509  1.4381
 4068TIP3   OH233618   1.348   4.272   2.807 -0.6527  0.3516  0.6928
 4068TIP3    H133619   1.416   4.244   2.869  0.6939  0.7379 -0.5553
 4068TIP3    H233620   1.273   4.216   2.826 -0.7435  1.2552  3.4870
 4069TIP3   OH233621   5.258   5.557  15.365 -0.6140 -0.2302  0.1334
 4069TIP3    H133622   5.179   5.504  15.357  0.0020 -0.9911 -1.2516
 4069TIP3    H233623   5.253   5.594  15.453 -2.3870 -0.4444  0.1561
 4070TIP3   OH233624   2.120   2.447  16.733  0.5146 -0.1705  0.6780
 4070TIP3    H133625   2.084   2.386  16.668 -0.8879  0.1582  1.1014
 4070TIP3    H233626   2.043   2.487  16.773  1.3853  0.8769  1.3722
 4071TIP3   OH233627   4.734   0.969  13.021 -0.9855  0.0273 -0.4232
 4071TIP3    H133628   4.646   0.981  12.984 -0.4754  0.7640 -1.4516
 4071TIP3    H233629   4.746   0.874  13.023 -3.1388 -0.3483  3.0829
 4072TIP3   OH233630   5.850   3.704  17.148 -0.2005 -1.0119 -0.4124
 4072TIP3    H133631   5.761   3.736  17.134 -0.1850 -0.2751  1.0511
 4072TIP3    H233632   5.841   3.630  17.207  0.2015 -0.5337  0.2615
 4073TIP3   OH233633   3.572   2.966  12.246 -0.0499 -0.1942  0.0187
 4073TIP3    H133634   3.552   2.952  12.154 -0.7102  0.2979  0.0794
 4073TIP3    H233635   3.528   3.049  12.268 -1.2215 -1.0879  1.1722
 4074TIP3   OH233636   3.264   3.034  14.235 -0.9908 -0.3309  0.1456
 4074TIP3    H133637   3.199   2.964  14.227 -1.2260 -0.0588 -0.4104
 4074TIP3    H233638   3.280   3.042  14.329 -1.5850 -0.5655  0.2697
 4075TIP3   OH233639   6.463   1.502   3.407 -0.3224  0.0468  0.3066
 4075TIP3    H133640   6.432   1.434   3.468  0.1285 -0.9838 -0.5716
 4075TIP3    H233641   6.496   1.571   3.464 -1.5189 -0.1009  1.2390
 4076TIP3   OH233642   0.834   6.152   5.791 -0.0946 -0.0167 -0.4638
 4076TIP3    H133643   0.891   6.192   5.857  2.3869 -2.3127 -1.0742
 4076TIP3    H233644   0.829   6.060   5.817 -1.1475 -0.4556 -2.0984
 4077TIP3   OH233645   6.287   2.195   0.962 -0.2116  0.1251  0.1730
 4077TIP3    H133646   6.256   2.163   0.877  0.6470  1.5944 -0.7299
 4077TIP3    H233647   6.380   2.214   0.948 -0.2119  1.0138  1.2501
 4078TIP3   OH233648   4.982   2.125   2.896 -0.1048 -0.0851 -0.0967
 4078TIP3    H133649   4.905   2.168   2.859 -1.4286 -0.9259  1.5574
 4078TIP3    H233650   4.952   2.038   2.921  1.1369 -0.1295  1.4160
 4079TIP3   OH233651   6.038   1.055   5.097 -0.3011 -0.2953 -0.2099
 4079TIP3    H133652   6.037   1.132   5.155  0.9687 -1.4183  1.4162
 4079TIP3    H233653   6.099   1.078   5.027 -0.4879  0.4415 -0.1364
 4080TIP3   OH233654   2.235   2.773  15.163 -0.7872 -0.2461  0.2052
 4080TIP3    H133655   2.193   2.689  15.183 -0.6022 -0.2123  0.7625
 4080TIP3    H233656   2.325   2.762  15.193 -0.4194 -0.2691 -0.8519
 4081TIP3   OH233657   4.278   4.070  15.828  0.2802  0.5567  0.6689
 4081TIP3    H133658   4.237   4.017  15.897 -0.5427 -0.6311 -0.6670
 4081TIP3    H233659   4.368   4.037  15.823  0.5257  1.0591  1.5501
 4082TIP3   OH233660   6.377   1.015  15.538  0.3287  0.0132  0.2222
 4082TIP3    H133661   6.288   1.023  15.505  0.3349  0.6015  0.3531
 4082TIP3    H233662   6.385   0.922  15.561 -0.3532  0.0236  0.5142
 4083TIP3   OH233663   5.326   2.999   2.892  0.6555 -0.3860 -0.0561
 4083TIP3    H133664   5.292   2.939   2.958 -0.4533  1.1285  0.8054
 4083TIP3    H233665   5.346   2.943   2.817 -0.1255 -1.8488  0.7804
 4084TIP3   OH233666   5.634   6.324   2.530  0.2508 -0.5440 -0.5790
 4084TIP3    H133667   5.691   6.380   2.582  0.1636 -1.4192  0.4891
 4084TIP3    H233668   5.670   6.236   2.539 -0.6820 -0.9592 -0.6831
 4085TIP3   OH233669   0.846   1.791   1.172  0.0686  0.0010  0.8496
 4085TIP3    H133670   0.883   1.759   1.255 -0.5778  1.6555  1.8302
 4085TIP3    H233671   0.767   1.739   1.159 -0.5035  0.5521  1.9575
 4086TIP3   OH233672   3.367   4.147  15.767  0.3945 -0.1469 -0.2523
 4086TIP3    H133673   3.380   4.118  15.857  0.3651 -1.5141 -0.6619
 4086TIP3    H233674   3.346   4.240  15.774  2.2473  0.2477  1.0259
 4087TIP3   OH233675   6.714   0.635   5.387 -0.3819  0.1919  0.0441
 4087TIP3    H133676   6.749   0.713   5.429 -0.7542  0.0126  0.6933
 4087TIP3    H233677   6.632   0.617   5.433 -1.0891  0.3074 -1.1116
 4088TIP3   OH233678   4.134   5.234   2.698 -0.1201  0.4849  0.1589
 4088TIP3    H133679   4.099   5.193   2.777 -0.4854  0.3655 -0.0638
 4088TIP3    H233680   4.205   5.176   2.671 -0.1168  0.4264  0.2901
 4089TIP3   OH233681   5.639   2.006  11.548  0.3040  0.0877  0.6106
 4089TIP3    H133682   5.672   2.046  11.468 -0.7435  0.6684  0.4544
 4089TIP3    H233683   5.683   2.053  11.619  0.9859 -0.2091  0.3980
 4090TIP3   OH233684   5.799   0.356   4.007 -0.0631 -0.3029  0.2340
 4090TIP3    H133685   5.830   0.391   4.090 -0.8848  0.9088  0.0574
 4090TIP3    H233686   5.828   0.419   3.941 -0.6960 -0.4666 -0.2129
 4091TIP3   OH233687   5.854   5.751   3.835 -0.1849  0.5840 -0.1036
 4091TIP3    H133688   5.920   5.750   3.765 -0.6211  0.8446 -0.5275
 4091TIP3    H233689   5.795   5.678   3.813 -0.2432  0.5768  0.0733
 4092TIP3   OH233690   3.888   1.455   2.199  0.0082  0.2622 -0.0019
 4092TIP3    H133691   3.913   1.464   2.291 -0.1620  1.4503 -0.0564
 4092TIP3    H233692   3.796   1.428   2.202  0.2146 -0.4500  0.1712
 4093TIP3   OH233693   5.426   3.933  13.389 -0.8173 -0.5179 -0.6022
 4093TIP3    H133694   5.434   3.851  13.339  0.5052  0.2132 -1.6708
 4093TIP3    H233695   5.371   3.989  13.334 -0.9872 -0.3857 -0.2991
 4094TIP3   OH233696   3.689   2.048   6.013 -0.0865 -0.4108  0.2572
 4094TIP3    H133697   3.688   2.125   5.956  1.0471 -0.0557  0.6922
 4094TIP3    H233698   3.614   1.996   5.984  1.1940 -0.9126 -2.4852
 4095TIP3   OH233699   3.198   2.190   1.642 -0.0692 -0.5746 -0.1647
 4095TIP3    H133700   3.200   2.224   1.552  0.2422  1.8813  0.6910
 4095TIP3    H233701   3.107   2.197   1.668 -0.2337 -1.6903 -0.4047
 4096TIP3   OH233702   4.721   5.662   1.154  0.1678 -0.1107  0.6859
 4096TIP3    H133703   4.669   5.675   1.074 -1.6769 -0.3838  1.7882
 4096TIP3    H233704   4.782   5.592   1.132 -1.1184 -1.0146 -0.1283
 4097TIP3   OH233705   4.562   2.250  16.087 -0.2505 -0.5577  0.0606
 4097TIP3    H133706   4.605   2.165  16.076  1.0346 -0.0660  1.0200
 4097TIP3    H233707   4.574   2.271  16.180  1.1019  1.4881 -0.4974
 4098TIP3   OH233708   5.336   6.598  16.970 -0.7640  0.9150 -0.4361
 4098TIP3    H133709   5.336   6.514  16.924 -0.2721  0.3844  0.4842
 4098TIP3    H233710   5.246   6.610  16.998 -0.9648  1.0061 -1.0997
 4099TIP3   OH233711   4.474   3.594   4.234  0.7305  0.2689  0.7773
 4099TIP3    H133712   4.439   3.559   4.152  1.6764  1.5243 -0.2174
 4099TIP3    H233713   4.496   3.685   4.213  2.5025  0.1582  1.9770
 4100TIP3   OH233714   2.857   6.172  16.127 -0.5922 -0.2638  0.0084
 4100TIP3    H133715   2.783   6.144  16.073  0.9065  0.1218 -2.3954
 4100TIP3    H233716   2.934   6.144  16.077  0.9522 -1.4771  2.8591
 4101TIP3   OH233717   4.176   2.982  14.055  0.1499  0.2646  0.6492
 4101TIP3    H133718   4.136   2.895  14.066 -0.1708  0.4432  0.8928
 4101TIP3    H233719   4.242   2.987  14.124  0.2450  0.1741  0.5669
 4102TIP3   OH233720   0.261   2.648  17.203  0.1112 -0.4261 -0.2145
 4102TIP3    H133721   0.253   2.624  17.295 -0.1283  0.2130 -0.0580
 4102TIP3    H233722   0.339   2.602  17.172 -0.0185 -0.9386  0.2059
 4103TIP3   OH233723   0.300   3.724  14.253  0.3740  0.0426  0.0724
 4103TIP3    H133724   0.313   3.640  14.296 -0.9283  0.1411  0.7322
 4103TIP3    H233725   0.377   3.776  14.277  0.4497 -0.4560  0.9544
 4104TIP3   OH233726   3.640   2.094   3.086 -0.2870  0.1564 -0.8571
 4104TIP3    H133727   3.689   2.015   3.064 -0.5446 -0.4288  0.5694
 4104TIP3    H233728   3.567   2.064   3.140  1.2800  1.6261  2.2925
 4105TIP3   OH233729   0.527   4.096  11.133 -0.6972 -0.2366  0.1998
 4105TIP3    H133730   0.561   4.031  11.072 -0.5803  1.0680 -1.1589
 4105TIP3    H233731   0.574   4.176  11.113 -0.1123  0.0926  2.5205
 4106TIP3   OH233732   5.682   4.753  14.718  0.4054  0.3286 -0.1849
 4106TIP3    H133733   5.684   4.735  14.624 -0.4313 -3.3361  0.3348
 4106TIP3    H233734   5.765   4.720  14.750  1.8640  3.9609  0.1700
 4107TIP3   OH233735   0.143   2.811  12.228 -0.1242  0.2667  0.0378
 4107TIP3    H133736   0.192   2.847  12.154  0.8558 -0.5184  0.2766
 4107TIP3    H233737   0.051   2.817  12.201  0.1480  0.9501 -0.8015
 4108TIP3   OH233738   4.340   1.408   1.787 -0.1568  0.2129  0.0206
 4108TIP3    H133739   4.354   1.323   1.830 -0.5936  0.9077  1.6071
 4108TIP3    H233740   4.426   1.450   1.789 -0.0280 -0.0323 -0.3962
 4109TIP3   OH233741   2.957   0.004  13.254 -0.5636  0.9077  0.2288
 4109TIP3    H133742   2.933  -0.062  13.319  2.1734 -0.7378 -0.2775
 4109TIP3    H233743   3.014   0.065  13.302  0.2845  0.5047 -0.2411
 4110TIP3   OH233744   2.305   0.076  16.398 -0.1418  0.2815  0.3236
 4110TIP3    H133745   2.234   0.135  16.424  1.3482  3.3535 -1.9702
 4110TIP3    H233746   2.379   0.102  16.453  0.0362 -0.8961  0.6733
 4111TIP3   OH233747   1.624   2.951  12.802 -0.7027 -0.5169 -0.5535
 4111TIP3    H133748   1.577   2.887  12.855  1.2677  0.5421  2.7102
 4111TIP3    H233749   1.707   2.909  12.781 -0.1143  0.3027  0.1052
 4112TIP3   OH233750   5.342   0.626  13.359 -0.0041  0.1472 -0.2597
 4112TIP3    H133751   5.284   0.606  13.432 -0.8044 -1.7384 -1.3500
 4112TIP3    H233752   5.393   0.702  13.389  0.5592 -1.2458  2.7362
 4113TIP3   OH233753   3.218   1.859  14.426 -0.5664 -0.5541 -0.3553
 4113TIP3    H133754   3.155   1.794  14.394 -0.2952 -1.4777  0.8925
 4113TIP3    H233755   3.295   1.847  14.371 -1.0202 -0.2914 -1.0629
 4114TIP3   OH233756   5.703   4.359  11.716  0.5587  0.3398 -0.1953
 4114TIP3    H133757   5.775   4.297  11.712  0.1114 -0.1480 -0.9865
 4114TIP3    H233758   5.744   4.444  11.700  1.1795  0.2773  0.9536
 4115TIP3   OH233759   3.960   4.984  17.098 -0.1662  0.3631 -0.7421
 4115TIP3    H133760   4.051   4.960  17.118 -0.2509  1.3400  1.0057
 4115TIP3    H233761   3.968   5.054  17.034  0.4689  1.9274  0.9431
 4116TIP3   OH233762   3.067   1.297  12.942  0.2121 -0.0508  0.6016
 4116TIP3    H133763   3.071   1.322  13.034 -0.1761  0.1390  0.5701
 4116TIP3    H233764   3.079   1.380  12.895  1.2800 -0.2673  0.4701
 4117TIP3   OH233765   1.502   3.483   1.561 -0.1146  0.1656  0.1697
 4117TIP3    H133766   1.423   3.445   1.523  0.6078  1.3239 -2.7641
 4117TIP3    H233767   1.475   3.570   1.591  0.3511  1.4297 -2.7605
 4118TIP3   OH233768   6.369   6.053   6.348 -0.0530 -0.1401  0.0170
 4118TIP3    H133769   6.388   5.993   6.420  0.0711 -0.1399 -0.0159
 4118TIP3    H233770   6.431   6.029   6.280 -0.2887 -0.2578 -0.1575
 4119TIP3   OH233771   0.638   4.085  14.742  0.2451 -0.1592  0.1251
 4119TIP3    H133772   0.619   4.157  14.802  0.7007  2.7026 -2.8563
 4119TIP3    H233773   0.572   4.092  14.674  0.8526 -2.0674 -0.7376
 4120TIP3   OH233774   3.828   2.952  11.783 -0.4844  0.7253 -0.1828
 4120TIP3    H133775   3.862   2.968  11.696  2.3153 -1.7951  0.2886
 4120TIP3    H233776   3.870   3.018  11.839  0.7194 -0.0129 -0.1963
 4121TIP3   OH233777   1.108   1.366  13.464  0.9134  0.3710  0.1280
 4121TIP3    H133778   1.112   1.449  13.513  2.9526  1.0335 -1.0537
 4121TIP3    H233779   1.086   1.392  13.375  1.8711 -0.3116 -0.3198
 4122TIP3   OH233780   3.046   0.212   5.803  0.6809 -0.0118  0.3124
 4122TIP3    H133781   2.974   0.165   5.762  1.4298 -1.8349  0.9842
 4122TIP3    H233782   3.121   0.196   5.745  1.0164  0.0471  0.7202
 4123TIP3   OH233783   6.183   6.683   0.713 -0.2890 -0.1556 -0.2265
 4123TIP3    H133784   6.166   6.671   0.620  0.7587  0.4672 -0.5004
 4123TIP3    H233785   6.180   6.777   0.727  1.2556 -0.1292  0.0311
 4124TIP3   OH233786   0.680   6.448   4.728  0.0459 -0.4361  0.1034
 4124TIP3    H133787   0.774   6.457   4.746  0.0028 -0.5302  0.3826
 4124TIP3    H233788   0.662   6.515   4.661  0.2639 -0.2526  0.2246
 4125TIP3   OH233789   0.242   5.346  16.650 -0.2585  0.0009 -0.4728
 4125TIP3    H133790   0.291   5.399  16.713 -1.2271  1.3861 -0.8486
 4125TIP3    H233791   0.284   5.260  16.653  0.6678  0.4763  0.9465
 4126TIP3   OH233792   3.597   5.715  13.066  0.5703 -0.5856 -0.0557
 4126TIP3    H133793   3.545   5.686  13.141  1.2154 -0.7434  0.3377
 4126TIP3    H233794   3.579   5.809  13.059  0.0522 -0.6812 -0.0760
 4127TIP3   OH233795   1.770   1.391  12.674 -0.3320  0.0977 -0.0552
 4127TIP3    H133796   1.786   1.341  12.594 -2.0715  0.4302 -0.6398
 4127TIP3    H233797   1.679   1.420  12.667 -0.4162  0.4291  1.8892
 4128TIP3   OH233798   3.750   2.196  15.783 -0.2468 -0.3519 -0.6876
 4128TIP3    H133799   3.749   2.283  15.744 -0.0519  0.2432  0.5714
 4128TIP3    H233800   3.718   2.138  15.714 -0.0803  0.6637 -1.6525
 4129TIP3   OH233801   0.987   4.990  15.025 -0.2238  0.9854  0.1120
 4129TIP3    H133802   0.943   4.961  15.105  1.7849  1.4906  1.4707
 4129TIP3    H233803   0.981   4.915  14.966 -0.1890 -0.0693  1.4033
 4130TIP3   OH233804   4.314   5.222   1.915 -0.1627 -0.0334 -0.2150
 4130TIP3    H133805   4.273   5.166   1.849  0.8900 -1.9299  0.6768
 4130TIP3    H233806   4.248   5.289   1.933 -1.2140 -0.5768 -1.7924
 4131TIP3   OH233807   2.823   4.224  12.789 -0.1726 -0.3140  0.7611
 4131TIP3    H133808   2.873   4.143  12.801  0.8099  0.3140  1.0220
 4131TIP3    H233809   2.777   4.212  12.706  1.8580 -0.2006 -0.4488
 4132TIP3   OH233810   5.821   2.244  12.888 -0.2245 -0.3029 -0.5391
 4132TIP3    H133811   5.867   2.326  12.903 -0.7318  0.1338 -1.2687
 4132TIP3    H233812   5.864   2.181  12.945 -0.7382  0.7801  1.1179
 4133TIP3   OH233813   0.730   5.432   1.368 -0.2938  0.3931  0.3978
 4133TIP3    H133814   0.691   5.382   1.297  2.0997  2.6780 -2.8693
 4133TIP3    H233815   0.674   5.509   1.377  0.1519  0.7679 -0.0075
 4134TIP3   OH233816   4.531   6.086  14.373  1.4633 -0.0471  0.7647
 4134TIP3    H133817   4.479   6.089  14.293  2.8156 -0.6081 -0.1762
 4134TIP3    H233818   4.565   5.997  14.377  0.9760 -0.1999  2.2878
 4135TIP3   OH233819   4.471   1.062   3.154  0.4092 -0.1851  0.0461
 4135TIP3    H133820   4.563   1.087   3.159 -0.1893  1.9345  1.6577
 4135TIP3    H233821   4.473   0.967   3.141  2.8118 -0.3737  1.3446
 4136TIP3   OH233822   5.681   4.748  13.767  0.4701  0.3436  0.1109
 4136TIP3    H133823   5.734   4.711  13.697  1.1651  1.0276  0.2549
 4136TIP3    H233824   5.597   4.704  13.760  1.1222 -0.9149  0.0102
 4137TIP3   OH233825   0.815   1.706   3.549  0.3665 -0.7527  0.2678
 4137TIP3    H133826   0.874   1.779   3.528 -0.1921  0.0178  1.2849
 4137TIP3    H233827   0.814   1.702   3.644 -1.2560 -0.6946  0.2822
 4138TIP3   OH233828   6.431   2.038  11.516  0.4662 -0.2174  0.9428
 4138TIP3    H133829   6.503   2.060  11.456  0.3402  0.9390  1.2064
 4138TIP3    H233830   6.352   2.051  11.463  0.4280 -1.6888  0.5886
 4139TIP3   OH233831   1.734   1.899   4.883  0.0503 -0.1718 -0.4133
 4139TIP3    H133832   1.728   1.938   4.970  1.4372 -1.7396  0.4329
 4139TIP3    H233833   1.719   1.972   4.823 -1.3850  0.8664  1.1086
 4140TIP3   OH233834   1.169   3.095   4.417 -0.1507 -0.1879  0.0476
 4140TIP3    H133835   1.232   3.159   4.384  0.2199  0.0176  1.1221
 4140TIP3    H233836   1.163   3.030   4.347  0.2649  0.4720 -0.6144
 4141TIP3   OH233837   3.178   0.798   1.640  0.5980  0.0259 -0.2580
 4141TIP3    H133838   3.111   0.865   1.656  0.5649  0.1843 -0.9937
 4141TIP3    H233839   3.169   0.777   1.547  0.3349 -1.3200  0.0537
 4142TIP3   OH233840   3.851   5.572  13.567  0.8628  0.3979 -0.3531
 4142TIP3    H133841   3.859   5.495  13.622 -0.4572  1.7637  1.8926
 4142TIP3    H233842   3.804   5.542  13.490 -1.1906 -0.7410  1.2546
 4143TIP3   OH233843   6.055   2.866  16.087  0.2656  0.4183  0.1031
 4143TIP3    H133844   6.057   2.778  16.050 -1.0030 -0.0948  1.2016
 4143TIP3    H233845   6.146   2.896  16.083  1.0311 -1.6109  1.2799
 4144TIP3   OH233846   2.452   5.580   3.290  0.5348 -0.2519  0.4115
 4144TIP3    H133847   2.546   5.564   3.285  0.3288 -1.3110 -0.4581
 4144TIP3    H233848   2.439   5.619   3.376  1.8190  0.3369  0.3624
 4145TIP3   OH233849   5.163   5.131   4.765 -0.1526  0.3984  0.7163
 4145TIP3    H133850   5.101   5.078   4.715  1.3591 -0.3302 -0.4868
 4145TIP3    H233851   5.110   5.176   4.831 -1.9741  0.0289 -0.4402
 4146TIP3   OH233852   4.447   4.993   3.342 -0.2174  0.0483 -0.1622
 4146TIP3    H133853   4.518   4.947   3.299  1.0765  0.3547  1.5379
 4146TIP3    H233854   4.468   4.987   3.436 -0.9197  2.5806  0.2209
 4147TIP3   OH233855   2.942   0.918  16.655 -0.0410  0.1311  0.6336
 4147TIP3    H133856   2.966   0.953  16.569 -1.1141  0.0203  0.2832
 4147TIP3    H233857   2.924   0.825  16.639  0.7231 -0.1227  1.1724
 4148TIP3   OH233858   2.186   1.673   5.996  0.0206  0.1665 -0.4286
 4148TIP3    H133859   2.198   1.723   6.077 -0.1956 -1.1724  0.4513
 4148TIP3    H233860   2.116   1.611   6.017  0.3776 -0.5995 -1.4531
 4149TIP3   OH233861   4.457   0.758   0.979  0.3580  0.1510 -0.1026
 4149TIP3    H133862   4.421   0.776   0.892  1.0111 -0.5958 -0.5465
 4149TIP3    H233863   4.412   0.678   1.007  0.0319  0.4776  0.3280
 4150TIP3   OH233864   1.095   2.265  11.150  0.3809  0.3075  0.8245
 4150TIP3    H133865   1.008   2.231  11.128 -0.5391  2.0500  1.5523
 4150TIP3    H233866   1.121   2.316  11.074  1.0889 -0.7349  0.3441
 4151TIP3   OH233867   3.783   2.422  13.398  0.6124  0.4509 -0.8909
 4151TIP3    H133868   3.756   2.513  13.390  2.9113  1.1112 -2.0700
 4151TIP3    H233869   3.769   2.384  13.311 -0.2544 -0.3175 -0.4307
 4152TIP3   OH233870   4.519   6.103   1.039  0.5156 -0.6593 -0.3281
 4152TIP3    H133871   4.608   6.127   1.067 -0.0376  1.5655 -0.3234
 4152TIP3    H233872   4.472   6.186   1.036 -2.3259 -2.0156  2.1770
 4153TIP3   OH233873   5.940   6.679   1.730  0.3034  0.8971  0.2247
 4153TIP3    H133874   5.873   6.675   1.662 -3.0542  0.4211  3.2750
 4153TIP3    H233875   5.962   6.588   1.748  0.0652  0.9453  0.7741
 4154TIP3   OH233876   0.082   3.378  15.720  0.2257  0.4257 -0.2128
 4154TIP3    H133877   0.015   3.364  15.653 -0.0631 -0.3314  0.2172
 4154TIP3    H233878   0.142   3.442  15.681  0.7720 -0.9232 -1.7071
 4155TIP3   OH233879   0.616   6.442   0.954  0.1240 -0.1019 -0.0936
 4155TIP3    H133880   0.531   6.485   0.961  0.2004  0.2044 -0.9394
 4155TIP3    H233881   0.635   6.441   0.860  2.3661  2.4780  0.2035
 4156TIP3   OH233882   3.509   3.134  10.834  0.1441 -0.4692  0.3876
 4156TIP3    H133883   3.524   3.226  10.855  1.0219  0.0803 -2.3506
 4156TIP3    H233884   3.416   3.120  10.853 -0.3693  1.4181 -0.5410
 4157TIP3   OH233885   5.519   4.945   2.575 -0.4192  0.3411 -0.0892
 4157TIP3    H133886   5.581   4.957   2.503  0.6545 -0.2659  0.7025
 4157TIP3    H233887   5.479   4.860   2.559 -0.3369  0.3008 -0.0800
 4158TIP3   OH233888   6.120   4.431  16.570 -0.2583  0.3977 -0.4849
 4158TIP3    H133889   6.069   4.512  16.565  3.2993  2.8880 -0.2108
 4158TIP3    H233890   6.194   4.453  16.627  0.6634 -3.2334 -0.0681
 4159TIP3   OH233891   0.436   1.187  11.165  0.5430 -0.5091  0.0970
 4159TIP3    H133892   0.384   1.240  11.226  0.5700  0.8425 -0.9978
 4159TIP3    H233893   0.527   1.208  11.187  0.5686  2.0099 -1.9932
 4160TIP3   OH233894   2.170   2.982   0.835 -0.2245 -0.1043  0.0070
 4160TIP3    H133895   2.227   2.934   0.895  2.5199  3.5044  0.6575
 4160TIP3    H233896   2.170   2.930   0.754  1.2044 -1.9128  1.1000
 4161TIP3   OH233897   2.769   5.915  10.351 -0.2995  0.2328 -0.0036
 4161TIP3    H133898   2.860   5.916  10.322 -0.5308 -1.6913 -0.9332
 4161TIP3    H233899   2.775   5.926  10.446  0.8442  0.7480 -0.1116
 4162TIP3   OH233900   3.390   3.718  16.153  0.3450  0.1512  0.5394
 4162TIP3    H133901   3.469   3.709  16.100  0.5960  1.5366  0.6596
 4162TIP3    H233902   3.365   3.810  16.144 -2.5609 -0.6638 -1.3905
 4163TIP3   OH233903   3.279   3.133  12.309  0.3532 -0.4452  0.8671
 4163TIP3    H133904   3.242   3.204  12.362 -0.6266 -0.0143 -0.3534
 4163TIP3    H233905   3.282   3.058  12.369  0.9159  0.4728  2.0278
 4164TIP3   OH233906   3.929   5.822   0.577  0.1596 -0.2466 -0.5213
 4164TIP3    H133907   3.869   5.892   0.551  2.4562  1.1522 -2.3849
 4164TIP3    H233908   3.883   5.778   0.649 -3.3389  0.3294 -2.1536
 4165TIP3   OH233909   5.967   2.264  13.874  0.4666 -0.0967  0.1989
 4165TIP3    H133910   6.035   2.285  13.810  0.8942  0.9753  0.9746
 4165TIP3    H233911   5.951   2.170  13.863  1.8225 -0.2931 -0.2345
 4166TIP3   OH233912   1.474   3.193  12.910 -0.2738  0.4831  0.0749
 4166TIP3    H133913   1.540   3.243  12.864  0.8219 -0.3284  0.7240
 4166TIP3    H233914   1.507   3.103  12.911 -2.0761 -0.2506 -0.8806
 4167TIP3   OH233915   4.453   1.962  16.525 -0.1101  0.3305  0.1147
 4167TIP3    H133916   4.380   1.925  16.575 -0.3232 -1.6705 -1.5272
 4167TIP3    H233917   4.412   2.002  16.449  0.4767 -2.2973 -1.7176
 4168TIP3   OH233918   1.162   5.365   6.315 -0.0328 -0.2285  0.2599
 4168TIP3    H133919   1.240   5.310   6.312  0.4958  0.3262  2.5511
 4168TIP3    H233920   1.152   5.396   6.225  2.0009 -0.8337 -0.2282
 4169TIP3   OH233921   4.435   0.694   5.124  0.7706  0.1526  0.1086
 4169TIP3    H133922   4.516   0.718   5.169 -0.0659  1.9814  0.7604
 4169TIP3    H233923   4.379   0.656   5.192  0.1232  1.3775  0.2948
 4170TIP3   OH233924   2.154   0.481  16.536  0.5048 -0.2324  0.5742
 4170TIP3    H133925   2.111   0.513  16.616  0.9360  1.2697  0.2411
 4170TIP3    H233926   2.245   0.508  16.545  0.2600  1.3376 -1.0729
 4171TIP3   OH233927   3.062   3.680   0.310  0.2231  0.2917  0.3416
 4171TIP3    H133928   3.116   3.749   0.271  1.0716  1.4359  3.2839
 4171TIP3    H233929   3.119   3.603   0.311 -0.2870 -0.1682 -1.7932
 4172TIP3   OH233930   0.353   0.231  11.210  0.7589 -0.1430  0.1069
 4172TIP3    H133931   0.333   0.250  11.118  0.1106 -0.1980  0.2310
 4172TIP3    H233932   0.324   0.141  11.223 -4.6718  1.5032  1.8297
 4173TIP3   OH233933   0.490   1.372   6.353  0.3501  0.0367  0.7710
 4173TIP3    H133934   0.462   1.417   6.274 -1.1804 -2.0738 -0.0012
 4173TIP3    H233935   0.432   1.406   6.422 -0.2111 -0.1043  0.3764
 4174TIP3   OH233936   4.850   0.217  15.728 -0.0277 -0.0344 -0.1348
 4174TIP3    H133937   4.912   0.146  15.742  0.9852 -0.0347 -3.6443
 4174TIP3    H233938   4.764   0.175  15.726  0.3292 -0.7821  0.0646
 4175TIP3   OH233939   2.970   3.211  11.008 -0.3783 -0.5001 -0.2082
 4175TIP3    H133940   2.911   3.262  11.064 -0.1778 -0.8817  0.3568
 4175TIP3    H233941   2.916   3.139  10.976 -0.1827 -0.9527  0.4556
 4176TIP3   OH233942   2.992   5.763  12.112  0.4896  0.1603 -0.0409
 4176TIP3    H133943   3.003   5.811  12.194 -0.9796 -1.4025  1.1333
 4176TIP3    H233944   2.898   5.752  12.103  0.7120 -1.0585 -1.1424
 4177TIP3   OH233945   3.418   2.608   3.795  0.6986  0.3452  0.6454
 4177TIP3    H133946   3.438   2.694   3.757  1.8346 -0.1858 -0.0347
 4177TIP3    H233947   3.323   2.601   3.789  0.7301  0.7843 -1.0954
 4178TIP3   OH233948   4.882   0.986   1.121 -0.0587  0.0625 -0.2490
 4178TIP3    H133949   4.798   0.946   1.143 -0.3934  1.0756  0.3752
 4178TIP3    H233950   4.927   0.993   1.205  1.6503 -2.5755 -0.8118
 4179TIP3   OH233951   5.005   2.667  16.005 -0.7072  0.0259  0.1791
 4179TIP3    H133952   5.016   2.762  16.010 -0.2861  0.1931 -2.3124
 4179TIP3    H233953   5.044   2.633  16.086  0.0843  1.9093  0.6346
 4180TIP3   OH233954   6.364   2.611  12.940  0.6247  0.6501  0.4233
 4180TIP3    H133955   6.446   2.648  12.973  0.3622  2.4925 -0.8139
 4180TIP3    H233956   6.343   2.665  12.864 -0.4986 -1.3242 -0.7470
 4181TIP3   OH233957   2.385   6.498  15.019 -0.3627 -0.1657 -0.2390
 4181TIP3    H133958   2.322   6.569  15.027 -0.5598 -0.5591  2.3421
 4181TIP3    H233959   2.470   6.540  15.027 -0.5023 -0.2879  2.9754
 4182TIP3   OH233960   1.131   1.623  12.825 -0.6713 -0.1616 -0.6077
 4182TIP3    H133961   1.130   1.540  12.874 -2.2943 -0.1442 -0.5566
 4182TIP3    H233962   1.216   1.661  12.845 -0.7127 -0.8346  1.0635
 4183TIP3   OH233963   1.076   1.205   0.262  0.3280 -0.2875  0.1622
 4183TIP3    H133964   1.119   1.252   0.190 -1.7601 -0.1663 -1.0771
 4183TIP3    H233965   1.048   1.122   0.223 -1.1223 -0.0842  0.7282
 4184TIP3   OH233966   3.338   2.434   6.815  0.2710 -0.4234  0.5117
 4184TIP3    H133967   3.307   2.355   6.770  1.0448 -1.4203  1.6387
 4184TIP3    H233968   3.432   2.438   6.795  0.1545  0.4498  0.1239
 4185TIP3   OH233969   0.899   0.053   4.936 -0.0401 -0.0119  0.4101
 4185TIP3    H133970   0.807   0.077   4.922 -0.5923 -1.5166  1.2789
 4185TIP3    H233971   0.933   0.033   4.849 -1.1547 -1.4812  0.2796
 4186TIP3   OH233972   0.816   6.275   2.370  0.8450  0.0212  0.7206
 4186TIP3    H133973   0.874   6.336   2.417  0.1256 -0.2710  2.0509
 4186TIP3    H233974   0.751   6.250   2.436 -0.3872 -0.1876 -0.5532
 4187TIP3   OH233975   4.108   6.007  12.893 -0.1985 -0.0816  0.1902
 4187TIP3    H133976   4.018   6.015  12.864 -0.3837 -0.7416  0.5571
 4187TIP3    H233977   4.149   5.948  12.829 -0.1375 -0.1053  0.2501
 4188TIP3   OH233978   2.948   3.176   4.625 -0.0435 -0.3860 -0.3519
 4188TIP3    H133979   2.924   3.263   4.655  1.6414 -0.2086  0.5510
 4188TIP3    H233980   2.899   3.165   4.543 -2.0094  0.4954  0.6350
 4189TIP3   OH233981   4.633   5.208  12.526  0.1175  0.2147 -0.3714
 4189TIP3    H133982   4.674   5.127  12.557 -0.0322  0.4789  0.5417
 4189TIP3    H233983   4.618   5.193  12.433 -0.4403 -1.0383 -0.1060
 4190TIP3   OH233984   4.525   1.394  14.453 -0.4471 -0.0035  0.2697
 4190TIP3    H133985   4.610   1.368  14.488 -0.9590 -0.3072  1.3099
 4190TIP3    H233986   4.469   1.317  14.463 -2.6077  1.8001  5.3359
 4191TIP3   OH233987   2.918   5.069  15.834  0.1067 -0.2430 -0.0707
 4191TIP3    H133988   3.013   5.080  15.838  0.2170 -1.3053  1.8509
 4191TIP3    H233989   2.883   5.142  15.885  0.0635 -1.1067  1.1862
 4192TIP3   OH233990   1.486   5.253  12.449  0.1876 -0.2179 -0.5160
 4192TIP3    H133991   1.517   5.288  12.533 -3.0523  0.1488  0.6647
 4192TIP3    H233992   1.522   5.313  12.384  0.2727  1.3627  0.9078
 4193TIP3   OH233993   1.716   6.534  13.136 -0.2192 -0.1108 -0.1726
 4193TIP3    H133994   1.793   6.578  13.100  0.4122 -0.9726  0.1018
 4193TIP3    H233995   1.741   6.510  13.225 -1.1847  0.5277  0.2847
 4194TIP3   OH233996   4.099   0.761   3.406 -0.8663  0.2912 -0.1392
 4194TIP3    H133997   4.047   0.793   3.481  2.1046 -0.0409  2.2648
 4194TIP3    H233998   4.123   0.841   3.359 -1.5429  0.6732  0.1469
 4195TIP3   OH233999   5.439   6.461  10.955 -0.1942 -0.3578 -0.1331
 4195TIP3    H134000   5.380   6.528  10.922 -1.6078 -1.2034  0.5912
 4195TIP3    H234001   5.465   6.410  10.878 -0.7467 -0.2283 -0.4074
 4196TIP3   OH234002   4.071   4.714   3.992  0.2927  0.4982 -0.6303
 4196TIP3    H134003   4.060   4.639   3.933 -0.5945  0.2242 -0.1443
 4196TIP3    H234004   4.060   4.790   3.936 -1.9867  0.2452 -0.6416
 4197TIP3   OH234005   3.014   3.858  15.660  0.0943  0.6794  0.3214
 4197TIP3    H134006   2.992   3.776  15.616 -0.1969  0.9708 -0.0758
 4197TIP3    H234007   3.028   3.833  15.751  0.9068  0.0365  0.0375
 4198TIP3   OH234008   3.605   4.236  11.419 -0.3507  0.0399 -0.5651
 4198TIP3    H134009   3.608   4.146  11.386 -2.1785  0.6397 -2.6412
 4198TIP3    H234010   3.553   4.231  11.498  0.7939 -0.9003  0.1648
 4199TIP3   OH234011   3.736   5.776  15.974  0.3811  0.0761  0.3466
 4199TIP3    H134012   3.730   5.806  16.065  0.4716  1.0656  0.0370
 4199TIP3    H234013   3.768   5.852  15.925  0.9630 -0.6403 -0.4142
 4200TIP3   OH234014   5.900   1.990  12.041  0.5642  0.0022  0.2043
 4200TIP3    H134015   5.836   2.056  12.066 -0.3371 -0.6918 -0.1748
 4200TIP3    H234016   5.961   2.035  11.983  0.6074  0.7552  0.8295
 4201TIP3   OH234017   5.383   4.822  16.348 -0.1806 -0.5728 -0.0733
 4201TIP3    H134018   5.434   4.744  16.371 -1.7018 -1.3715  0.7175
 4201TIP3    H234019   5.433   4.862  16.277  0.7478 -2.1597 -0.3815
 4202TIP3   OH234020   1.171   5.200   5.749  0.3538 -0.0051  0.0882
 4202TIP3    H134021   1.260   5.169   5.731  0.6111  1.4031 -1.2883
 4202TIP3    H234022   1.114   5.142   5.698  0.6097  0.1007 -0.3152
 4203TIP3   OH234023   3.653   4.606   5.457 -0.0261 -0.6653  0.2162
 4203TIP3    H134024   3.573   4.553   5.461  0.0952 -0.8373  0.3894
 4203TIP3    H234025   3.712   4.556   5.400 -1.1520  0.9746 -2.5853
 4204TIP3   OH234026   1.344   0.455   4.920 -0.3794  0.3803  0.1066
 4204TIP3    H134027   1.380   0.425   4.836  0.5598  0.8313  0.3318
 4204TIP3    H234028   1.361   0.549   4.921 -1.2667  0.5505  0.3871
 4205TIP3   OH234029   0.114   5.281  12.962  0.1819 -0.3722  0.5258
 4205TIP3    H134030   0.094   5.258  13.053 -0.3050 -1.0158  0.2566
 4205TIP3    H234031   0.135   5.198  12.919 -1.8294 -0.4178 -0.5043
 4206TIP3   OH234032   3.309   3.371  16.715  0.4177 -0.1531  0.1825
 4206TIP3    H134033   3.328   3.465  16.720 -0.1572 -0.0305  0.2461
 4206TIP3    H234034   3.327   3.348  16.624  0.4434  0.0507  0.1352
 4207TIP3   OH234035   5.694   5.657   5.427  0.1887  0.2167 -0.2517
 4207TIP3    H134036   5.635   5.601   5.477  0.1483 -0.0969 -0.6484
 4207TIP3    H234037   5.642   5.735   5.408 -0.6393 -0.7012 -1.9441
 4208TIP3   OH234038   6.410   3.923   3.318  0.5661 -0.0235 -0.0367
 4208TIP3    H134039   6.365   3.840   3.298  1.5133 -0.5051 -0.1971
 4208TIP3    H234040   6.480   3.898   3.378  1.2923  0.5558 -0.6311
 4209TIP3   OH234041   2.378   3.910  16.409  0.3821 -0.4250  0.8145
 4209TIP3    H134042   2.298   3.862  16.387  0.2900  0.2329 -0.3801
 4209TIP3    H234043   2.348   3.997  16.435  0.6631 -0.4219  1.1382
 4210TIP3   OH234044   3.867   1.273  15.781  0.6389  0.1718 -0.1148
 4210TIP3    H134045   3.918   1.274  15.700  1.0830  1.7225  0.1551
 4210TIP3    H234046   3.838   1.363  15.793 -1.1044 -0.4230  0.4294
 4211TIP3   OH234047   0.595   4.845  16.793 -0.3679 -0.1542 -0.0214
 4211TIP3    H134048   0.583   4.794  16.713 -0.7103  2.8924 -2.0787
 4211TIP3    H234049   0.507   4.850  16.831 -0.6851  0.3923 -0.8047
 4212TIP3   OH234050   5.354   4.868   0.336  0.1475  0.2803 -0.5204
 4212TIP3    H134051   5.429   4.855   0.394 -0.1333 -2.0323 -0.6162
 4212TIP3    H234052   5.281   4.828   0.381 -0.3623 -0.3591 -1.8623
 4213TIP3   OH234053   4.058   3.477   4.272  0.0507 -0.2370  0.0429
 4213TIP3    H134054   4.086   3.400   4.223 -1.3219 -0.1091 -0.9978
 4213TIP3    H234055   4.061   3.548   4.208 -1.3840  0.0169  0.2247
 4214TIP3   OH234056   5.034   2.105  12.121  0.1879  0.3215 -0.4322
 4214TIP3    H134057   5.029   2.104  12.217 -1.4905 -0.9327 -0.4680
 4214TIP3    H234058   4.998   2.020  12.095  1.6871  0.1608 -2.1676
 4215TIP3   OH234059   1.674   4.259  16.134  0.6428  0.3148 -0.6687
 4215TIP3    H134060   1.606   4.315  16.096 -0.2384  1.8843  2.8264
 4215TIP3    H234061   1.627   4.179  16.159 -0.0921  1.3989  1.7475
 4216TIP3   OH234062   3.062   2.138   0.450  0.1283  0.2607 -0.4166
 4216TIP3    H134063   3.086   2.133   0.542 -0.2563  1.0933 -0.2584
 4216TIP3    H234064   2.974   2.176   0.450  0.6579  1.5704 -1.1663
 4217TIP3   OH234065   1.875   4.724  16.999  0.3038 -0.1721 -0.1553
 4217TIP3    H134066   1.870   4.815  17.028  1.1166 -0.1373 -0.1035
 4217TIP3    H234067   1.786   4.690  17.012  0.3179  0.2244  1.1281
 4218TIP3   OH234068   4.392   3.326  12.541  0.5731 -0.0772 -0.1262
 4218TIP3    H134069   4.454   3.379  12.591 -0.5106  1.1500 -0.0109
 4218TIP3    H234070   4.444   3.254  12.506  2.6823  2.1812 -2.1086
 4219TIP3   OH234071   1.723   0.909   2.268  0.2423 -0.2291  0.4375
 4219TIP3    H134072   1.796   0.928   2.328  0.9811 -0.7838 -0.2733
 4219TIP3    H234073   1.748   0.828   2.224 -2.0465 -1.9747  2.1224
 4220TIP3   OH234074   0.123   4.564   2.395  0.2635  0.8446  0.1812
 4220TIP3    H134075   0.137   4.597   2.306 -0.1168  2.7353  0.7750
 4220TIP3    H234076   0.208   4.574   2.438  0.7629 -1.1559 -0.2587
 4221TIP3   OH234077   0.792   3.396   1.451  0.8498  0.1016 -0.1994
 4221TIP3    H134078   0.827   3.475   1.410  0.3706 -0.3717 -1.5709
 4221TIP3    H234079   0.859   3.329   1.436 -0.3931 -0.7288 -2.5676
 4222TIP3   OH234080   5.130   0.949  14.923  0.5277 -0.7978  0.2411
 4222TIP3    H134081   5.137   0.872  14.980 -1.2826 -1.0916  0.1294
 4222TIP3    H234082   5.128   0.913  14.834 -0.0749 -0.6277  0.1781
 4223TIP3   OH234083   4.612   3.398  12.690 -0.5610 -0.7608 -0.1018
 4223TIP3    H134084   4.704   3.427  12.691 -0.5679 -0.6925 -0.7324
 4223TIP3    H234085   4.572   3.441  12.766  0.2007 -1.7346  0.8914
 4224TIP3   OH234086   1.787   2.510   2.558 -0.8088 -0.0801  0.2301
 4224TIP3    H134087   1.842   2.441   2.522 -0.0310  1.0957 -0.9138
 4224TIP3    H234088   1.713   2.516   2.497 -0.0240  1.1908 -0.6645
 4225TIP3   OH234089   2.940   1.835  15.226 -0.3104 -0.6901 -0.0675
 4225TIP3    H134090   3.019   1.808  15.179 -1.1350 -0.1957 -1.8415
 4225TIP3    H234091   2.941   1.931  15.222 -1.2855 -0.6818 -0.7013
 4226TIP3   OH234092   5.082   5.061  15.051  0.2982 -0.4487 -0.5979
 4226TIP3    H134093   5.083   4.978  15.004 -0.9499 -1.4528  1.0240
 4226TIP3    H234094   4.991   5.089  15.050 -0.1427 -1.3645  2.4823
 4227TIP3   OH234095   4.844   6.657   3.542  0.1551 -0.9080  0.4931
 4227TIP3    H134096   4.785   6.602   3.595 -0.7462 -1.6346 -1.1701
 4227TIP3    H234097   4.826   6.630   3.452  0.2810  1.5644 -0.3487
 4228TIP3   OH234098   3.660   1.666   0.419  0.4054 -0.4371 -0.0367
 4228TIP3    H134099   3.610   1.698   0.345 -0.1620 -1.0184  0.0869
 4228TIP3    H234100   3.598   1.665   0.492  1.1819  0.9991  0.6927
 4229TIP3   OH234101   4.056   1.664  16.514 -0.1732 -0.1990 -0.6982
 4229TIP3    H134102   4.141   1.663  16.557  0.2277  0.0341 -1.4623
 4229TIP3    H234103   4.001   1.608  16.569  0.7436 -1.1899 -0.7341
 4230TIP3   OH234104   5.005   3.496  15.721  0.1417 -0.1971  0.2468
 4230TIP3    H134105   4.947   3.572  15.724  0.1165 -0.1641 -0.7689
 4230TIP3    H234106   5.033   3.490  15.629  0.8963 -0.8487  0.5016
 4231TIP3   OH234107   1.043   2.060   3.268  0.5100 -0.0832  1.0396
 4231TIP3    H134108   0.964   2.112   3.251  1.0996  0.5194  0.0289
 4231TIP3    H234109   1.115   2.119   3.248  1.2035 -1.4532 -0.7812
 4232TIP3   OH234110   3.032   5.637  14.251  0.9196  0.4568 -0.6192
 4232TIP3    H134111   2.959   5.631  14.190  0.8873 -0.9448 -0.4705
 4232TIP3    H234112   3.107   5.605  14.201  1.2025  0.8066 -0.4182
 4233TIP3   OH234113   5.779   0.160  11.191  0.6173  0.4692  0.0421
 4233TIP3    H134114   5.715   0.190  11.126 -0.7913  0.2442  1.2893
 4233TIP3    H234115   5.861   0.154  11.142  0.3583  3.4774 -0.9513
 4234TIP3   OH234116   0.588   2.947   3.470  0.1502 -0.1813 -0.9570
 4234TIP3    H134117   0.661   2.978   3.418  2.2717 -1.1657  1.2412
 4234TIP3    H234118   0.584   2.853   3.452 -0.3403 -0.1952 -0.7843
 4235TIP3   OH234119   0.171   0.261   0.849  0.4874  0.4782  0.1237
 4235TIP3    H134120   0.120   0.333   0.813 -0.2588  0.5235  1.2206
 4235TIP3    H234121   0.115   0.184   0.839  0.9737  0.1830 -0.3611
 4236TIP3   OH234122   4.900   0.695   4.389  0.6562 -0.3494  0.2307
 4236TIP3    H134123   4.837   0.718   4.321  1.6757  0.2308 -0.5502
 4236TIP3    H234124   4.861   0.621   4.435 -1.2459  0.8803  0.7097
 4237TIP3   OH234125   0.336   0.942  11.468 -0.6483  0.3698 -0.0280
 4237TIP3    H134126   0.296   0.982  11.390 -0.1204  0.7102 -0.1260
 4237TIP3    H234127   0.280   0.866  11.487  0.1832 -0.7293 -1.7563
 4238TIP3   OH234128   2.729   5.479   2.807 -0.1027 -0.2787  0.1177
 4238TIP3    H134129   2.733   5.502   2.899 -0.1641  1.4715 -0.2933
 4238TIP3    H234130   2.791   5.406   2.798 -0.2651 -0.6221  1.5602
 4239TIP3   OH234131   2.131   0.047   4.815 -0.6280 -0.4114 -0.1259
 4239TIP3    H134132   2.163   0.123   4.864  1.2437 -1.9261  1.1176
 4239TIP3    H234133   2.044   0.030   4.852 -1.2301  1.2703 -0.6568
 4240TIP3   OH234134   2.133   3.571  15.551  0.2365  0.0646 -0.1288
 4240TIP3    H134135   2.217   3.595  15.511 -0.1483 -0.3934 -1.2631
 4240TIP3    H234136   2.124   3.630  15.626  1.1403  0.7391 -0.5288
 4241TIP3   OH234137   0.703   0.154   0.161  0.1191  0.1049 -0.4949
 4241TIP3    H134138   0.782   0.188   0.118 -0.3369  0.7189 -0.8509
 4241TIP3    H234139   0.727   0.064   0.185  1.3967  0.7092  0.6312
 4242TIP3   OH234140   3.544   5.364  15.333 -0.3806  0.2750  0.3057
 4242TIP3    H134141   3.492   5.285  15.348  1.0703 -0.7577  0.1051
 4242TIP3    H234142   3.623   5.351  15.385  0.7370  0.7020 -1.1988
 4243TIP3   OH234143   0.288   3.370  16.997  0.1187  0.0977  0.2938
 4243TIP3    H134144   0.225   3.317  17.046 -2.1547 -0.0571 -2.5587
 4243TIP3    H234145   0.263   3.461  17.017 -0.9529  0.0355 -0.6620
 4244TIP3   OH234146   4.336   0.516   5.602  0.2608  0.1088 -0.1379
 4244TIP3    H134147   4.369   0.426   5.607 -0.6963 -0.3953 -1.9341
 4244TIP3    H234148   4.290   0.530   5.685 -1.5837 -1.9397 -0.7215
 4245TIP3   OH234149   5.526   2.627  12.876 -0.1516 -1.0357  0.1597
 4245TIP3    H134150   5.511   2.701  12.934  0.5998 -1.1961  0.5721
 4245TIP3    H234151   5.483   2.553  12.921 -0.1528 -1.0221  0.1808
 4246TIP3   OH234152   3.858   3.538  14.109  0.0407  0.3228  0.1336
 4246TIP3    H134153   3.950   3.527  14.131  0.3421  0.3308 -1.0772
 4246TIP3    H234154   3.852   3.627  14.075 -0.6952  0.8316  1.5209
 4247TIP3   OH234155   6.487   6.048  14.178 -0.3547 -0.2104  0.0201
 4247TIP3    H134156   6.436   5.968  14.173  0.8516 -0.9808 -0.6653
 4247TIP3    H234157   6.567   6.022  14.224 -0.6362  0.9999  1.2367
 4248TIP3   OH234158   4.172   1.436  16.127  0.6259 -0.0100 -0.1266
 4248TIP3    H134159   4.152   1.522  16.165  0.5370  0.8341 -1.9630
 4248TIP3    H234160   4.158   1.375  16.199  1.4377  1.5653  1.4571
 4249TIP3   OH234161   3.776   5.365  14.593 -0.0339 -0.1114 -0.2630
 4249TIP3    H134162   3.775   5.381  14.499  2.3383 -1.4088 -0.5867
 4249TIP3    H234163   3.772   5.270  14.602 -2.2608  0.0317  1.0937
 4250TIP3   OH234164   0.964   3.968  16.151  0.0354 -0.3804  0.0878
 4250TIP3    H134165   0.900   3.957  16.081 -0.8432 -1.4814  1.0221
 4250TIP3    H234166   0.968   4.062  16.166 -2.7515 -0.3241  1.1971
 4251TIP3   OH234167   3.521   2.669   5.576 -0.0411  0.0168 -0.0056
 4251TIP3    H134168   3.587   2.616   5.530 -0.1607  1.6892 -2.2878
 4251TIP3    H234169   3.568   2.748   5.603 -0.2967 -0.3807  1.7355
 4252TIP3   OH234170   4.348   3.157   3.098 -0.0477 -0.0220 -0.3265
 4252TIP3    H134171   4.264   3.178   3.056  0.4117  0.6178 -0.9348
 4252TIP3    H234172   4.341   3.195   3.185 -1.4843 -2.3893  0.6873
 4253TIP3   OH234173   4.688   6.226  14.175 -0.6049  0.3255  0.3086
 4253TIP3    H134174   4.615   6.238  14.236 -1.6081 -0.5899 -0.6837
 4253TIP3    H234175   4.757   6.187  14.229 -1.0401  0.6586  1.1298
 4254TIP3   OH234176   2.307   1.283   0.361 -0.3549  0.5654 -0.1808
 4254TIP3    H134177   2.312   1.196   0.320 -2.8085  0.2562  0.0370
 4254TIP3    H234178   2.215   1.307   0.356  0.0811  2.7066  0.7768
 4255TIP3   OH234179   0.923   2.766  12.597 -0.1270 -0.7140  0.2722
 4255TIP3    H134180   0.907   2.718  12.516  0.9921  0.1573 -0.5030
 4255TIP3    H234181   0.844   2.752  12.649 -0.4289 -2.1679 -0.5161
 4256TIP3   OH234182   2.418   3.277  14.428  0.0547  0.0939 -0.1486
 4256TIP3    H134183   2.483   3.206  14.430  0.5262  0.5325  1.1797
 4256TIP3    H234184   2.451   3.341  14.490 -1.0576  0.8804 -0.3470
 4257TIP3   OH234185   2.438   0.877   0.039 -0.3272 -0.7392  0.5483
 4257TIP3    H134186   2.372   0.826  -0.006  0.0923  0.5430 -1.6952
 4257TIP3    H234187   2.418   0.968   0.016  1.9983 -0.2945 -0.0269
 4258TIP3   OH234188   1.507   6.673  15.850 -0.2342 -0.0054  0.1319
 4258TIP3    H134189   1.544   6.759  15.868  0.6853  0.4730 -3.4204
 4258TIP3    H234190   1.569   6.632  15.791 -1.8737 -2.1549 -0.2152
 4259TIP3   OH234191   5.808   1.853  11.827  0.2793 -0.3511 -0.4885
 4259TIP3    H134192   5.830   1.864  11.919  1.4073  0.1309 -0.7979
 4259TIP3    H234193   5.876   1.901  11.780 -0.5347 -0.2120 -1.5635
 4260TIP3   OH234194   5.970   6.462   1.114  0.0126 -0.1837  0.3018
 4260TIP3    H134195   6.024   6.524   1.067 -1.5799  0.0949 -1.2365
 4260TIP3    H234196   6.009   6.458   1.202  2.5119 -0.0525 -0.7307
 4261TIP3   OH234197   5.954   2.439  16.818  0.3609 -0.6816  0.6452
 4261TIP3    H134198   5.869   2.479  16.800  0.8032  0.2612  0.6200
 4261TIP3    H234199   5.989   2.489  16.892  1.4698 -0.2057 -0.1789
 4262TIP3   OH234200   0.594   4.069  17.019 -0.5866  0.2842 -0.0753
 4262TIP3    H134201   0.621   3.984  17.052 -0.3309 -0.0196 -1.0386
 4262TIP3    H234202   0.653   4.132  17.062  0.3970 -0.1923 -0.6997
 4263TIP3   OH234203   2.894   0.998  11.719 -0.8305 -0.0286  0.1889
 4263TIP3    H134204   2.888   0.998  11.815 -0.3920 -3.0403  0.3220
 4263TIP3    H234205   2.886   0.906  11.695  1.7473  0.3225 -2.5115
 4264TIP3   OH234206   0.615   0.093  16.774 -0.0609 -0.3375  0.0174
 4264TIP3    H134207   0.706   0.072  16.794  0.2487  0.8004 -0.1419
 4264TIP3    H234208   0.588   0.152  16.844 -0.8252 -0.9952  0.3014
 4265TIP3   OH234209   5.232   6.337   0.814 -0.3170  0.3289  0.0060
 4265TIP3    H134210   5.235   6.283   0.735 -0.1328  0.6013 -0.1814
 4265TIP3    H234211   5.164   6.402   0.796  1.9749  2.5264 -1.3908
 4266TIP3   OH234212   1.337   2.771  15.743 -0.5097  0.1661  0.4646
 4266TIP3    H134213   1.290   2.853  15.761  1.2700  1.2529  0.3912
 4266TIP3    H234214   1.390   2.757  15.821 -1.4005 -1.3953  0.8225
 4267TIP3   OH234215   4.707   4.662   0.281 -0.8139  0.1491  0.7023
 4267TIP3    H134216   4.634   4.621   0.328 -1.2008 -0.6091 -0.5040
 4267TIP3    H234217   4.668   4.693   0.200  0.0757  0.3314  0.3320
 4268TIP3   OH234218   5.134   6.128   5.335  0.1409 -0.1760 -0.5521
 4268TIP3    H134219   5.100   6.082   5.411  0.7807  0.5665  0.2030
 4268TIP3    H234220   5.115   6.070   5.261 -4.3261  0.8682 -0.4955
 4269TIP3   OH234221   1.347   5.408  16.440 -0.2522 -0.0946  0.5314
 4269TIP3    H134222   1.350   5.479  16.375  3.0448 -1.4026 -0.9891
 4269TIP3    H234223   1.298   5.338  16.396  0.9583 -0.5546 -0.1235
 4270TIP3   OH234224   0.098   5.981   4.337  1.2089  0.3786 -0.0109
 4270TIP3    H134225   0.131   6.070   4.333 -0.2922  0.9697 -0.1088
 4270TIP3    H234226   0.003   5.990   4.323  1.1928 -1.3447 -1.3946
 4271TIP3   OH234227   0.279   1.647  13.402 -0.4104  0.4115  0.2127
 4271TIP3    H134228   0.245   1.576  13.347 -0.9928  0.5405  0.3965
 4271TIP3    H234229   0.265   1.727  13.351  1.7935  0.2624 -0.7257
 4272TIP3   OH234230   0.816   4.630  16.676 -0.2064  0.1834  0.4159
 4272TIP3    H134231   0.835   4.566  16.608 -1.0132 -0.1944  0.5357
 4272TIP3    H234232   0.735   4.672  16.648  0.5926  1.5540  0.0624
 4273TIP3   OH234233   2.789   4.522   1.657 -0.0528 -0.0183  0.0214
 4273TIP3    H134234   2.884   4.518   1.666  0.1514 -0.5215 -2.0263
 4273TIP3    H234235   2.767   4.455   1.593 -1.4103  2.1718 -1.9782
 4274TIP3   OH234236   1.644   0.444   0.479 -0.6985  0.6472  0.8519
 4274TIP3    H134237   1.630   0.538   0.489  1.2241  1.0653  0.0946
 4274TIP3    H234238   1.616   0.424   0.389  0.1207  0.7966  0.5474
 4275TIP3   OH234239   5.915   6.127   1.369  0.1681 -1.1655  0.7281
 4275TIP3    H134240   5.841   6.185   1.355 -0.6254 -2.0556  1.0990
 4275TIP3    H234241   5.898   6.052   1.313  0.3920 -1.7185  1.3805
 4276TIP3   OH234242   4.280   3.175   4.684  0.2111 -0.6856  0.6397
 4276TIP3    H134243   4.219   3.144   4.617  0.3236 -1.5479  0.9195
 4276TIP3    H234244   4.359   3.122   4.671  0.0669 -1.2086  1.7410
 4277TIP3   OH234245   5.779   6.520   0.858 -0.7071  0.3032  0.1971
 4277TIP3    H134246   5.792   6.500   0.951  2.0407  3.0770  0.5773
 4277TIP3    H234247   5.711   6.588   0.858 -1.3645 -0.3409  0.0502
 4278TIP3   OH234248   2.654   4.827   1.573 -0.1162  0.3704 -0.5379
 4278TIP3    H134249   2.657   4.843   1.667  1.5452  0.2238 -0.5355
 4278TIP3    H234250   2.609   4.743   1.563 -2.7621  1.6547 -0.0910
 4279TIP3   OH234251   0.838   1.911  16.827 -0.2581 -0.3080  0.4863
 4279TIP3    H134252   0.923   1.896  16.787  0.1498  0.8733  0.8589
 4279TIP3    H234253   0.792   1.968  16.765 -0.9342 -1.2587  0.1030
 4280TIP3   OH234254   2.343   6.781  13.132  0.5817 -0.2953 -0.6484
 4280TIP3    H134255   2.326   6.852  13.193  0.5832  0.5208 -1.5825
 4280TIP3    H234256   2.435   6.758  13.146  0.0514 -1.5957  1.1569
 4281TIP3   OH234257   5.885   4.764   4.685  0.3563 -0.6661  0.5042
 4281TIP3    H134258   5.824   4.691   4.693 -1.4739  0.7703  0.1631
 4281TIP3    H234259   5.858   4.827   4.751  0.7377  0.4972 -0.4021
 4282TIP3   OH234260   0.520   0.749  13.691 -0.7075  0.1405 -0.3574
 4282TIP3    H134261   0.451   0.814  13.705 -0.9765 -0.4922  1.5394
 4282TIP3    H234262   0.473   0.667  13.676 -0.4496 -0.4766  1.8567
 4283TIP3   OH234263   1.711   5.324   1.010  0.3881  0.4295  0.4157
 4283TIP3    H134264   1.732   5.245   0.960  0.3413  0.3664  0.4954
 4283TIP3    H234265   1.743   5.306   1.098  0.7526  0.6631  0.3344
 4284TIP3   OH234266   5.666   5.525  11.827 -0.2402 -0.6736  0.2587
 4284TIP3    H134267   5.625   5.598  11.874  2.7244  1.3568  0.0017
 4284TIP3    H234268   5.715   5.478  11.894  1.3715  0.2782 -0.1951
 4285TIP3   OH234269   1.134   0.033  15.086  0.0390 -0.3352 -0.0561
 4285TIP3    H134270   1.083   0.081  15.022  1.2527  1.1286  0.0192
 4285TIP3    H234271   1.216   0.082  15.094  0.2629 -0.9239  1.9958
 4286TIP3   OH234272   4.565   6.161   0.365 -0.2022 -0.3269  0.0605
 4286TIP3    H134273   4.606   6.086   0.409  0.5232  1.0067  1.7904
 4286TIP3    H234274   4.639   6.211   0.330 -0.6848 -0.4463 -1.1681
 4287TIP3   OH234275   6.080   5.906  16.947  0.0489 -0.7212  0.7953
 4287TIP3    H134276   6.150   5.961  16.980  0.6677 -1.8033  1.3165
 4287TIP3    H234277   6.123   5.843  16.890 -0.5080 -1.3235  1.0238
 4288TIP3   OH234278   1.302   1.081  11.996  0.0759 -0.0988  0.2296
 4288TIP3    H134279   1.303   0.993  11.958  0.3795 -0.2818  0.6484
 4288TIP3    H234280   1.392   1.096  12.024  0.3723  0.9504 -1.1914
 4289TIP3   OH234281   2.732   4.267  13.399 -0.2018 -0.0506 -0.7262
 4289TIP3    H134282   2.788   4.343  13.381 -1.4083  1.7596  2.2543
 4289TIP3    H234283   2.651   4.286  13.352 -0.0559 -0.1441 -1.0174
 4290TIP3   OH234284   2.805   3.229   6.569 -0.2169 -0.2468  0.4670
 4290TIP3    H134285   2.857   3.184   6.636  0.1409  1.9233  1.7700
 4290TIP3    H234286   2.868   3.256   6.503 -0.1321 -0.0233  0.6393
 4291TIP3   OH234287   3.042   0.792   2.656  0.1261  0.0870  0.2558
 4291TIP3    H134288   2.996   0.710   2.668 -0.9401  0.5371 -0.5675
 4291TIP3    H234289   3.042   0.833   2.742  1.2658 -1.0495  0.8298
 4292TIP3   OH234290   2.462   5.112   0.158  0.1106  0.0996 -0.0954
 4292TIP3    H134291   2.464   5.026   0.115  0.4997  1.1436 -2.3158
 4292TIP3    H234292   2.453   5.092   0.251  2.0715 -2.4085 -0.3364
 4293TIP3   OH234293   2.363   1.769  16.420 -0.2564  0.5120  0.5322
 4293TIP3    H134294   2.360   1.708  16.346 -0.1150 -0.7066  1.4818
 4293TIP3    H234295   2.403   1.848  16.384  1.1885 -0.5642 -0.3705
 4294TIP3   OH234296   0.627   5.701   1.296  0.0543 -0.3929  0.0709
 4294TIP3    H134297   0.544   5.671   1.332  0.5941 -1.5928  0.3750
 4294TIP3    H234298   0.603   5.757   1.222 -1.0283  0.1615  0.8179
 4295TIP3   OH234299   1.744   5.035  14.793  0.2721  0.0649  0.2632
 4295TIP3    H134300   1.837   5.028  14.815  0.4323  0.4505 -0.2845
 4295TIP3    H234301   1.735   4.987  14.711 -0.0591 -0.1708  0.4347
 4296TIP3   OH234302   2.189   1.382  11.975  0.2514  0.0447 -0.4880
 4296TIP3    H134303   2.138   1.452  12.016 -0.5468 -0.6982 -0.1797
 4296TIP3    H234304   2.278   1.393  12.009  0.2212  1.1348 -0.7449
 4297TIP3   OH234305   4.670   2.749   2.672  0.2478 -0.0371  0.0671
 4297TIP3    H134306   4.621   2.830   2.659 -0.1828 -0.2265  0.4830
 4297TIP3    H234307   4.762   2.776   2.677  0.2068  0.3077 -0.8286
 4298TIP3   OH234308   6.455   6.158   6.030  0.1868 -0.2936  0.0454
 4298TIP3    H134309   6.541   6.176   5.993  0.7852  0.6270  1.8018
 4298TIP3    H234310   6.462   6.070   6.068 -0.2930 -1.0513 -1.5276
 4299TIP3   OH234311   0.665   0.928  16.685  0.2437  0.2302  0.3156
 4299TIP3    H134312   0.676   0.838  16.656  0.7110  0.4562 -0.2198
 4299TIP3    H234313   0.595   0.924  16.750  1.9338 -0.9036  2.1559
 4300TIP3   OH234314   3.332   0.561  12.967 -0.0444  0.3146 -0.0146
 4300TIP3    H134315   3.384   0.581  12.890  0.3628 -0.5600  0.0213
 4300TIP3    H234316   3.242   0.553  12.934  0.3977 -2.2320 -0.8378
 4301TIP3   OH234317   0.014   4.591   0.032 -0.0264 -0.0226 -0.2715
 4301TIP3    H134318   0.000   4.672  -0.016 -3.6676 -1.1785 -1.5415
 4301TIP3    H234319   0.011   4.522  -0.035  1.4525 -1.3295  0.9306
 4302TIP3   OH234320   0.796   2.538  14.636  0.1411  0.6029  0.2420
 4302TIP3    H134321   0.757   2.582  14.560 -1.2844 -0.6899  0.1870
 4302TIP3    H234322   0.871   2.490  14.600 -0.8770 -0.4883 -0.5048
 4303TIP3   OH234323   6.463   1.230  16.628  0.0335  0.3637  0.3145
 4303TIP3    H134324   6.409   1.152  16.641  1.8666 -1.0706 -0.2665
 4303TIP3    H234325   6.416   1.282  16.563 -0.7516 -0.7449 -0.0197
 4304TIP3   OH234326   5.362   0.364  14.643  0.3913  0.0470 -0.4503
 4304TIP3    H134327   5.402   0.425  14.582  0.3352  1.2646  0.6790
 4304TIP3    H234328   5.434   0.334  14.698  0.1337  0.4677  0.1219
 4305TIP3   OH234329   6.533   0.800   0.501  0.0851  0.3465  0.8742
 4305TIP3    H134330   6.486   0.736   0.448 -0.2377  0.4197  1.0712
 4305TIP3    H234331   6.625   0.788   0.477 -0.1603  1.1176 -0.4825
 4306TIP3   OH234332   4.642   2.986   1.747 -0.3040 -0.1136  0.5663
 4306TIP3    H134333   4.631   3.059   1.809  0.1181  0.4316  0.0072
 4306TIP3    H234334   4.730   2.954   1.764  0.5509  1.2429 -0.9930
 4307TIP3   OH234335   4.738   0.855   3.625  0.0428 -0.2575 -0.1526
 4307TIP3    H134336   4.802   0.784   3.631 -0.6844 -0.8701  0.5507
 4307TIP3    H234337   4.654   0.812   3.610 -0.3805  0.4698  0.0420
 4308TIP3   OH234338   6.463   3.932   1.451 -0.4246  0.1168  0.1524
 4308TIP3    H134339   6.457   3.979   1.368  0.0303  0.5730  0.3658
 4308TIP3    H234340   6.373   3.917   1.478 -0.6210 -1.6664 -1.3112
 4309TIP3   OH234341   5.873   4.782  15.776 -0.0164 -0.0699  0.4571
 4309TIP3    H134342   5.783   4.783  15.745  0.0166 -1.1553  0.3063
 4309TIP3    H234343   5.879   4.703  15.831  0.4827  0.6905  1.5449
 4310TIP3   OH234344   0.643   0.769  11.596 -0.5208 -0.0438 -0.0010
 4310TIP3    H134345   0.603   0.856  11.601  0.1480  0.4315 -1.9643
 4310TIP3    H234346   0.733   0.786  11.568  0.3664 -1.2521  1.8643
 4311TIP3   OH234347   6.764   5.338  15.566 -0.3163 -0.3799  0.1455
 4311TIP3    H134348   6.725   5.320  15.652  1.9009  0.5233  1.4144
 4311TIP3    H234349   6.697   5.310  15.504 -3.5365  2.1682  2.1426
 4312TIP3   OH234350   1.862   5.278  11.077  1.4596  0.5289 -0.1767
 4312TIP3    H134351   1.787   5.220  11.091  1.9822  0.0647  0.8437
 4312TIP3    H234352   1.868   5.287  10.982 -1.3732  2.5453 -0.3068
 4313TIP3   OH234353   1.767   1.833   1.673  0.0479 -0.5534  0.1114
 4313TIP3    H134354   1.682   1.808   1.638 -1.2737  3.1722  0.2405
 4313TIP3    H234355   1.748   1.876   1.756  1.9588  0.6707 -0.0052
 4314TIP3   OH234356   4.278   6.415   4.526 -0.5753 -0.2665  0.5740
 4314TIP3    H134357   4.304   6.484   4.587  0.5015  0.9563 -1.1811
 4314TIP3    H234358   4.299   6.334   4.572  0.0005  0.6114  1.9213
 4315TIP3   OH234359   2.871   1.020  16.914 -0.0673 -0.0096  0.0794
 4315TIP3    H134360   2.873   0.998  16.820  0.0163  2.8278 -0.6699
 4315TIP3    H234361   2.781   1.049  16.929  0.4905  1.7130  0.2743
 4316TIP3   OH234362   5.064   2.459   0.309 -0.1571 -0.4233 -0.7120
 4316TIP3    H134363   5.040   2.429   0.397 -0.3047 -1.8772 -1.2153
 4316TIP3    H234364   5.029   2.548   0.304  0.4223 -0.0657  0.9196
 4317TIP3   OH234365   5.477   0.406   3.625  0.4752  0.2848 -0.4646
 4317TIP3    H134366   5.447   0.375   3.711  1.7119  0.8058  0.1808
 4317TIP3    H234367   5.491   0.325   3.575  0.7179 -0.0718  0.1652
 4318TIP3   OH234368   0.752   2.032  15.501  0.0135 -0.3299 -0.9239
 4318TIP3    H134369   0.676   2.031  15.443 -0.5535  1.1982 -0.2538
 4318TIP3    H234370   0.763   2.124  15.524 -0.4845 -0.9601  2.2636
 4319TIP3   OH234371   1.217   6.658  10.799 -0.0069  0.5041 -0.4141
 4319TIP3    H134372   1.186   6.602  10.728  1.3747  0.2949 -0.8757
 4319TIP3    H234373   1.310   6.673  10.780  0.8634 -0.8746  2.1539
 4320TIP3   OH234374   0.898   5.645   1.257 -0.3803 -0.6359  0.4453
 4320TIP3    H134375   0.909   5.599   1.340  0.5207 -0.4146  0.4502
 4320TIP3    H234376   0.831   5.594   1.211 -1.4500 -0.3472  1.5950
 4321TIP3   OH234377   4.073   0.461   0.267  0.4880  0.2838  0.0429
 4321TIP3    H134378   4.067   0.526   0.337  1.5492  1.7493 -1.1604
 4321TIP3    H234379   4.086   0.512   0.188 -0.1915 -1.3492 -1.1878
 4322TIP3   OH234380   5.012   5.979   3.157  0.0997 -0.0810 -0.0376
 4322TIP3    H134381   4.975   6.001   3.071 -0.0797  0.2640  0.1237
 4322TIP3    H234382   5.028   6.064   3.198 -1.6703 -0.2426  1.0664
 4323TIP3   OH234383   5.948   3.402   3.856 -0.0590  0.3294  0.0790
 4323TIP3    H134384   5.958   3.331   3.920 -2.5876  0.3934  0.6351
 4323TIP3    H234385   5.999   3.475   3.893 -0.0866 -0.1802  1.1570
 4324TIP3   OH234386   1.114   3.655  13.916 -0.1426 -0.8435  0.4950
 4324TIP3    H134387   1.114   3.747  13.889  3.3270 -1.3274 -1.8234
 4324TIP3    H234388   1.052   3.613  13.855  1.1590 -0.5514 -1.1107
 4325TIP3   OH234389   2.404   5.785   1.022  0.1706  0.4583 -0.2172
 4325TIP3    H134390   2.323   5.834   1.032 -0.5215 -0.5172 -0.8851
 4325TIP3    H234391   2.390   5.729   0.945  1.1514 -0.3386  0.1485
 4326TIP3   OH234392   3.464   4.776  16.916 -0.0770 -0.0258  0.2109
 4326TIP3    H134393   3.537   4.825  16.878 -2.0555  0.8238 -2.8352
 4326TIP3    H234394   3.392   4.788  16.854 -2.0727 -2.9600  1.7267
 4327TIP3   OH234395   0.419   3.957   4.135  0.0110 -0.1366 -0.0854
 4327TIP3    H134396   0.489   4.011   4.170 -1.1442  1.9934 -0.9102
 4327TIP3    H234397   0.342   3.980   4.186 -0.9225  0.4314 -1.6822
 4328TIP3   OH234398   1.007   0.433  14.160  0.5348  0.5133 -0.4916
 4328TIP3    H134399   0.955   0.391  14.093  1.3804  0.9779 -1.4641
 4328TIP3    H234400   1.097   0.411  14.139  0.7976  0.3323  0.7334
 4329TIP3   OH234401   5.931   0.551  16.189  0.4431 -0.0206  0.3166
 4329TIP3    H134402   5.901   0.600  16.113  0.8938  2.6051  1.7050
 4329TIP3    H234403   6.012   0.510  16.160  0.6968  1.0671 -0.5992
 4330TIP3   OH234404   4.346   1.656  14.130 -0.0986  0.6380  0.3054
 4330TIP3    H134405   4.281   1.606  14.081  0.7906  0.7102 -0.9868
 4330TIP3    H234406   4.335   1.746  14.100 -0.6181  0.9614  1.4380
 4331TIP3   OH234407   2.386   5.865   3.997  0.1943 -0.5255  0.3422
 4331TIP3    H134408   2.362   5.790   4.052  0.1207 -1.2629 -0.6629
 4331TIP3    H234409   2.333   5.855   3.918  1.0801 -0.0940 -0.3310
 4332TIP3   OH234410   5.166   0.533   5.275 -0.3025  0.1550  0.1014
 4332TIP3    H134411   5.164   0.627   5.295  0.0495  0.0745  0.5333
 4332TIP3    H234412   5.258   0.509   5.283 -0.1818  0.0578 -1.4138
 4333TIP3   OH234413   5.019   3.360   3.949 -0.0671 -0.4494  0.5149
 4333TIP3    H134414   4.992   3.298   4.017 -2.1339 -0.2868 -0.0901
 4333TIP3    H234415   5.018   3.445   3.994 -1.0028 -0.3970  0.4220
 4334TIP3   OH234416   2.154   2.557   6.248 -0.1917  0.2454  0.1298
 4334TIP3    H134417   2.225   2.620   6.263  0.7947 -0.9717  0.6541
 4334TIP3    H234418   2.197   2.480   6.211 -1.3572 -0.2173 -0.3097
 4335TIP3   OH234419   6.506   5.238   4.779  0.0806  0.3528  0.0986
 4335TIP3    H134420   6.474   5.150   4.799 -1.5592  0.7087 -0.7504
 4335TIP3    H234421   6.588   5.246   4.828 -0.0506 -1.4130  0.6727
 4336TIP3   OH234422   2.025   1.871   5.523  0.0775 -0.5793 -0.0635
 4336TIP3    H134423   1.959   1.937   5.547 -0.0877 -0.7768  0.0252
 4336TIP3    H234424   2.063   1.844   5.607 -1.3224 -2.1401  0.1160
 4337TIP3   OH234425   3.829   5.901   2.544 -0.4579  0.4157  0.3490
 4337TIP3    H134426   3.764   5.968   2.523 -0.4498  0.4467  0.4259
 4337TIP3    H234427   3.788   5.819   2.514 -0.8507  0.3383  1.0711
 4338TIP3   OH234428   1.044   0.699  14.209  0.4498 -0.9202 -0.2179
 4338TIP3    H134429   1.096   0.719  14.287  0.2992 -2.6019  0.3541
 4338TIP3    H234430   1.031   0.604  14.213 -3.2102 -0.5318  0.0428
 4339TIP3   OH234431   1.688   3.252  11.199  0.0102  0.3165  0.6338
 4339TIP3    H134432   1.770   3.242  11.151 -1.3428  1.3195 -2.1218
 4339TIP3    H234433   1.689   3.343  11.229 -0.9354  1.0541 -1.3471
 4340TIP3   OH234434   6.570   3.107   0.829  0.3317  0.2181 -0.1040
 4340TIP3    H134435   6.511   3.039   0.797 -0.5761  0.6965  0.5089
 4340TIP3    H234436   6.584   3.085   0.922  1.2699  0.0115 -0.2809
 4341TIP3   OH234437   4.366   6.245  10.949  0.2006 -0.0045  0.3434
 4341TIP3    H134438   4.363   6.176  10.883  0.5108  0.5928 -0.3049
 4341TIP3    H234439   4.381   6.326  10.899  0.7476  0.4143  1.1675
 4342TIP3   OH234440   0.936   6.351  14.478  0.4802 -0.3414  0.3105
 4342TIP3    H134441   0.964   6.347  14.387  1.5119  0.9490  0.5423
 4342TIP3    H234442   0.990   6.286  14.523  0.7790 -0.1709  0.1969
 4343TIP3   OH234443   4.544   1.679  14.385  0.1085 -0.1651  0.3844
 4343TIP3    H134444   4.576   1.673  14.475  3.7197  0.2311 -0.7256
 4343TIP3    H234445   4.525   1.588  14.361  1.3669 -0.5640  0.8369
 4344TIP3   OH234446   6.509   3.847  16.956 -0.2756 -0.2224  0.0523
 4344TIP3    H134447   6.578   3.888  17.007 -0.6776  2.6068 -1.4720
 4344TIP3    H234448   6.431   3.899  16.975 -1.6125 -2.2309  0.3576
 4345TIP3   OH234449   2.281   6.428   3.280  0.2854 -0.0734  0.2993
 4345TIP3    H134450   2.260   6.379   3.360  1.3484 -1.5536 -0.2771
 4345TIP3    H234451   2.327   6.506   3.312 -0.4114 -0.0023  1.1840
 4346TIP3   OH234452   3.287   4.422  15.836  0.3516 -0.6414 -0.3454
 4346TIP3    H134453   3.230   4.384  15.903  1.2500  0.5466  1.1984
 4346TIP3    H234454   3.230   4.478  15.784  0.0961  0.7620  1.3570
 4347TIP3   OH234455   1.648   1.496   5.798  0.3035  0.6968 -0.2422
 4347TIP3    H134456   1.553   1.511   5.799  0.3357  0.8867 -0.0541
 4347TIP3    H234457   1.682   1.550   5.869  0.5846  0.8344 -0.4775
 4348TIP3   OH234458   1.066   2.170   3.771 -0.2808  0.3633  0.2611
 4348TIP3    H134459   1.152   2.129   3.761  0.8621  2.7800 -0.8736
 4348TIP3    H234460   1.021   2.151   3.689 -1.0209 -1.1577  0.9733
 4349TIP3   OH234461   1.027   1.688  14.357 -0.0475 -0.4199  0.0219
 4349TIP3    H134462   1.082   1.669  14.433  1.4663  1.5082 -0.4953
 4349TIP3    H234463   1.089   1.697  14.284 -1.4077 -1.6251 -1.3567
 4350TIP3   OH234464   2.499   6.279   4.556 -0.3695 -0.0831  0.3511
 4350TIP3    H134465   2.473   6.370   4.571  0.9218  0.7713 -1.9749
 4350TIP3    H234466   2.593   6.278   4.573 -0.3003 -0.8691 -0.0422
 4351TIP3   OH234467   4.974   0.242  13.134  0.5545 -0.5918  0.3182
 4351TIP3    H134468   5.060   0.202  13.136  0.2943 -1.1874 -0.0281
 4351TIP3    H234469   4.917   0.179  13.178 -0.3215 -1.7914 -2.3201
 4352TIP3   OH234470   3.371   1.776   1.663  0.2032  0.4039 -0.3954
 4352TIP3    H134471   3.382   1.744   1.574 -1.5368 -3.0994  0.4595
 4352TIP3    H234472   3.288   1.824   1.661  0.4572  0.8312 -0.7718
 4353TIP3   OH234473   3.703   3.388  14.328  0.0180 -0.3355 -0.4437
 4353TIP3    H134474   3.716   3.482  14.342 -0.1297 -0.2054 -1.1428
 4353TIP3    H234475   3.623   3.382  14.276  1.5580 -0.6270 -2.9859
 4354TIP3   OH234476   4.136   3.595   5.373 -0.3107 -0.5317 -0.2451
 4354TIP3    H134477   4.121   3.548   5.291  0.5760 -0.4234 -0.4871
 4354TIP3    H234478   4.193   3.537   5.424 -0.1023 -0.1990 -0.0942
 4355TIP3   OH234479   3.879   2.800   2.193 -0.7616  0.6269 -0.2239
 4355TIP3    H134480   3.910   2.715   2.163  2.1914  1.3905  0.3314
 4355TIP3    H234481   3.822   2.831   2.123 -1.5551 -1.5666 -0.6307
 4356TIP3   OH234482   1.910   5.511  13.101  0.0066  0.4955  0.0024
 4356TIP3    H134483   1.928   5.533  13.192  2.0862 -0.5308 -0.0868
 4356TIP3    H234484   1.965   5.434  13.084  0.5239  1.3074 -2.4036
 4357TIP3   OH234485   5.408   6.701  13.325 -0.1859 -0.0482 -0.3521
 4357TIP3    H134486   5.377   6.726  13.412  1.1814  2.2041 -0.4203
 4357TIP3    H234487   5.497   6.736  13.320 -0.8937  1.7328 -3.3358
 4358TIP3   OH234488   2.184   6.646   1.853  0.2385  0.1481  0.4216
 4358TIP3    H134489   2.089   6.657   1.842  0.3357  1.3120  0.6246
 4358TIP3    H234490   2.219   6.654   1.765  0.2739  1.3170  0.5202
 4359TIP3   OH234491   1.434   1.518   2.599 -0.2803  0.2457  0.5504
 4359TIP3    H134492   1.387   1.568   2.665 -1.2491 -0.1456  0.1677
 4359TIP3    H234493   1.403   1.428   2.610  1.2669 -0.2532  1.0745
 4360TIP3   OH234494   6.321   1.542  11.242 -0.4967 -0.4265 -0.0018
 4360TIP3    H134495   6.270   1.572  11.166 -0.2334 -0.3362 -0.1460
 4360TIP3    H234496   6.334   1.621  11.295  0.2135 -0.2681 -0.3911
 4361TIP3   OH234497   0.480   5.100  16.387 -0.0914 -0.0071 -0.2348
 4361TIP3    H134498   0.456   5.185  16.351 -0.9518 -0.2889 -0.3505
 4361TIP3    H234499   0.532   5.121  16.465  1.0753  0.6025 -1.1505
 4362TIP3   OH234500   2.833   0.169   1.593 -0.2680  0.4663  0.0914
 4362TIP3    H134501   2.810   0.087   1.635  2.1769 -0.5495 -0.3793
 4362TIP3    H234502   2.873   0.222   1.662  0.2950  0.3125 -0.1126
 4363TIP3   OH234503   0.443   6.633   5.238 -0.2259  0.1720  0.2627
 4363TIP3    H134504   0.484   6.677   5.313  1.4187 -0.4729 -0.2377
 4363TIP3    H234505   0.430   6.703   5.174 -0.1562  0.4285  0.5236
 4364TIP3   OH234506   4.859   5.847  16.626  0.4596 -0.3271  0.5088
 4364TIP3    H134507   4.834   5.873  16.537  0.9294 -1.6733 -0.0355
 4364TIP3    H234508   4.794   5.781  16.651  0.5588 -0.2371  1.0177
 4365TIP3   OH234509   6.415   2.502  15.295  0.3371 -0.3433 -0.1608
 4365TIP3    H134510   6.361   2.524  15.371 -1.4322 -0.8025 -1.2373
 4365TIP3    H234511   6.469   2.428  15.325  0.4344  0.1579  0.9501
 4366TIP3   OH234512   4.377   0.795   1.386 -0.3628 -0.3251 -0.1251
 4366TIP3    H134513   4.283   0.813   1.391 -0.2246  0.1302  1.4315
 4366TIP3    H234514   4.409   0.854   1.318 -1.1044  0.0072 -0.1941
 4367TIP3   OH234515   6.352   2.074   2.532  0.4003 -0.3605 -0.0476
 4367TIP3    H134516   6.326   2.155   2.488  2.1337  0.9257  1.1287
 4367TIP3    H234517   6.438   2.053   2.496  0.4362 -1.0741  0.4337
 4368TIP3   OH234518   0.543   6.733  17.099 -0.2216 -0.5472  0.8497
 4368TIP3    H134519   0.564   6.661  17.039 -1.5772 -0.8780  0.7369
 4368TIP3    H234520   0.556   6.812  17.047  0.9037 -0.7101  0.8542
 4369TIP3   OH234521   2.448   6.167  12.797  0.1420  0.5622  0.8092
 4369TIP3    H134522   2.375   6.105  12.795  0.8752 -0.3446 -2.4089
 4369TIP3    H234523   2.406   6.252  12.812 -1.5441 -0.0115 -0.3831
 4370TIP3   OH234524   3.421   1.008  12.481 -0.4256 -0.2103  0.0568
 4370TIP3    H134525   3.382   0.957  12.552 -0.8223 -0.9139 -0.6361
 4370TIP3    H234526   3.479   0.946  12.436  0.3356  0.4118  0.1642
 4371TIP3   OH234527   4.444   1.366  14.048 -0.9564  0.0620 -0.1623
 4371TIP3    H134528   4.488   1.295  14.094 -0.7560  0.4931  0.3293
 4371TIP3    H234529   4.358   1.372  14.089 -0.4623  1.0247  0.7955
 4372TIP3   OH234530   2.015   0.849   3.864 -0.1247 -0.2414 -0.1395
 4372TIP3    H134531   2.100   0.874   3.899 -0.4262 -0.4150  0.7471
 4372TIP3    H234532   2.024   0.756   3.843 -0.1911 -0.3382  0.2574
 4373TIP3   OH234533   3.574   5.090  11.122 -0.1963  0.3158 -0.1327
 4373TIP3    H134534   3.527   5.082  11.039 -1.7141 -0.4290  0.7401
 4373TIP3    H234535   3.602   5.000  11.142 -1.7493  0.0668  1.1596
 4374TIP3   OH234536   2.994   4.994  15.589 -0.1855  0.1501 -0.7375
 4374TIP3    H134537   3.080   4.985  15.629  0.4610  2.9201 -1.2687
 4374TIP3    H234538   2.939   5.030  15.658 -0.3733  0.2883 -0.9554
 4375TIP3   OH234539   4.446   0.572  16.463  0.1942 -0.1188 -0.3003
 4375TIP3    H134540   4.425   0.487  16.501  0.9217 -0.5918 -0.9345
 4375TIP3    H234541   4.530   0.559  16.419  0.8713  1.2023  0.5096
 4376TIP3   OH234542   3.571   3.753   5.773  0.0447  0.0853  0.3203
 4376TIP3    H134543   3.536   3.686   5.832 -1.1536  1.3398  1.0722
 4376TIP3    H234544   3.498   3.774   5.715  0.6724  0.1666 -0.4492
 4377TIP3   OH234545   5.052   4.244  10.565  0.3058 -0.4519 -0.2905
 4377TIP3    H134546   5.062   4.164  10.513  0.8633  0.2593 -1.3207
 4377TIP3    H234547   5.104   4.310  10.518  0.4420  0.3445  0.9193
 4378TIP3   OH234548   0.232   1.551  13.142  0.1134 -0.0810  0.5844
 4378TIP3    H134549   0.314   1.589  13.110 -0.0449  0.4579  0.8262
 4378TIP3    H234550   0.189   1.518  13.063  0.0917  0.5400  0.3346
 4379TIP3   OH234551   2.880   4.112  16.268  0.2596 -0.0218 -0.1055
 4379TIP3    H134552   2.806   4.139  16.323 -0.4004 -0.6613 -0.6474
 4379TIP3    H234553   2.918   4.037  16.313 -0.1693 -0.4342 -0.4219
 4380TIP3   OH234554   4.930   6.666  13.056 -0.3959  0.2617 -0.3583
 4380TIP3    H134555   5.000   6.697  13.115  1.2420 -0.3579 -1.8847
 4380TIP3    H234556   4.933   6.571  13.064 -1.6275  0.2516  0.1365
 4381TIP3   OH234557   0.528   3.678  15.494 -0.5605  0.2582 -0.4828
 4381TIP3    H134558   0.511   3.751  15.434 -1.7361  0.9069  0.6101
 4381TIP3    H234559   0.619   3.654  15.476 -0.7147  0.7475 -2.1740
 4382TIP3   OH234560   4.127   1.365   3.277  0.0985 -0.0793 -0.0835
 4382TIP3    H134561   4.169   1.427   3.217 -0.2995  0.4768  0.2029
 4382TIP3    H234562   4.036   1.362   3.249  0.1997 -0.8837 -0.3696
 4383TIP3   OH234563   3.428   5.317  12.445 -0.0618  0.4923  0.3901
 4383TIP3    H134564   3.404   5.410  12.452 -0.0178  0.4644  0.9509
 4383TIP3    H234565   3.393   5.277  12.524  2.0302  0.4926  1.3854
 4384TIP3   OH234566   0.396   1.656  12.702  0.3678 -0.3303  0.1239
 4384TIP3    H134567   0.411   1.617  12.788  0.2253  0.2008  0.3980
 4384TIP3    H234568   0.366   1.584  12.647 -1.0066 -0.3835  0.9168
 4385TIP3   OH234569   5.943   0.172  13.110  0.5422 -0.3459 -0.3685
 4385TIP3    H134570   5.893   0.179  13.028 -0.2953 -1.8780 -0.0202
 4385TIP3    H234571   5.958   0.079  13.121  0.5629 -0.1684  1.2850
 4386TIP3   OH234572   5.501   2.610   1.658  0.0530 -0.2360 -0.2196
 4386TIP3    H134573   5.486   2.520   1.686  2.1717  0.0937  2.3913
 4386TIP3    H234574   5.597   2.619   1.657 -0.1061  2.0366 -0.1844
 4387TIP3   OH234575   1.168   2.602  15.315  0.3946 -0.7861  0.2011
 4387TIP3    H134576   1.261   2.614  15.300 -0.1871  0.6250 -3.1559
 4387TIP3    H234577   1.140   2.538  15.250 -0.6748 -3.1837  2.7925
 4388TIP3   OH234578   2.054   5.759   6.391 -0.3501 -0.5600  0.3808
 4388TIP3    H134579   2.117   5.688   6.407 -0.0180 -0.3028  0.2317
 4388TIP3    H234580   2.109   5.835   6.369 -0.6137  0.1534  2.0041
 4389TIP3   OH234581   4.024   0.085   3.973 -0.0276 -0.3747  0.1618
 4389TIP3    H134582   4.100   0.061   3.920 -1.2483 -2.4394 -0.7779
 4389TIP3    H234583   4.001   0.173   3.942 -0.2893 -1.2305 -2.3526
 4390TIP3   OH234584   1.403   3.915   2.464  0.9361  0.3640 -0.6681
 4390TIP3    H134585   1.320   3.959   2.482  0.9550 -0.0478  0.5465
 4390TIP3    H234586   1.385   3.822   2.481  2.2646  0.5321  2.2552
 4391TIP3   OH234587   5.162   3.980   2.869 -0.4661 -0.2015  0.4550
 4391TIP3    H134588   5.105   3.932   2.809  0.3767 -1.4669  0.6340
 4391TIP3    H234589   5.251   3.962   2.838 -0.1033  0.8453  0.8338
 4392TIP3   OH234590   3.519   6.391  10.507  0.3711 -0.6470  0.5055
 4392TIP3    H134591   3.478   6.444  10.575  0.3861 -1.3245  1.0482
 4392TIP3    H234592   3.570   6.325  10.554  1.4967 -0.2932 -0.1549
 4393TIP3   OH234593   2.817   3.119   0.474 -0.0752  0.1527 -0.0681
 4393TIP3    H134594   2.736   3.074   0.447  0.0804 -0.3543  0.3068
 4393TIP3    H234595   2.885   3.078   0.421 -0.3453  2.2045 -2.1661
 4394TIP3   OH234596   3.499   5.780   4.964 -0.3423  0.3600  0.1140
 4394TIP3    H134597   3.584   5.772   4.923 -1.0506 -0.0149 -1.3345
 4394TIP3    H234598   3.493   5.873   4.988  0.0139  0.6409 -0.8303
 4395TIP3   OH234599   4.947   3.416   1.424 -0.0242  0.0921 -0.4164
 4395TIP3    H134600   5.035   3.381   1.414  0.2190  0.9306 -1.3564
 4395TIP3    H234601   4.923   3.396   1.515  0.4187 -1.7194 -0.6594
 4396TIP3   OH234602   2.800   0.859   4.177 -0.3320  0.1719 -0.0960
 4396TIP3    H134603   2.884   0.816   4.190 -0.7202  0.2266  4.1170
 4396TIP3    H234604   2.739   0.788   4.155  0.0882 -0.5920  1.1113
 4397TIP3   OH234605   1.138   0.751   4.548  0.3729  0.0183  0.1511
 4397TIP3    H134606   1.178   0.727   4.632 -0.9016 -1.0371  0.4941
 4397TIP3    H234607   1.052   0.710   4.550 -0.0905  0.8474 -1.2528
 4398TIP3   OH234608   5.115   5.558  14.194  0.3861  0.7997  0.6230
 4398TIP3    H134609   5.180   5.611  14.239  1.2695  0.8277 -0.6391
 4398TIP3    H234610   5.119   5.587  14.102 -0.7613  0.1748  0.3549
 4399TIP3   OH234611   4.115   1.352   0.925 -0.6296  0.5651  0.6793
 4399TIP3    H134612   4.171   1.408   0.871  0.8822 -2.1593 -0.8029
 4399TIP3    H234613   4.030   1.354   0.882  0.7027 -2.0814 -2.4970
 4400TIP3   OH234614   2.770   0.566   2.068 -0.7388 -0.6195 -0.0445
 4400TIP3    H134615   2.773   0.638   2.132 -1.9392  1.1454 -1.8714
 4400TIP3    H234616   2.862   0.551   2.045 -0.4522  0.1456  0.5620
 4401TIP3   OH234617   2.219   6.662   1.584 -0.6583 -1.0940 -0.6706
 4401TIP3    H134618   2.231   6.750   1.547 -0.8135 -0.3945  0.8945
 4401TIP3    H234619   2.270   6.605   1.526  0.9707  0.2773 -0.6360
 4402TIP3   OH234620   4.462   5.311  10.727 -0.3765  0.1436 -0.3384
 4402TIP3    H134621   4.404   5.375  10.686 -1.2979  0.2264  1.0251
 4402TIP3    H234622   4.539   5.362  10.754 -0.4255  0.3711 -0.6347
 4403TIP3   OH234623   1.107   3.175  11.538 -0.3899 -0.1418 -0.5550
 4403TIP3    H134624   1.011   3.175  11.539 -0.4103  1.4491 -0.6434
 4403TIP3    H234625   1.131   3.145  11.626 -0.9927  0.3821 -0.1915
 4404TIP3   OH234626   1.003   4.479  15.832 -0.5391  0.2853  0.3947
 4404TIP3    H134627   1.056   4.516  15.903 -0.5105  0.8787  0.0682
 4404TIP3    H234628   1.061   4.418  15.787 -0.6317 -0.2875  1.0294
 4405TIP3   OH234629   0.817   1.838   2.756 -0.3841  0.2367 -0.3830
 4405TIP3    H134630   0.769   1.856   2.837  0.2941 -0.7647  0.2781
 4405TIP3    H234631   0.897   1.891   2.764 -1.2115  1.6945 -1.3563
 4406TIP3   OH234632   1.874   1.670  12.426 -0.3217  0.5702  0.1458
 4406TIP3    H134633   1.804   1.712  12.376 -0.3432  1.1176  0.6288
 4406TIP3    H234634   1.843   1.580  12.438  0.3635 -0.0393 -2.1070
 4407TIP3   OH234635   0.977   5.828   2.540  0.0007  0.3893 -0.6142
 4407TIP3    H134636   1.028   5.898   2.500  0.5639  0.4629  0.2034
 4407TIP3    H234637   1.034   5.750   2.533  0.4507  0.5706  0.7095
 4408TIP3   OH234638   6.050   2.328   0.036  0.1725 -0.1749 -0.2455
 4408TIP3    H134639   6.020   2.307   0.124  3.6965 -1.6078  0.8262
 4408TIP3    H234640   6.055   2.243  -0.008 -0.5000  0.4004 -1.4657
 4409TIP3   OH234641   3.037   6.240  14.122 -0.3864 -0.1937 -0.1319
 4409TIP3    H134642   3.050   6.228  14.027  0.0339 -0.4086 -0.0503
 4409TIP3    H234643   3.119   6.277  14.153 -0.3869 -0.4771  0.2106
 4410TIP3   OH234644   6.156   5.079  14.980 -0.1445 -0.1810 -0.3982
 4410TIP3    H134645   6.240   5.125  14.976  0.6615 -1.5953 -0.5607
 4410TIP3    H234646   6.094   5.145  15.008  1.4937  0.3562  2.4285
 4411TIP3   OH234647   6.752   6.186   5.459  0.7249 -0.1897 -0.0362
 4411TIP3    H134648   6.807   6.207   5.534  0.1300  0.7178  0.1681
 4411TIP3    H234649   6.813   6.177   5.386  1.3984 -1.8902  0.6859
 4412TIP3   OH234650   5.940   1.965   0.904 -0.4808  0.0755  0.3509
 4412TIP3    H134651   6.028   1.945   0.935 -0.5866 -1.1684 -0.0784
 4412TIP3    H234652   5.917   1.891   0.848 -1.5921  0.6426  0.0222
 4413TIP3   OH234653   6.305   3.686  16.183  0.2507  0.3831  0.2096
 4413TIP3    H134654   6.361   3.679  16.261  0.9547  0.9286 -0.2395
 4413TIP3    H234655   6.362   3.723  16.116 -0.2820 -0.3112 -0.6446
 4414TIP3   OH234656   2.594   6.055   3.116 -0.3170  0.9695  0.2622
 4414TIP3    H134657   2.530   6.004   3.166  1.1057  0.1111  1.2894
 4414TIP3    H234658   2.606   6.135   3.166  0.6902  0.3564  1.0303
 4415TIP3   OH234659   1.899   5.697  16.093  0.2284  0.6215 -0.4582
 4415TIP3    H134660   1.829   5.635  16.071  1.3300 -1.0415  0.5172
 4415TIP3    H234661   1.863   5.748  16.166  0.6574 -1.5455  1.3720
 4416TIP3   OH234662   5.793   4.425   3.603  0.4894  0.3977 -0.3692
 4416TIP3    H134663   5.821   4.512   3.631  0.7270  1.2547 -3.0609
 4416TIP3    H234664   5.850   4.365   3.652  2.8352  1.8956 -1.1347
 4417TIP3   OH234665   5.700   3.162   2.529 -0.2563  0.4115 -0.4775
 4417TIP3    H134666   5.691   3.171   2.434 -0.2836  1.0241 -0.4204
 4417TIP3    H234667   5.622   3.115   2.556 -0.0057 -0.2151 -0.8178
 4418TIP3   OH234668   2.249   2.803   2.124  0.3503  0.1073 -0.6037
 4418TIP3    H134669   2.303   2.801   2.203  0.8683  2.4209 -0.8253
 4418TIP3    H234670   2.180   2.738   2.140 -0.4804  1.5430  2.4534
 4419TIP3   OH234671   1.805   4.601  15.400 -0.6430  0.0901  0.5720
 4419TIP3    H134672   1.845   4.683  15.426  0.8888 -0.4455  0.0129
 4419TIP3    H234673   1.742   4.625  15.332 -0.1540  0.7894  0.3626
 4420TIP3   OH234674   3.660   4.631  11.375  0.2924  0.3946 -0.4835
 4420TIP3    H134675   3.729   4.591  11.321 -1.0891 -2.6997 -0.1922
 4420TIP3    H234676   3.683   4.606  11.465  0.1042  1.5122 -0.1149
 4421TIP3   OH234677   1.509   2.659  12.027  0.0380 -0.2557  0.2440
 4421TIP3    H134678   1.564   2.719  12.077  0.5339 -0.6626  0.1896
 4421TIP3    H234679   1.498   2.583  12.085  0.8442 -0.8475 -0.3590
 4422TIP3   OH234680   3.296   0.563  12.073  0.4628 -0.4146  0.1541
 4422TIP3    H134681   3.244   0.489  12.042  1.5681 -1.8496  1.5770
 4422TIP3    H234682   3.386   0.532  12.072  0.7616  0.1707  2.6799
 4423TIP3   OH234683   1.703   3.754  12.348  0.5189 -0.6949 -0.5422
 4423TIP3    H134684   1.621   3.705  12.360 -0.3599  0.7242 -0.5531
 4423TIP3    H234685   1.765   3.710  12.406  0.0976 -2.5381 -1.4252
 4424TIP3   OH234686   2.303   1.242  14.549  0.3587  0.0339  0.1300
 4424TIP3    H134687   2.343   1.189  14.618  0.4069  1.5585  1.3372
 4424TIP3    H234688   2.219   1.200  14.533  0.8768 -1.0747  0.2096
 4425TIP3   OH234689   3.408   5.604  13.911 -0.0690  0.1695 -0.1307
 4425TIP3    H134690   3.341   5.671  13.925 -1.6619 -1.1842 -0.8881
 4425TIP3    H234691   3.482   5.652  13.874 -0.7208  1.6768  0.4136
 4426TIP3   OH234692   3.381   1.599  14.002 -0.0421  0.6296 -0.2820
 4426TIP3    H134693   3.325   1.612  13.925 -1.1361 -2.1137 -0.0717
 4426TIP3    H234694   3.461   1.559  13.967 -0.1144  0.3431 -0.1251
 4427TIP3   OH234695   1.391   6.033   4.133  0.3845 -0.3664 -0.6893
 4427TIP3    H134696   1.298   6.014   4.141  0.0135  0.6314 -2.1842
 4427TIP3    H234697   1.434   5.969   4.189 -1.1978 -0.8279  0.0390
 4428TIP3   OH234698   0.410   6.770  16.132  0.0059 -0.0334  0.1003
 4428TIP3    H134699   0.414   6.864  16.116 -1.2758  0.2716  1.3752
 4428TIP3    H234700   0.372   6.734  16.052 -0.2274  0.6248 -0.0899
 4429TIP3   OH234701   4.733   0.657  15.385  0.1137 -0.3519  0.2145
 4429TIP3    H134702   4.792   0.619  15.319 -0.5353 -1.1061  0.0511
 4429TIP3    H234703   4.742   0.752  15.373 -0.9174 -0.4576 -1.8437
 4430TIP3   OH234704   4.513   0.756  15.064 -0.1676 -0.2584  0.5360
 4430TIP3    H134705   4.461   0.795  14.993  1.3228  2.1460  0.6736
 4430TIP3    H234706   4.465   0.778  15.144 -0.9381 -1.4812  0.4450
 4431TIP3   OH234707   1.097   5.342   3.543 -0.0659 -0.5179  0.0683
 4431TIP3    H134708   1.108   5.373   3.453 -1.8708 -0.2757 -0.1141
 4431TIP3    H234709   1.186   5.325   3.574  0.7602  1.3605 -1.0699
 4432TIP3   OH234710   2.588   2.856  14.259 -0.0782  0.3651  0.2073
 4432TIP3    H134711   2.493   2.854  14.267 -0.1335  0.1246 -0.4659
 4432TIP3    H234712   2.604   2.872  14.166  0.5381  0.9544  0.4054
 4433TIP3   OH234713   0.762   1.910  13.100 -0.1869 -0.1737  0.4077
 4433TIP3    H134714   0.762   1.966  13.178  0.3044 -2.5346  2.2037
 4433TIP3    H234715   0.854   1.888  13.087 -0.3715 -0.5539 -0.3077
 4434TIP3   OH234716   1.232   5.217  14.339 -0.5034 -0.3977 -0.3102
 4434TIP3    H134717   1.282   5.195  14.418  0.6420 -0.1194 -0.9376
 4434TIP3    H234718   1.212   5.133  14.299 -1.4062 -0.5611  0.4500
 4435TIP3   OH234719   0.076   6.478   5.403 -0.1836  0.1413  0.1346
 4435TIP3    H134720   0.054   6.475   5.497  0.9673 -0.1865  0.4104
 4435TIP3    H234721   0.021   6.410   5.364 -1.2460  0.8027  0.4320
 4436TIP3   OH234722   2.240   4.366   5.967  0.0661  0.0328 -0.5368
 4436TIP3    H134723   2.319   4.319   5.992  0.7840  1.3826 -0.1744
 4436TIP3    H234724   2.218   4.420   6.043 -0.6556  0.3944 -0.9809
 4437TIP3   OH234725   1.783   4.303  14.241  0.1910 -0.1352  0.4008
 4437TIP3    H134726   1.796   4.398  14.243 -1.6698  0.1481  0.5448
 4437TIP3    H234727   1.692   4.290  14.266  0.5798 -2.0192  1.0705
 4438TIP3   OH234728   4.469   4.929   4.681  0.6520  0.5020  0.4927
 4438TIP3    H134729   4.469   5.013   4.727  0.1786  0.8355 -0.1023
 4438TIP3    H234730   4.468   4.953   4.589 -0.5499 -0.1596  0.3262
 4439TIP3   OH234731   0.464   5.621  11.559 -0.6156  0.4689  0.1522
 4439TIP3    H134732   0.507   5.536  11.563 -1.5650  0.0000  0.6764
 4439TIP3    H234733   0.436   5.639  11.649 -1.0037  1.0254 -0.0704
 4440TIP3   OH234734   3.483   1.867   3.477  0.4853  0.4992 -0.4877
 4440TIP3    H134735   3.491   1.773   3.495 -0.4890  0.1226 -1.8047
 4440TIP3    H234736   3.396   1.876   3.438  1.0877  1.7272 -1.6207
 4441TIP3   OH234737   5.614   6.086   4.571  0.3452  0.2190  0.2104
 4441TIP3    H134738   5.612   5.997   4.604  2.2479  0.9632  2.6238
 4441TIP3    H234739   5.657   6.080   4.486  1.4384 -1.0664  0.8190
 4442TIP3   OH234740   1.159   6.197   2.980  0.4053 -0.1250 -0.0329
 4442TIP3    H134741   1.154   6.159   3.067  2.1128 -0.2189  0.0455
 4442TIP3    H234742   1.106   6.276   2.985  0.4153 -0.1825  1.0475
 4443TIP3   OH234743   0.134   2.306  13.908  0.0512  0.0305  0.4688
 4443TIP3    H134744   0.158   2.286  13.998 -0.9850  2.6930  1.4237
 4443TIP3    H234745   0.067   2.241  13.885  0.8593 -1.1315  1.3063
 4444TIP3   OH234746   0.054   4.935  13.549  0.6520  0.1350  0.3972
 4444TIP3    H134747  -0.001   4.864  13.581  0.9235 -0.0777  0.3942
 4444TIP3    H234748   0.133   4.931  13.602  1.1339 -0.2625 -0.3260
 4445TIP3   OH234749   6.280   1.542   0.617 -0.2262 -0.2255  0.1630
 4445TIP3    H134750   6.264   1.609   0.684 -0.1553  1.0325 -1.0268
 4445TIP3    H234751   6.207   1.551   0.556 -1.4960 -2.8383  1.1430
 4446TIP3   OH234752   1.008   6.429   5.108 -0.4482 -0.0917  0.4332
 4446TIP3    H134753   0.945   6.474   5.165 -1.6529 -1.7097  0.4463
 4446TIP3    H234754   0.974   6.443   5.019 -0.1634  0.0327  0.3446
 4447TIP3   OH234755   3.661   6.208  11.816 -0.2567  0.4836 -0.2842
 4447TIP3    H134756   3.659   6.251  11.901 -0.2523 -2.0091  1.0595
 4447TIP3    H234757   3.754   6.205  11.793 -0.1194 -0.0194  0.3013
 4448TIP3   OH234758   0.898   4.193   2.831  0.0798 -0.0791  0.2378
 4448TIP3    H134759   0.829   4.249   2.867 -0.0875 -0.2359  0.1601
 4448TIP3    H234760   0.868   4.172   2.743 -0.2665 -1.0016  0.5725
 4449TIP3   OH234761   4.249   0.414  11.519  0.2990 -0.0457  0.0899
 4449TIP3    H134762   4.298   0.473  11.576 -0.0193  1.5781 -1.2331
 4449TIP3    H234763   4.244   0.460  11.435 -0.0080 -1.9610 -1.0011
 4450TIP3   OH234764   1.054   3.529   1.579 -0.1414 -0.0606  0.2975
 4450TIP3    H134765   0.991   3.558   1.513  1.2763  1.5871 -0.4003
 4450TIP3    H234766   1.031   3.577   1.658 -0.4455 -0.3342  0.3796
 4451TIP3   OH234767   1.495   2.951   0.962  0.6349 -0.0140  0.6561
 4451TIP3    H134768   1.420   2.904   0.927  0.9666 -1.9241  2.3449
 4451TIP3    H234769   1.556   2.956   0.888 -1.0091  1.4412 -0.6927
 4452TIP3   OH234770   3.461   1.567  16.430 -0.5116 -0.4614  0.6707
 4452TIP3    H134771   3.482   1.494  16.489 -2.0436 -1.1264  0.4356
 4452TIP3    H234772   3.366   1.562  16.418 -0.8332  2.1671  1.4180
 4453TIP3   OH234773   5.832   5.400   5.302  0.3782 -0.5357  0.0680
 4453TIP3    H134774   5.770   5.435   5.366 -1.2618 -0.8179 -1.3050
 4453TIP3    H234775   5.895   5.470   5.288  0.7757 -0.4726  1.9667
 4454TIP3   OH234776   4.654   0.404   0.304 -0.2516 -0.1234  0.2765
 4454TIP3    H134777   4.565   0.438   0.316  0.3578  1.0766  1.8543
 4454TIP3    H234778   4.642   0.316   0.269 -2.0061  0.5135 -0.8811
 4455TIP3   OH234779   4.534   2.870   5.968  0.4359 -0.5732  0.0536
 4455TIP3    H134780   4.466   2.867   5.901  1.8854  1.1725 -1.5799
 4455TIP3    H234781   4.493   2.830   6.045 -1.9390 -0.8614 -1.2726
 4456TIP3   OH234782   4.726   4.618  15.623  0.3329 -0.0539 -0.2057
 4456TIP3    H134783   4.714   4.569  15.542 -0.6945  0.6758 -0.5145
 4456TIP3    H234784   4.668   4.575  15.686 -0.7614  0.8734 -0.5437
 4457TIP3   OH234785   1.104   6.771   5.139 -0.5286 -0.1464 -0.2085
 4457TIP3    H134786   1.030   6.734   5.091 -0.8173  0.1966 -0.0285
 4457TIP3    H234787   1.169   6.790   5.071 -1.1645  0.8976 -0.5481
 4458TIP3   OH234788   4.441   6.354   1.034 -0.7952 -0.5182  0.3360
 4458TIP3    H134789   4.528   6.394   1.041 -0.7491 -0.4444 -0.5974
 4458TIP3    H234790   4.400   6.397   0.959 -0.9083 -1.9118 -0.4237
 4459TIP3   OH234791   6.378   0.428  10.789  0.0189  0.5603 -0.2819
 4459TIP3    H134792   6.466   0.407  10.819 -0.5662 -1.6908 -0.0088
 4459TIP3    H234793   6.386   0.430  10.693  0.1704 -0.7304 -0.3131
 4460TIP3   OH234794   5.026   4.721  17.021 -0.2127 -0.4158 -0.2119
 4460TIP3    H134795   4.978   4.641  17.001  0.3883 -1.3409  1.8454
 4460TIP3    H234796   5.117   4.700  17.003 -0.0889 -0.0781  0.0033
 4461TIP3   OH234797   0.274   1.184   2.953  0.4916 -0.3085  0.8657
 4461TIP3    H134798   0.226   1.214   3.030  0.0543 -1.2827  0.9895
 4461TIP3    H234799   0.363   1.169   2.984  0.1620 -1.3430  1.3630
 4462TIP3   OH234800   2.491   5.827   1.945 -0.4619 -0.2249 -0.4560
 4462TIP3    H134801   2.499   5.917   1.977  4.0427 -1.2619  2.2316
 4462TIP3    H234802   2.548   5.823   1.869  0.4723 -1.0341  0.2596
 4463TIP3   OH234803   3.350   3.374  11.523 -0.0278  0.1455  0.0295
 4463TIP3    H134804   3.353   3.355  11.617 -0.4039  1.4440  0.3185
 4463TIP3    H234805   3.404   3.451  11.512  0.1124 -0.0663 -0.8547
 4464TIP3   OH234806   0.265   5.497   4.795 -0.1812  0.0811  0.4754
 4464TIP3    H134807   0.321   5.561   4.838 -1.8951  1.4969  0.7203
 4464TIP3    H234808   0.286   5.505   4.702 -0.8339  1.5307  0.4219
 4465TIP3   OH234809   2.959   1.696  12.586 -0.5776  0.3537  0.0388
 4465TIP3    H134810   3.031   1.755  12.607 -0.6236  0.7848 -0.9405
 4465TIP3    H234811   2.971   1.677  12.493  0.4983 -2.6428  0.6652
 4466TIP3   OH234812   0.526   3.758  11.555 -0.7712 -0.0578 -0.0118
 4466TIP3    H134813   0.431   3.764  11.562 -0.6248  0.4450  3.8560
 4466TIP3    H234814   0.546   3.667  11.575 -0.3887  0.0778  0.2292
 4467TIP3   OH234815   0.945   4.625   1.631  0.4768 -0.9064  0.1059
 4467TIP3    H134816   0.960   4.563   1.560  1.5333 -0.0881 -0.4204
 4467TIP3    H234817   0.985   4.707   1.600 -1.7338  0.3331  0.3380
 4468TIP3   OH234818   6.445   4.404   3.538  0.5496 -0.1213 -0.7141
 4468TIP3    H134819   6.462   4.419   3.445  1.7430 -0.9933 -0.6672
 4468TIP3    H234820   6.503   4.332   3.561 -2.0479 -2.1232 -0.0238
 4469TIP3   OH234821   1.389   2.329   3.497 -0.3660  0.8615 -0.1708
 4469TIP3    H134822   1.472   2.288   3.519 -1.0110 -1.1457 -1.2673
 4469TIP3    H234823   1.398   2.355   3.406 -0.1936  2.6976  0.3286
 4470TIP3   OH234824   2.469   1.516   3.838 -0.5052 -0.3824 -0.1546
 4470TIP3    H134825   2.503   1.479   3.919 -1.1093 -0.0270  0.2698
 4470TIP3    H234826   2.393   1.462   3.817 -0.1791 -0.6570 -0.6471
 4471TIP3   OH234827   3.208   3.109  10.846  0.3119 -0.6158  0.7692
 4471TIP3    H134828   3.143   3.113  10.917  0.1882  1.7194  0.5912
 4471TIP3    H234829   3.237   3.017  10.846  0.7095 -0.6299  4.2078
 4472TIP3   OH234830   2.727   3.552  15.005 -0.2122 -0.6498  0.5256
 4472TIP3    H134831   2.814   3.585  15.026 -0.7750  0.1297  1.7399
 4472TIP3    H234832   2.679   3.628  14.972 -0.6559 -0.9135  0.5511
 4473TIP3   OH234833   0.842   4.769   6.581  0.1843  0.2119  0.4443
 4473TIP3    H134834   0.786   4.782   6.657 -1.2250  0.5661 -0.6040
 4473TIP3    H234835   0.818   4.683   6.548  1.1183 -0.1382  0.6485
 4474TIP3   OH234836   5.008   4.544  16.470  0.0913 -0.6180  0.0879
 4474TIP3    H134837   4.968   4.629  16.487 -0.7201 -0.7943 -0.8427
 4474TIP3    H234838   4.934   4.486  16.453  0.6459 -1.4765  0.5156
 4475TIP3   OH234839   5.773   0.880  16.165 -0.6589  0.2252  0.0030
 4475TIP3    H134840   5.734   0.829  16.235  0.5615 -0.4228  0.2454
 4475TIP3    H234841   5.849   0.829  16.137 -1.2822  0.3135 -2.0100
 4476TIP3   OH234842   0.017   5.321  13.451  0.8179  0.5518 -0.2062
 4476TIP3    H134843  -0.077   5.342  13.446  1.0049  1.4788  0.0543
 4476TIP3    H234844   0.022   5.252  13.517  0.3533  0.7083  0.0005
 4477TIP3   OH234845   1.879   4.406  13.600 -0.1526  0.4101  0.2245
 4477TIP3    H134846   1.824   4.345  13.649 -1.0919 -1.7594 -3.2238
 4477TIP3    H234847   1.968   4.373  13.613  0.0279  1.6141  2.6481
 4478TIP3   OH234848   1.229   6.137   5.704 -0.0199 -0.3056 -0.0345
 4478TIP3    H134849   1.199   6.057   5.748 -0.9172  1.3799  2.6345
 4478TIP3    H234850   1.158   6.159   5.644 -0.5091 -0.6523  0.4066
 4479TIP3   OH234851   6.643   0.044   3.012 -0.2297 -0.2187  0.1254
 4479TIP3    H134852   6.626   0.108   2.943 -2.0058 -3.1508 -2.4046
 4479TIP3    H234853   6.736   0.055   3.033 -0.0663  1.9337 -1.4388
 4480TIP3   OH234854   6.385   5.215  14.433  0.2114 -0.2196 -0.7705
 4480TIP3    H134855   6.399   5.310  14.438 -1.5023  0.3414 -3.8862
 4480TIP3    H234856   6.352   5.191  14.519 -0.1864  2.1878 -0.1697
 4481TIP3   OH234857   2.476   1.214  11.381 -0.0619 -0.4411  0.5688
 4481TIP3    H134858   2.441   1.213  11.470  0.2712 -0.7562  0.7016
 4481TIP3    H234859   2.506   1.304  11.367  0.1488 -0.4613  0.8815
 4482TIP3   OH234860   5.853   2.162   2.444 -0.4169 -0.1107 -0.0507
 4482TIP3    H134861   5.824   2.249   2.469 -1.2796  0.0954 -1.6094
 4482TIP3    H234862   5.898   2.175   2.360 -1.6503 -1.2759 -0.9446
 4483TIP3   OH234863   4.619   3.291  16.035  0.0314 -0.2504  0.2475
 4483TIP3    H134864   4.584   3.206  16.010 -1.0347  0.3181 -0.2997
 4483TIP3    H234865   4.680   3.314  15.965  0.7746 -0.8022  0.6945
 4484TIP3   OH234866   2.454   5.312  14.182 -0.0583 -0.6481  0.5353
 4484TIP3    H134867   2.510   5.249  14.227 -0.9196 -1.2338  0.7872
 4484TIP3    H234868   2.365   5.288  14.206 -0.4105  0.6128  0.5738
 4485TIP3   OH234869   1.484   5.764  14.859  0.2426  0.6108  0.2096
 4485TIP3    H134870   1.487   5.789  14.766  0.4497  0.2806  0.1254
 4485TIP3    H234871   1.533   5.833  14.904 -0.5567  1.2102  0.1740
 4486TIP3   OH234872   6.647   4.066  12.273 -0.0415 -0.5942  0.1982
 4486TIP3    H134873   6.717   4.012  12.236  2.5764  1.2932  1.9853
 4486TIP3    H234874   6.646   4.145  12.220 -2.4922 -1.4468 -1.1869
 4487TIP3   OH234875   1.462   0.624   4.303 -0.1942 -0.1147 -0.2866
 4487TIP3    H134876   1.433   0.671   4.225  1.0168  0.1326 -0.6135
 4487TIP3    H234877   1.457   0.532   4.279  1.2898 -0.0114 -1.1004
 4488TIP3   OH234878   5.692   4.676   5.540  0.3429 -0.1808 -0.0058
 4488TIP3    H134879   5.686   4.677   5.636  1.5628 -2.2997  0.1616
 4488TIP3    H234880   5.627   4.611   5.513  1.5197 -1.2424 -0.3930
 4489TIP3   OH234881   0.757   1.326  13.500  0.3114  0.0252  0.3061
 4489TIP3    H134882   0.814   1.399  13.476  0.7797  0.5761  2.7948
 4489TIP3    H234883   0.681   1.335  13.443  1.0440  1.5502 -0.4891
 4490TIP3   OH234884   1.708   0.702  12.186 -0.0908 -0.5013 -1.2352
 4490TIP3    H134885   1.633   0.646  12.204  1.1002 -1.6796  0.3428
 4490TIP3    H234886   1.717   0.700  12.091 -1.2976 -1.3283 -1.3569
 4491TIP3   OH234887   0.943   1.477  15.939  0.4717  0.2260  0.4587
 4491TIP3    H134888   0.878   1.471  15.869  1.4743 -2.9807 -0.3493
 4491TIP3    H234889   0.918   1.408  16.000  1.7328  0.5490  1.3678
 4492TIP3   OH234890   1.523   0.213   5.241 -0.6687 -0.5195 -0.1045
 4492TIP3    H134891   1.522   0.134   5.188 -0.5053  0.1902 -1.1906
 4492TIP3    H234892   1.432   0.227   5.266 -0.6913 -1.0601  0.1389
 4493TIP3   OH234893   4.200   4.568  17.003 -0.1159 -0.1969 -0.4086
 4493TIP3    H134894   4.267   4.608  16.948  0.0040 -1.3686 -1.1405
 4493TIP3    H234895   4.248   4.505  17.058 -0.5382 -0.6458 -0.5473
 4494TIP3   OH234896   5.498   3.829   3.115  0.6253  0.7558 -0.0708
 4494TIP3    H134897   5.534   3.771   3.182  3.1953 -0.5995 -2.4394
 4494TIP3    H234898   5.547   3.911   3.125 -1.6075  1.9665  1.9717
 4495TIP3   OH234899   3.392   1.972   3.149  0.1291 -0.4087  0.1132
 4495TIP3    H134900   3.346   1.965   3.232 -0.3715  1.1444 -0.0064
 4495TIP3    H234901   3.346   2.041   3.102  1.1979 -0.3821 -0.9297
 4496TIP3   OH234902   4.696   3.394   5.921  0.0367  0.1300 -0.2158
 4496TIP3    H134903   4.721   3.309   5.956  0.8111  0.7613  0.8331
 4496TIP3    H234904   4.605   3.404   5.946  0.0849 -0.1831  0.0953
 4497TIP3   OH234905   0.330   1.196   5.017  0.0535  0.0373  0.0981
 4497TIP3    H134906   0.297   1.183   4.928 -0.1845  0.1263  0.1722
 4497TIP3    H234907   0.336   1.108   5.053 -0.2468  0.0305  0.1339
 4498TIP3   OH234908   3.646   2.651  13.438 -0.3641 -0.1882  0.0919
 4498TIP3    H134909   3.553   2.669  13.425 -0.9750 -0.2596  3.4420
 4498TIP3    H234910   3.688   2.737  13.430 -0.3285 -0.3795 -3.1537
 4499TIP3   OH234911   6.016   6.326  15.937  0.1009  0.0131  0.3736
 4499TIP3    H134912   6.085   6.362  15.881 -1.1560  0.2657 -1.0994
 4499TIP3    H234913   6.028   6.370  16.021  0.9219  1.0518 -0.2564
 4500TIP3   OH234914   4.362   5.056   2.766  0.5143  0.0666  0.9241
 4500TIP3    H134915   4.384   5.057   2.859  1.0320  0.7707  0.8005
 4500TIP3    H234916   4.411   5.129   2.728  0.0064  0.0315  0.1663
 4501TIP3   OH234917   1.210   4.018  12.623  0.4411  0.0307  0.4502
 4501TIP3    H134918   1.165   4.035  12.706  1.2959  0.3426  0.8536
 4501TIP3    H234919   1.287   3.967  12.647  1.6326  1.5952  0.0767
 4502TIP3   OH234920   6.304   0.048  14.969  0.2351  0.5089  0.2957
 4502TIP3    H134921   6.339   0.083  14.887  1.3907  0.7142  0.8564
 4502TIP3    H234922   6.233   0.109  14.993 -0.1269  0.4336 -0.5477
 4503TIP3   OH234923   0.822   5.616  11.118  0.2873  0.1604  0.6213
 4503TIP3    H134924   0.837   5.610  11.024 -0.8203 -1.8491  0.5088
 4503TIP3    H234925   0.748   5.676  11.127  1.1059  1.2508  0.3396
 4504TIP3   OH234926   2.784   4.493  14.436  0.3781 -0.1711  0.4195
 4504TIP3    H134927   2.703   4.504  14.486 -0.1288  0.2916 -0.4851
 4504TIP3    H234928   2.777   4.555  14.364  0.9961 -0.9941 -0.3704
 4505TIP3   OH234929   0.382   2.587  12.258  0.0102 -0.0808  0.3149
 4505TIP3    H134930   0.307   2.626  12.303  0.2669 -0.7873  1.3911
 4505TIP3    H234931   0.459   2.625  12.301  0.2595 -0.8487  0.5697
 4506TIP3   OH234932   5.392   0.426   1.600  0.5162 -0.5374  0.4348
 4506TIP3    H134933   5.413   0.479   1.677  1.4617  0.5589 -0.5478
 4506TIP3    H234934   5.465   0.441   1.540 -0.2808 -1.2409 -0.7363
 4507TIP3   OH234935   1.339   5.337  15.956  0.7453 -0.2143 -0.3082
 4507TIP3    H134936   1.336   5.351  15.862  2.5069 -0.2617 -0.4079
 4507TIP3    H234937   1.432   5.323  15.975  0.3665 -0.6516  1.3698
 4508TIP3   OH234938   6.610   6.748  11.924  0.1619 -0.1519 -0.0313
 4508TIP3    H134939   6.678   6.760  11.857  1.4928  0.0416  1.3084
 4508TIP3    H234940   6.620   6.824  11.981 -1.0096 -0.2775  0.3566
 4509TIP3   OH234941   2.721   1.040  15.733  0.2546 -0.1294  0.0977
 4509TIP3    H134942   2.761   1.125  15.715  0.5950 -0.2339  0.3502
 4509TIP3    H234943   2.739   0.987  15.656 -3.9353  1.4014 -2.2190
 4510TIP3   OH234944   5.976   5.932   1.152 -0.3273 -0.3538  0.7380
 4510TIP3    H134945   6.025   5.949   1.071  0.0704 -3.7251  0.1133
 4510TIP3    H234946   6.043   5.937   1.221 -0.6561  2.4710  0.9666
 4511TIP3   OH234947   1.369   1.108   1.647  0.3391 -0.1068 -0.2954
 4511TIP3    H134948   1.383   1.016   1.672  0.3016  0.5510  2.5192
 4511TIP3    H234949   1.297   1.105   1.585 -0.0381 -1.9550  0.1444
 4512TIP3   OH234950   1.203   5.420  15.579  0.8874  0.2354 -0.4764
 4512TIP3    H134951   1.293   5.432  15.609  1.0738 -0.3184 -0.8019
 4512TIP3    H234952   1.191   5.486  15.510  0.4481  1.5322  0.7954
 4513TIP3   OH234953   0.724   0.338   5.187  0.0212 -0.9382 -0.2251
 4513TIP3    H134954   0.813   0.328   5.153  0.6768  0.2042  1.0249
 4513TIP3    H234955   0.735   0.397   5.262 -2.0299  0.7205 -1.1352
 4514TIP3   OH234956   6.197   0.937  14.255 -0.6920 -0.3384 -0.3600
 4514TIP3    H134957   6.199   0.884  14.335  1.0868  0.1600 -0.0388
 4514TIP3    H234958   6.136   1.008  14.275  0.5443  0.3949  0.9908
 4515TIP3   OH234959   0.851   4.614   4.153 -1.0470  0.0624 -0.1085
 4515TIP3    H134960   0.836   4.569   4.069 -1.8203  1.0714 -0.5383
 4515TIP3    H234961   0.931   4.575   4.187 -0.6077 -0.2459 -1.4178
 4516TIP3   OH234962   0.326   5.535   0.379  0.0089  0.4774 -0.5795
 4516TIP3    H134963   0.346   5.594   0.452  2.7148 -1.3940  0.3042
 4516TIP3    H234964   0.378   5.569   0.306 -0.0515  0.3715 -0.6710
 4517TIP3   OH234965   0.770   1.523   0.238 -0.2685  0.1305  0.6703
 4517TIP3    H134966   0.685   1.531   0.194 -0.3703 -0.1522  0.8119
 4517TIP3    H234967   0.773   1.433   0.269  0.0441  0.1657  0.7527
 4518TIP3   OH234968   2.652   5.470   5.779  0.3947  0.3473 -0.1131
 4518TIP3    H134969   2.598   5.449   5.856  1.6722 -1.9103  0.2589
 4518TIP3    H234970   2.631   5.561   5.759 -1.0149  0.5724  2.0648
 4519TIP3   OH234971   4.233   3.524  14.956 -0.3328 -0.2065 -0.0212
 4519TIP3    H134972   4.199   3.460  15.018 -0.1534 -1.0278 -0.7601
 4519TIP3    H234973   4.242   3.476  14.874 -0.4707  0.8385 -0.6627
 4520TIP3   OH234974   5.859   5.827   4.728 -0.1565 -0.0001 -0.2664
 4520TIP3    H134975   5.781   5.771   4.736  0.4629 -0.7299  1.0911
 4520TIP3    H234976   5.828   5.914   4.754 -0.0664 -0.7492  2.7969
 4521TIP3   OH234977   0.052   5.930   5.787 -0.3196 -0.1245  0.3106
 4521TIP3    H134978  -0.000   5.919   5.866  1.2161 -0.7341  1.2839
 4521TIP3    H234979   0.080   5.841   5.764 -0.3091  0.1038 -0.6132
 4522TIP3   OH234980   6.500   6.570   0.531  0.2332 -0.4412  0.0288
 4522TIP3    H134981   6.562   6.530   0.591 -0.6221 -2.1557 -0.1788
 4522TIP3    H234982   6.417   6.524   0.546 -0.0807 -0.7659 -2.2362
 4523TIP3   OH234983   2.227   2.312  16.460 -0.0625  0.2561  0.2960
 4523TIP3    H134984   2.313   2.304  16.500 -0.0234  0.1988  0.2011
 4523TIP3    H234985   2.175   2.244  16.502  0.5821 -1.3267 -1.3392
 4524TIP3   OH234986   0.578   5.364  12.049 -0.4248  0.2971 -0.2603
 4524TIP3    H134987   0.486   5.341  12.058 -0.1947 -0.2490  0.9231
 4524TIP3    H234988   0.617   5.339  12.133  0.8822  0.1014 -0.9024
 4525TIP3   OH234989   3.139   4.369   4.866 -0.2852 -0.1366  0.3914
 4525TIP3    H134990   3.208   4.312   4.899 -0.0910  1.6308  3.4204
 4525TIP3    H234991   3.183   4.451   4.845 -0.7997 -0.4672 -2.4209
 4526TIP3   OH234992   0.708   4.491   4.967  0.1922  0.0152  0.1146
 4526TIP3    H134993   0.692   4.480   4.874  4.2895  0.4088 -0.8168
 4526TIP3    H234994   0.677   4.579   4.987 -0.8259 -0.1135 -0.8013
 4527TIP3   OH234995   2.053   5.313  15.832  0.6957 -0.0633  0.4398
 4527TIP3    H134996   1.974   5.298  15.780  1.0505  0.3167 -0.2307
 4527TIP3    H234997   2.125   5.284  15.776  1.0944  0.4304  0.6845
 4528TIP3   OH234998   3.500   0.607  13.179  0.3221 -0.0537  0.7137
 4528TIP3    H134999   3.484   0.698  13.207  1.2426  0.7848 -1.2917
 4528TIP3    H235000   3.454   0.600  13.095  0.6845 -1.3046  0.6053
 4529TIP3   OH235001   4.092   6.023  13.605  0.0416 -0.2729  0.0949
 4529TIP3    H135002   4.175   6.049  13.645  0.5051 -0.8423 -0.4738
 4529TIP3    H235003   4.073   5.937  13.643 -1.5422  0.8702  2.0608
 4530TIP3   OH235004   0.245   2.033  12.319 -0.3800 -0.3981  0.3984
 4530TIP3    H135005   0.319   1.974  12.300  1.3286  1.5935  0.5149
 4530TIP3    H235006   0.272   2.118  12.285 -2.1511  0.6739  1.4911
 4531TIP3   OH235007   0.858   1.058   5.556 -0.6019 -0.1456  0.4126
 4531TIP3    H135008   0.839   1.151   5.543  1.3030  0.1413 -0.7035
 4531TIP3    H235009   0.943   1.057   5.600 -0.4092 -1.3716  0.0381
 4532TIP3   OH235010   4.403   5.741  15.822 -0.9050  0.5624  0.1748
 4532TIP3    H135011   4.309   5.723  15.830 -0.7533  0.4749  2.1379
 4532TIP3    H235012   4.415   5.829  15.857 -0.3810  1.0231 -1.0937
 4533TIP3   OH235013   6.541   1.897  12.174 -0.0195 -0.0048  0.1009
 4533TIP3    H135014   6.591   1.962  12.125  0.9637  0.5308  1.7293
 4533TIP3    H235015   6.465   1.945  12.207 -1.9538 -0.9146 -2.7144
 4534TIP3   OH235016   5.244   5.833  14.669  0.1910 -0.5187  0.8506
 4534TIP3    H135017   5.284   5.775  14.734  0.7091 -1.5530 -0.3517
 4534TIP3    H235018   5.272   5.797  14.585 -0.6431  0.6623  0.0455
 4535TIP3   OH235019   1.918   1.006   5.227 -0.0221 -0.7465 -0.1743
 4535TIP3    H135020   2.012   0.992   5.224 -0.1773 -1.8547 -0.1605
 4535TIP3    H235021   1.898   1.015   5.321  0.3187  1.5182 -0.2492
 4536TIP3   OH235022   4.924   4.416  15.598  0.1317  0.2669 -0.2859
 4536TIP3    H135023   4.849   4.472  15.617 -0.1235 -0.1420 -0.0816
 4536TIP3    H235024   4.995   4.477  15.579 -0.1710  0.6589 -0.1719
 4537TIP3   OH235025   1.432   6.765  11.652  0.0137  0.0517 -0.2004
 4537TIP3    H135026   1.486   6.793  11.579 -0.9644 -0.8483 -1.2992
 4537TIP3    H235027   1.491   6.766  11.728  0.9975  1.1231 -0.9630
 4538TIP3   OH235028   0.281   5.953   1.698 -0.1793 -0.1042 -0.1606
 4538TIP3    H135029   0.314   6.032   1.655 -0.0700 -0.1060 -0.0813
 4538TIP3    H235030   0.287   5.885   1.631 -0.7926  0.0732 -0.4019
 4539TIP3   OH235031   6.540   0.343   4.486  0.3851  0.3703  0.2372
 4539TIP3    H135032   6.546   0.438   4.495  0.9807  0.5386 -1.4194
 4539TIP3    H235033   6.630   0.314   4.473  0.1368 -0.3050 -0.0837
 4540TIP3   OH235034   1.360   0.190  15.068 -0.0227 -0.0483 -0.3597
 4540TIP3    H135035   1.358   0.259  15.002 -0.1698  0.4427  0.1521
 4540TIP3    H235036   1.374   0.236  15.151  0.6434 -0.6933 -0.0975
 4541TIP3   OH235037   3.333   1.311  13.858 -0.3283 -0.3029 -0.1023
 4541TIP3    H135038   3.266   1.267  13.910 -1.2958  1.8588  0.6074
 4541TIP3    H235039   3.286   1.379  13.810  0.8289 -1.0910 -2.5059
 4542TIP3   OH235040   1.226   2.784  11.762 -0.2688  0.3649  0.0104
 4542TIP3    H135041   1.287   2.843  11.719 -0.2233  0.0079 -0.4296
 4542TIP3    H235042   1.265   2.697  11.751  0.1356  0.3312  1.4496
 4543TIP3   OH235043   5.144   3.152   2.218  0.2034 -0.0806  0.0096
 4543TIP3    H135044   5.067   3.113   2.177  0.8563 -2.5681  0.9661
 4543TIP3    H235045   5.218   3.117   2.169  0.8147  0.4917  0.5004
 4544TIP3   OH235046   1.888   6.311   2.451  0.1000  0.1833  0.0062
 4544TIP3    H135047   1.887   6.265   2.367 -0.6865  1.8997 -0.9737
 4544TIP3    H235048   1.880   6.403   2.428 -0.7531  0.6578  1.9989
 4545TIP3   OH235049   2.529   1.176   3.951 -0.2502 -0.5538 -0.4074
 4545TIP3    H135050   2.540   1.111   3.882  1.3596 -0.3118 -0.4080
 4545TIP3    H235051   2.532   1.126   4.032  0.9062 -0.5038 -0.4110
 4546TIP3   OH235052   3.356   6.083   6.073  0.2168  0.4825  0.1611
 4546TIP3    H135053   3.263   6.103   6.076  0.6508  2.8550  0.1164
 4546TIP3    H235054   3.379   6.063   6.164 -0.4357 -0.8351  0.0574
 4547TIP3   OH235055   0.471   2.377   2.063 -0.6928 -0.2722  0.0407
 4547TIP3    H135056   0.413   2.326   2.007 -1.0196 -0.8332  0.8582
 4547TIP3    H235057   0.509   2.443   2.006 -1.1843 -0.6882 -0.7800
 4548TIP3   OH235058   3.688   6.627  15.878 -0.5387  0.1547 -0.0343
 4548TIP3    H135059   3.770   6.586  15.905 -0.2211  1.2817  0.7593
 4548TIP3    H235060   3.636   6.555  15.843  1.0752 -0.4727 -1.2918
 4549TIP3   OH235061   5.879   0.581   3.896  0.2247  0.5638  0.2047
 4549TIP3    H135062   5.863   0.647   3.963  0.4302  0.3810  0.4371
 4549TIP3    H235063   5.905   0.631   3.818 -1.3509  0.8617 -0.1570
 4550TIP3   OH235064   1.335   4.981   4.159  0.0860  0.0850 -0.0018
 4550TIP3    H135065   1.296   5.061   4.124  0.3113 -0.5605 -1.8008
 4550TIP3    H235066   1.270   4.913   4.142  0.3838 -0.3232  0.4668
 4551TIP3   OH235067   3.416   5.440   2.351 -0.3036 -0.2812 -0.6151
 4551TIP3    H135068   3.340   5.458   2.296 -0.8233  0.7457  0.4038
 4551TIP3    H235069   3.429   5.520   2.402  0.5079 -0.9980  0.3548
 4552TIP3   OH235070   6.663   2.092   1.100 -0.7331 -0.3259 -0.1713
 4552TIP3    H135071   6.607   2.015   1.102  1.1127 -1.7333 -0.0809
 4552TIP3    H235072   6.690   2.105   1.191  0.5021 -0.7978 -0.4457
 4553TIP3   OH235073   4.444   1.065  13.189 -0.0851 -0.5894 -0.6049
 4553TIP3    H135074   4.456   1.159  13.182  1.1656 -0.7352 -0.5977
 4553TIP3    H235075   4.488   1.041  13.271  0.7967 -1.3596 -1.2937
 4554TIP3   OH235076   4.434   3.201  15.341  0.1899 -0.3545  0.0131
 4554TIP3    H135077   4.441   3.146  15.419 -2.3263 -0.4253  0.2758
 4554TIP3    H235078   4.400   3.143  15.273  1.3321 -0.0338 -0.8566
 4555TIP3   OH235079   5.604   4.566  13.286  0.4794  0.1602  0.5628
 4555TIP3    H135080   5.562   4.631  13.231 -1.4954 -1.5599 -0.0883
 4555TIP3    H235081   5.541   4.550  13.357  0.7181 -1.2984  0.4866
 4556TIP3   OH235082   3.718   2.662  16.499  0.1097 -0.1213  0.0510
 4556TIP3    H135083   3.694   2.738  16.552 -0.2787 -1.5204  2.0044
 4556TIP3    H235084   3.649   2.657  16.432 -0.2998  0.7700  0.3809
 4557TIP3   OH235085   3.641   1.180  16.972 -0.4361  0.5863  0.1386
 4557TIP3    H135086   3.691   1.240  17.027  2.8357 -2.7813  1.3005
 4557TIP3    H235087   3.581   1.136  17.033 -1.0764  0.9196 -0.2332
 4558TIP3   OH235088   6.778   5.700   2.014 -0.6622  0.1947 -0.5118
 4558TIP3    H135089   6.848   5.657   2.063  1.6203  0.6994 -3.0325
 4558TIP3    H235090   6.740   5.630   1.960 -0.8593  0.2483 -0.4404
 4559TIP3   OH235091   0.616   3.288   1.238 -0.1927  0.1270 -0.1072
 4559TIP3    H135092   0.682   3.328   1.295 -0.9589  0.7581  0.3647
 4559TIP3    H235093   0.635   3.195   1.240  0.5187  0.2764  0.2373
 4560TIP3   OH235094   0.813   1.334  12.583  0.1944  0.1994 -0.2087
 4560TIP3    H135095   0.885   1.373  12.533 -0.1781  1.5799  0.2790
 4560TIP3    H235096   0.739   1.393  12.569 -1.1882 -1.7027 -1.5023
 4561TIP3   OH235097   2.332   0.427   3.100  0.1444 -0.2948 -0.1682
 4561TIP3    H135098   2.418   0.425   3.057 -0.7220 -2.3524 -1.9814
 4561TIP3    H235099   2.290   0.346   3.074 -2.1102  0.3220  1.2694
 4562TIP3   OH235100   3.073   4.399  14.288 -0.0489  0.2351  0.2695
 4562TIP3    H135101   3.006   4.419  14.222 -0.9983 -1.8077  0.5488
 4562TIP3    H235102   3.156   4.413  14.242 -0.6740  0.6229 -0.7825
 4563TIP3   OH235103   2.875   1.762  13.388 -0.5889 -0.3114  0.4797
 4563TIP3    H135104   2.866   1.781  13.295  1.0787  0.4830  0.4462
 4563TIP3    H235105   2.799   1.804  13.428 -1.3929 -0.7809 -0.5320
 4564TIP3   OH235106   5.670   1.250   2.025 -0.0429  0.0582 -0.5217
 4564TIP3    H135107   5.624   1.333   2.031 -0.7356 -0.4026  1.5748
 4564TIP3    H235108   5.618   1.190   2.079  1.3106 -1.3093 -0.6716
 4565TIP3   OH235109   5.907   6.694  11.908  0.3443  0.6474  0.8369
 4565TIP3    H135110   5.949   6.626  11.855  1.3035  0.7152  1.4955
 4565TIP3    H235111   5.822   6.708  11.866  1.1216  0.7726 -0.7569
 4566TIP3   OH235112   4.007   4.050  12.768  0.0042  0.3235  0.4489
 4566TIP3    H135113   4.054   3.995  12.705  1.7288  0.5486  1.4800
 4566TIP3    H235114   3.929   4.080  12.720 -0.7431 -2.5206 -0.3298
 4567TIP3   OH235115   3.962   0.955   2.486  0.2326  0.1932  0.1162
 4567TIP3    H135116   3.939   0.900   2.411  0.0538  1.0391 -0.4608
 4567TIP3    H235117   3.914   1.036   2.472 -1.4063 -0.3406  2.1897
 4568TIP3   OH235118   2.452   4.289  12.680 -0.0864 -0.6948 -0.4390
 4568TIP3    H135119   2.511   4.221  12.646 -0.9668 -1.7499  0.0679
 4568TIP3    H235120   2.410   4.324  12.601  0.3588 -0.7543 -0.7094
 4569TIP3   OH235121   0.240   3.053   2.152  0.0385 -0.2636  0.3038
 4569TIP3    H135122   0.166   3.108   2.176  1.1179  1.2577  0.2865
 4569TIP3    H235123   0.232   3.039   2.058  0.3856  0.8869  0.0891
 4570TIP3   OH235124   1.695   3.052  15.140 -0.1148  0.0599 -0.0121
 4570TIP3    H135125   1.621   3.020  15.089  0.3224 -0.5796 -0.2594
 4570TIP3    H235126   1.770   3.045  15.080 -0.1055  2.2859 -0.3665
 4571TIP3   OH235127   3.288   6.397   5.364 -1.0421 -0.3811  0.5122
 4571TIP3    H135128   3.377   6.379   5.336 -1.3708 -1.7282  0.2617
 4571TIP3    H235129   3.283   6.363   5.453 -0.8938  1.0620  1.1001
 4572TIP3   OH235130   1.137   5.936   2.336  0.0852  0.4208 -0.2221
 4572TIP3    H135131   1.222   5.894   2.322  0.4978  1.2012 -0.0900
 4572TIP3    H235132   1.078   5.890   2.276 -0.7000 -3.8167  3.2347
 4573TIP3   OH235133   1.594   0.613  14.658 -0.2983  0.1849  0.7687
 4573TIP3    H135134   1.637   0.639  14.740  0.1575 -0.6314  0.7966
 4573TIP3    H235135   1.639   0.664  14.591  0.2819 -0.1867  0.8696
 4574TIP3   OH235136   6.709   6.543  16.199 -0.5172 -0.0938  0.6868
 4574TIP3    H135137   6.705   6.486  16.121 -0.6723  0.4580  0.2888
 4574TIP3    H235138   6.672   6.490  16.269  0.4499 -0.9335  0.5916
 4575TIP3   OH235139   1.319   6.412   0.712  0.0494 -0.4466  0.7092
 4575TIP3    H135140   1.378   6.339   0.690  1.0660 -0.2471  2.5804
 4575TIP3    H235141   1.370   6.491   0.692 -1.1961 -0.1685 -1.7044
 4576TIP3   OH235142   0.381   2.800   1.318 -0.5971  0.0652 -0.1735
 4576TIP3    H135143   0.361   2.871   1.257 -0.5681 -0.9846 -1.4473
 4576TIP3    H235144   0.301   2.790   1.370 -1.1844 -0.0349 -1.0860
 4577TIP3   OH235145   6.236   2.532  10.783 -0.2905  0.4419  0.1766
 4577TIP3    H135146   6.269   2.443  10.770  1.7826  1.2254 -0.4092
 4577TIP3    H235147   6.202   2.558  10.697  1.4992  1.0624 -0.4052
 4578TIP3   OH235148   5.896   1.692   3.873  0.0286  0.6868 -0.5901
 4578TIP3    H135149   5.867   1.601   3.870  1.0625  0.2276  1.4463
 4578TIP3    H235150   5.829   1.737   3.925 -0.2815  1.0172 -1.2671
 4579TIP3   OH235151   2.610   4.063   5.728  0.3038 -0.1462  0.4536
 4579TIP3    H135152   2.610   4.011   5.808  0.0896 -1.0853 -0.1408
 4579TIP3    H235153   2.523   4.103   5.725 -0.0356 -0.8902  0.2029
 4580TIP3   OH235154   4.224   0.237   1.069  0.5195 -0.4115 -0.4253
 4580TIP3    H135155   4.179   0.314   1.035  1.1563 -0.5188 -1.5534
 4580TIP3    H235156   4.240   0.182   0.992 -0.5823 -2.0440  0.4537
 4581TIP3   OH235157   6.057   1.077   2.241  0.0517  0.5225  0.5860
 4581TIP3    H135158   6.050   0.991   2.281  1.3579 -0.9344 -1.9961
 4581TIP3    H235159   6.138   1.073   2.190 -1.3063  2.1803 -1.9681
 4582TIP3   OH235160   2.388   5.790  15.386 -0.2758  0.0575 -0.1742
 4582TIP3    H135161   2.454   5.830  15.328 -0.6284  0.3472 -0.3870
 4582TIP3    H235162   2.358   5.713  15.338  0.0620 -0.1970  0.0203
 4583TIP3   OH235163   5.957   4.725   5.883  0.1426 -0.8118 -0.2047
 4583TIP3    H135164   5.892   4.774   5.833  0.0430 -0.5921  0.1343
 4583TIP3    H235165   5.990   4.788   5.947 -1.7976 -1.8574  1.9480
 4584TIP3   OH235166   6.090   2.116  16.093  0.7502  0.1085 -0.3225
 4584TIP3    H135167   6.050   2.048  16.148  0.6853 -0.6508 -1.2798
 4584TIP3    H235168   6.096   2.076  16.006  0.8657  1.2810 -0.8711
 4585TIP3   OH235169   6.753   6.466  17.143  0.0692  0.2560 -0.0733
 4585TIP3    H135170   6.762   6.481  17.238 -0.4841 -2.3263  0.4567
 4585TIP3    H235171   6.841   6.476  17.109  0.6014 -0.5248  1.0177
 4586TIP3   OH235172   6.217   4.168  10.455 -0.3915  0.2393  0.7930
 4586TIP3    H135173   6.277   4.223  10.504  0.5982  0.6307 -0.7888
 4586TIP3    H235174   6.155   4.230  10.416 -1.9184 -0.1565  2.4256
 4587TIP3   OH235175   1.501   3.459   0.122 -0.2060  0.4072 -0.4904
 4587TIP3    H135176   1.551   3.535   0.150 -1.2472  0.5469  1.0848
 4587TIP3    H235177   1.566   3.388   0.120  0.7921  1.2828 -2.0663
 4588TIP3   OH235178   3.566   4.979   2.255  0.1831 -0.1689  0.1460
 4588TIP3    H135179   3.533   5.062   2.220 -0.8347 -1.6026 -2.6327
 4588TIP3    H235180   3.501   4.953   2.321 -0.9308  0.0473 -0.8311
 4589TIP3   OH235181   4.404   3.885   0.549  0.3416 -0.0262  0.1646
 4589TIP3    H135182   4.462   3.820   0.591  0.3142 -0.5138 -0.5379
 4589TIP3    H235183   4.457   3.924   0.480 -0.4945 -1.2853 -1.2413
 4590TIP3   OH235184   2.720   6.161   0.749 -0.1550 -1.0115 -0.3922
 4590TIP3    H135185   2.694   6.228   0.812 -0.6233 -0.0942 -1.5161
 4590TIP3    H235186   2.809   6.138   0.774 -0.0186 -0.0356  0.0810
 4591TIP3   OH235187   3.533   1.840   5.692  0.0622  0.0876  0.1941
 4591TIP3    H135188   3.547   1.838   5.597  0.2004 -1.0040  0.2229
 4591TIP3    H235189   3.620   1.823   5.730  0.2119  1.4891  0.5615
 4592TIP3   OH235190   5.730   5.178  12.711  0.0684  0.3033  0.0782
 4592TIP3    H135191   5.696   5.252  12.659 -0.9269 -0.3294 -0.2029
 4592TIP3    H235192   5.670   5.172  12.785  1.8583  1.6123  1.7245
 4593TIP3   OH235193   5.594   0.254  16.484 -0.0560 -0.3531  0.0700
 4593TIP3    H135194   5.620   0.182  16.540 -1.8865 -0.2627  1.1270
 4593TIP3    H235195   5.498   0.253  16.486 -0.1562  2.1648  0.2397
 4594TIP3   OH235196   1.324   0.748  10.610 -0.1344  0.3713  0.2510
 4594TIP3    H135197   1.330   0.842  10.626  0.9715  0.4157 -0.3691
 4594TIP3    H235198   1.247   0.720  10.660 -0.6987  1.6639  0.1409
 4595TIP3   OH235199   3.918   3.446   0.788 -0.2337  0.1173  0.1630
 4595TIP3    H135200   3.908   3.457   0.882 -1.1803  0.5213  0.0281
 4595TIP3    H235201   4.011   3.428   0.775 -0.1404 -0.2027  1.1940
 4596TIP3   OH235202   2.340   1.749   3.558 -0.0082  0.0828  0.1966
 4596TIP3    H135203   2.250   1.718   3.548 -0.8210  2.3136  0.0074
 4596TIP3    H235204   2.375   1.750   3.469 -0.5778  1.2795 -0.0386
 4597TIP3   OH235205   6.773   2.510   2.543  0.1670  0.5865  0.4086
 4597TIP3    H135206   6.850   2.564   2.525  0.0548  0.7589  0.4464
 4597TIP3    H235207   6.804   2.420   2.532 -0.5445  0.6567 -3.5875
 4598TIP3   OH235208   0.300   6.255  12.066 -0.2947 -0.1715 -0.6212
 4598TIP3    H135209   0.310   6.337  12.114 -1.2294 -0.7308  0.5667
 4598TIP3    H235210   0.261   6.194  12.129 -0.7442 -1.1848 -1.8341
 4599TIP3   OH235211   6.370   3.381  15.497 -0.3051  0.2876  0.6507
 4599TIP3    H135212   6.279   3.382  15.527 -0.3043  0.7016  0.6459
 4599TIP3    H235213   6.381   3.294  15.458 -1.0088  0.5987 -0.3052
 4600TIP3   OH235214   4.686   4.126   4.366  0.1942  0.4944  0.7005
 4600TIP3    H135215   4.642   4.163   4.443  1.0907 -0.5461  1.7690
 4600TIP3    H235216   4.687   4.031   4.382 -0.7160  0.1071 -1.2343
 4601TIP3   OH235217   4.873   1.100   0.530 -0.2034 -0.2443  0.4499
 4601TIP3    H135218   4.832   1.179   0.565  1.3229  0.1460  1.4276
 4601TIP3    H235219   4.876   1.040   0.605  0.3112 -0.5481  0.1838
 4602TIP3   OH235220   0.197   6.692  14.216  0.7444 -0.0095 -0.6418
 4602TIP3    H135221   0.161   6.647  14.292  2.4501 -0.2589  0.0589
 4602TIP3    H235222   0.161   6.645  14.141  0.7665 -1.1616  0.0462
 4603TIP3   OH235223   6.618   2.719   4.360 -0.0498 -0.1235 -0.2626
 4603TIP3    H135224   6.572   2.683   4.284 -0.4413  0.9546 -0.5578
 4603TIP3    H235225   6.657   2.643   4.403 -1.4204 -0.9761 -0.4691
 4604TIP3   OH235226   1.105   3.728  13.527  0.4158 -0.0712  0.0712
 4604TIP3    H135227   1.119   3.701  13.436 -0.5253 -3.0020  0.7238
 4604TIP3    H235228   1.193   3.749  13.559  0.8157  0.5396 -1.3201
 4605TIP3   OH235229   1.111   5.140   1.530 -0.0774  0.4684 -0.4142
 4605TIP3    H135230   1.199   5.103   1.535 -0.1691  0.3960  0.8751
 4605TIP3    H235231   1.113   5.215   1.589 -0.5775  1.1171 -1.2034
 4606TIP3   OH235232   3.312   1.737  13.552  0.0343  0.1933  0.0041
 4606TIP3    H135233   3.336   1.661  13.605  1.6892 -0.3863 -1.4937
 4606TIP3    H235234   3.335   1.813  13.607  1.8337 -0.3912  0.1145
 4607TIP3   OH235235   2.270   3.321  15.180  0.0497  0.2308  0.0890
 4607TIP3    H135236   2.192   3.334  15.234  1.7041  1.3099  2.3657
 4607TIP3    H235237   2.314   3.406  15.180  1.3363 -0.4066 -0.9593
 4608TIP3   OH235238   5.370   0.059  13.957  0.6659  0.6957  0.2938
 4608TIP3    H135239   5.464   0.045  13.968  0.4634 -1.0922  0.1458
 4608TIP3    H235240   5.361   0.108  13.876  1.4971  1.6008  0.7353
 4609TIP3   OH235241   0.444   1.677   2.730 -0.7717  0.2765 -0.2526
 4609TIP3    H135242   0.519   1.661   2.673 -1.3699 -1.1481 -0.7008
 4609TIP3    H235243   0.460   1.763   2.768  0.3368  0.6507 -1.4880
 4610TIP3   OH235244   4.221   0.637   2.463  0.8380 -0.2433  0.2227
 4610TIP3    H135245   4.246   0.724   2.497 -0.4918 -0.2758  1.3753
 4610TIP3    H235246   4.158   0.656   2.394 -0.5295 -0.2723  1.4050
 4611TIP3   OH235247   0.124   4.385   1.938 -0.2133 -0.1292  0.1590
 4611TIP3    H135248   0.199   4.359   1.991 -0.1806  1.0947  0.7479
 4611TIP3    H235249   0.142   4.347   1.852  1.3603  0.5691  0.1355
 4612TIP3   OH235250   0.762   2.107   3.861 -0.1557  0.0942  0.1324
 4612TIP3    H135251   0.836   2.065   3.905 -1.3249 -0.3539  1.7605
 4612TIP3    H235252   0.750   2.190   3.907 -0.0372  0.6447 -0.8003
 4613TIP3   OH235253   3.336   5.509  10.510 -0.5168  0.3902 -0.0150
 4613TIP3    H135254   3.316   5.503  10.417 -0.5239  1.8474 -0.1305
 4613TIP3    H235255   3.309   5.598  10.535 -0.9565 -0.1339  1.4875
 4614TIP3   OH235256   3.341   2.647   1.535  0.3331 -0.1042  0.2162
 4614TIP3    H135257   3.248   2.625   1.533  0.5741 -1.1692  0.1244
 4614TIP3    H235258   3.343   2.741   1.550 -0.7481 -0.3387  2.2409
 4615TIP3   OH235259   2.133   5.236  11.539  0.1679 -0.2962  0.2959
 4615TIP3    H135260   2.163   5.208  11.453 -1.1148  0.1931 -0.3323
 4615TIP3    H235261   2.192   5.307  11.563 -0.5466  0.7921 -1.0086
 4616TIP3   OH235262   1.442   2.076  15.392 -0.7741 -0.2722  0.1634
 4616TIP3    H135263   1.520   2.068  15.338  0.6583 -1.1392  2.2512
 4616TIP3    H235264   1.424   1.987  15.422 -1.4441  0.1915  1.2067
 4617TIP3   OH235265   2.659   2.221   4.562 -0.1332  0.3185  0.6731
 4617TIP3    H135266   2.659   2.199   4.469 -2.8804 -0.5034  0.7682
 4617TIP3    H235267   2.745   2.194   4.593  0.5265 -0.1946 -1.4477
 4618TIP3   OH235268   1.797   2.019   3.206  0.1802  0.3466 -0.4888
 4618TIP3    H135269   1.827   2.058   3.124 -0.2158  3.7201  0.8223
 4618TIP3    H235270   1.703   2.005   3.193 -0.4484  3.2835  0.0743
 4619TIP3   OH235271   5.580   0.654  15.833 -0.2075 -0.2282 -0.8840
 4619TIP3    H135272   5.663   0.702  15.836 -0.3305 -0.0143 -0.8829
 4619TIP3    H235273   5.585   0.593  15.907 -0.5778  0.6681 -0.1009
 4620TIP3   OH235274   6.562   2.085  16.421  0.6229 -0.1819  0.3753
 4620TIP3    H135275   6.647   2.126  16.434  0.6392 -0.4929  1.2865
 4620TIP3    H235276   6.536   2.053  16.507 -0.8073  0.6426  0.2917
 4621TIP3   OH235277   0.941   4.605  10.634 -0.6361 -0.8798  0.0299
 4621TIP3    H135278   0.876   4.538  10.609  0.6752 -1.8905 -0.8230
 4621TIP3    H235279   1.023   4.574  10.596  0.2812  0.5842  0.7227
 4622TIP3   OH235280   4.910   1.242   0.011  0.4377 -0.5035  0.2163
 4622TIP3    H135281   4.878   1.329  -0.010  0.7778 -0.8245 -1.8463
 4622TIP3    H235282   5.006   1.250   0.011  0.5030 -0.3662  2.6327
 4623TIP3   OH235283   4.552   5.141  14.906 -0.4149  0.9997 -0.6289
 4623TIP3    H135284   4.633   5.140  14.855  0.3351  1.3819  0.5233
 4623TIP3    H235285   4.571   5.199  14.980 -1.2474 -0.0683  0.4460
 4624TIP3   OH235286   6.442   1.082  16.924 -0.0908  0.3645 -0.1533
 4624TIP3    H135287   6.350   1.064  16.905 -0.4276 -2.1074  3.0107
 4624TIP3    H235288   6.491   1.024  16.865 -0.7590 -1.0162  0.6013
 4625TIP3   OH235289   0.161   2.651  11.359 -0.4183 -0.2065  0.7727
 4625TIP3    H135290   0.174   2.587  11.429 -0.3401 -0.9925  0.0580
 4625TIP3    H235291   0.209   2.615  11.285 -0.6643  0.5144  0.2558
 4626TIP3   OH235292   4.179   1.283  11.395  0.4683 -0.1998 -0.0519
 4626TIP3    H135293   4.119   1.301  11.322 -0.8148 -0.4723  0.9144
 4626TIP3    H235294   4.261   1.327  11.370 -0.1277  0.2000 -1.3802
 4627TIP3   OH235295   0.549   1.503   6.093  0.5792 -0.0572  0.4284
 4627TIP3    H135296   0.595   1.425   6.060  0.5850  0.3883 -0.6549
 4627TIP3    H235297   0.475   1.514   6.033 -0.1624  0.0380  1.3457
 4628TIP3   OH235298   0.882   3.250   4.880  0.0440  0.2936 -0.2463
 4628TIP3    H135299   0.790   3.273   4.868 -0.5257 -0.6925  1.8806
 4628TIP3    H235300   0.883   3.154   4.886  0.6682  0.3849  3.1286
 4629TIP3   OH235301   3.036   0.726   4.234  0.1922  0.4221 -0.0197
 4629TIP3    H135302   3.115   0.723   4.287  0.5126  0.3205 -0.4949
 4629TIP3    H235303   3.031   0.639   4.193  0.1914  0.6369 -0.4902
 4630TIP3   OH235304   0.512   1.257  14.043 -0.5728 -0.3560 -0.5644
 4630TIP3    H135305   0.584   1.297  14.092  0.2733 -1.3655 -0.9489
 4630TIP3    H235306   0.434   1.303  14.074  0.3367  1.5503 -0.9696
 4631TIP3   OH235307   3.382   1.379   1.569 -0.4068 -0.8462 -0.5940
 4631TIP3    H135308   3.414   1.309   1.512 -0.8413 -0.4680 -1.3176
 4631TIP3    H235309   3.461   1.416   1.608 -0.0451 -0.6878 -1.4571
 4632TIP3   OH235310   0.319   2.940  14.236  0.7882  0.6761 -0.1060
 4632TIP3    H135311   0.324   3.034  14.249  0.7164  0.7400 -0.5103
 4632TIP3    H235312   0.411   2.912  14.232  0.8470  0.4032  2.1264
 4633TIP3   OH235313   6.342   2.463   0.644 -0.4091 -0.3501 -0.0838
 4633TIP3    H135314   6.373   2.546   0.609  0.2578  0.2881  1.8742
 4633TIP3    H235315   6.383   2.396   0.589  0.1519  0.5825 -0.8205
 4634TIP3   OH235316   3.825   6.104  15.344  0.3685  0.4981 -0.1052
 4634TIP3    H135317   3.753   6.044  15.326 -0.6779  2.2855 -2.4138
 4634TIP3    H235318   3.803   6.144  15.428  0.4371 -1.3535  0.8413
 4635TIP3   OH235319   2.002   1.161   1.056  0.1092 -0.4807  0.3345
 4635TIP3    H135320   1.987   1.108   0.978 -1.4137 -0.5026  0.6057
 4635TIP3    H235321   1.961   1.111   1.127 -1.5558  1.0927  0.5599
 4636TIP3   OH235322   1.150   0.807  15.138  0.3631 -0.1197 -0.2455
 4636TIP3    H135323   1.115   0.767  15.059  0.4434  0.9670 -0.8473
 4636TIP3    H235324   1.076   0.810  15.199  0.4624 -1.5499 -0.0232
 4637TIP3   OH235325   4.370   3.267  13.791 -0.2879 -0.3062 -0.0478
 4637TIP3    H135326   4.305   3.283  13.859 -0.3453  0.4282 -0.2627
 4637TIP3    H235327   4.366   3.173  13.775 -0.9667 -0.3373  0.2735
 4638TIP3   OH235328   5.590   1.248   5.200 -0.1740  0.1835  0.3262
 4638TIP3    H135329   5.611   1.171   5.253 -1.3435  0.7926  1.7509
 4638TIP3    H235330   5.507   1.225   5.158  0.7481 -0.2994 -1.3175
 4639TIP3   OH235331   5.005   0.640  14.391 -0.2211 -0.2452  0.2583
 4639TIP3    H135332   5.078   0.694  14.418 -1.1207  1.0585  0.1865
 4639TIP3    H235333   4.946   0.700  14.346 -0.6121 -1.5699 -1.0899
 4640TIP3   OH235334   5.500   0.215   1.372 -0.3877  0.5252  0.3383
 4640TIP3    H135335   5.498   0.194   1.279 -1.9276  1.0699  0.2096
 4640TIP3    H235336   5.407   0.217   1.398  0.0125  0.0384  1.9669
 4641TIP3   OH235337   6.243   0.691   3.552 -0.5291 -0.1683  0.3827
 4641TIP3    H135338   6.212   0.607   3.518 -0.3461 -0.7609  1.6476
 4641TIP3    H235339   6.319   0.669   3.606 -0.2317  0.8587  0.4074
 4642TIP3   OH235340   2.347   6.567  15.785 -0.5215  0.3446  0.4104
 4642TIP3    H135341   2.341   6.651  15.740 -2.1162  0.6903  1.2036
 4642TIP3    H235342   2.394   6.510  15.724  1.2393  1.9777  0.1467
 4643TIP3   OH235343   0.163   2.293   2.477  0.3426  0.2255  0.0374
 4643TIP3    H135344   0.223   2.306   2.551 -0.4626 -0.2777  0.7984
 4643TIP3    H235345   0.166   2.199   2.460 -1.6199 -0.1077  1.3164
 4644TIP3   OH235346   4.182   0.998   5.499 -0.3483 -0.2994  0.0481
 4644TIP3    H135347   4.200   1.092   5.507 -0.5323 -0.1310 -1.2793
 4644TIP3    H235348   4.157   0.971   5.587  0.9960  0.6098  0.7488
 4645TIP3   OH235349   3.171   5.033  10.671  0.3616  0.0839 -0.1764
 4645TIP3    H135350   3.141   5.123  10.674  0.0562  0.1693 -3.0599
 4645TIP3    H235351   3.256   5.037  10.628 -0.2967 -1.0763 -1.6878
 4646TIP3   OH235352   0.749   1.335   4.423 -0.7648 -0.5751 -0.1834
 4646TIP3    H135353   0.777   1.323   4.513 -1.3187  1.3318  0.2724
 4646TIP3    H235354   0.808   1.278   4.372  1.7588  0.7635  1.0459
 4647TIP3   OH235355   4.332   0.220   5.602  0.2446  0.1405  0.1525
 4647TIP3    H135356   4.427   0.218   5.614  0.2524  0.3189  0.1137
 4647TIP3    H235357   4.320   0.212   5.507  0.2230  0.2332  0.1481
 4648TIP3   OH235358   5.198   2.567   6.439 -0.2993 -0.1289  0.2356
 4648TIP3    H135359   5.265   2.530   6.496  0.9928 -0.7694 -1.5673
 4648TIP3    H235360   5.234   2.653   6.414  1.1837 -1.4580 -2.6803
 4649TIP3   OH235361   5.921   5.931   1.753  0.4698  0.2120  0.2444
 4649TIP3    H135362   5.835   5.974   1.749  0.9230  1.0617 -1.0737
 4649TIP3    H235363   5.968   5.978   1.822 -0.0986 -0.2246  0.9384
 4650TIP3   OH235364   1.488   0.295  11.248  0.2363  0.4189 -0.0968
 4650TIP3    H135365   1.577   0.297  11.282 -0.1392  1.1178  0.8789
 4650TIP3    H235366   1.459   0.386  11.250  0.3756  0.6319 -2.8891
 4651TIP3   OH235367   0.283   1.584   3.641  0.2004 -0.1750  0.0053
 4651TIP3    H135368   0.262   1.539   3.559  0.4882  1.7442 -1.2117
 4651TIP3    H235369   0.379   1.589   3.641  0.2686 -1.2669  1.1129
 4652TIP3   OH235370   5.155   1.973   5.939 -0.1260 -0.5014  0.3200
 4652TIP3    H135371   5.178   1.896   5.887  2.1674 -1.3047  2.3473
 4652TIP3    H235372   5.090   1.942   6.002 -1.1784 -0.0809 -0.5208
 4653TIP3   OH235373   0.793   3.352   0.428 -0.3779  0.0667 -0.6121
 4653TIP3    H135374   0.790   3.295   0.351  0.8557  1.1300 -1.4922
 4653TIP3    H235375   0.867   3.410   0.412 -0.2648  0.5064  1.2652
 4654TIP3   OH235376   4.863   0.584   2.959  0.6779  0.2462  0.3238
 4654TIP3    H135377   4.795   0.574   3.025  1.5397 -1.2722  1.0398
 4654TIP3    H235378   4.849   0.511   2.898  0.7580  0.7982 -0.3770
 4655TIP3   OH235379   3.345   6.127   0.007  0.3941 -0.2182 -0.5540
 4655TIP3    H135380   3.318   6.122   0.099  1.3780 -1.6050 -0.2912
 4655TIP3    H235381   3.278   6.078  -0.040 -1.1267  2.0408 -0.8921
 4656TIP3   OH235382   1.861   5.705  16.700 -0.1875  0.0791 -0.0850
 4656TIP3    H135383   1.866   5.689  16.795 -2.7127 -0.5548 -0.0001
 4656TIP3    H235384   1.851   5.800  16.693 -1.1275  0.0239  0.3703
 4657TIP3   OH235385   2.549   3.606  13.009  0.3875  0.0815  0.3078
 4657TIP3    H135386   2.578   3.695  12.990  0.8500  0.0727  0.9539
 4657TIP3    H235387   2.630   3.558  13.027  0.2598 -0.7625 -1.1745
 4658TIP3   OH235388   4.392   0.751  11.996 -0.3771 -0.0064 -0.6710
 4658TIP3    H135389   4.351   0.830  11.960 -1.4123 -0.5900 -0.8170
 4658TIP3    H235390   4.455   0.784  12.059 -0.4208  0.9572 -1.1139
 4659TIP3   OH235391   3.025   3.999   5.783 -0.2684 -0.1122 -0.5993
 4659TIP3    H135392   3.016   3.985   5.877  0.5782  0.3548 -0.4418
 4659TIP3    H235393   3.115   4.030   5.771 -1.2365  2.8621 -1.1794
 4660TIP3   OH235394   0.731   3.472   3.736  0.8709  0.2286  0.1977
 4660TIP3    H135395   0.759   3.563   3.723  0.2663  0.4633  0.5170
 4660TIP3    H235396   0.800   3.433   3.790  2.1279 -0.0554 -1.5157
 4661TIP3   OH235397   6.659   1.938  10.611  0.0266  0.3142  0.4987
 4661TIP3    H135398   6.679   1.862  10.557  2.3209  2.4151 -1.9191
 4661TIP3    H235399   6.732   1.944  10.673  0.3430  1.0341  0.0655
 4662TIP3   OH235400   3.788   1.222   2.464  0.1726 -0.4803 -0.4027
 4662TIP3    H135401   3.732   1.190   2.393 -0.5027 -3.8711  1.4478
 4662TIP3    H235402   3.728   1.238   2.537  1.2292 -1.0305  0.6354
 4663TIP3   OH235403   6.429   4.580   1.587  0.4535 -0.3487 -0.7105
 4663TIP3    H135404   6.361   4.644   1.608 -0.0646 -0.8423 -0.8832
 4663TIP3    H235405   6.511   4.629   1.598  0.2085 -0.3821  1.7808
 4664TIP3   OH235406   2.643   1.322  14.360 -0.3580 -0.1173  0.5125
 4664TIP3    H135407   2.613   1.368  14.438  1.7970 -0.0887  1.3900
 4664TIP3    H235408   2.629   1.384  14.289 -0.2831  0.7292  1.2168
 4665TIP3   OH235409   4.151   2.752   3.722 -0.3717 -0.5207  0.3371
 4665TIP3    H135410   4.155   2.666   3.762 -0.8827  0.3444  2.3571
 4665TIP3    H235411   4.074   2.748   3.664 -0.8026 -1.2047  0.9389
 4666TIP3   OH235412   3.324   5.919   1.762 -0.2378  0.4533  0.1878
 4666TIP3    H135413   3.323   5.832   1.722 -0.3275 -0.0615  1.2620
 4666TIP3    H235414   3.353   5.978   1.692  0.0106 -0.4663 -0.5004
 4667TIP3   OH235415   6.020   5.267  15.099  0.1485  0.6128 -0.1365
 4667TIP3    H135416   6.019   5.360  15.077  0.5572  0.1376 -2.4316
 4667TIP3    H235417   5.928   5.242  15.103  0.0388  0.8692 -0.8252
 4668TIP3   OH235418   5.885   4.828  12.632 -0.0428  0.1069 -0.2457
 4668TIP3    H135419   5.892   4.734  12.620  0.9727 -0.0975  1.5916
 4668TIP3    H235420   5.798   4.841  12.672  0.3282 -0.2211  0.7010
 4669TIP3   OH235421   2.984   1.476  16.222  0.1271  0.5538  0.0034
 4669TIP3    H135422   3.079   1.476  16.213  0.1736 -0.1673  0.3722
 4669TIP3    H235423   2.953   1.543  16.161  0.8122  0.1721 -0.7841
 4670TIP3   OH235424   5.093   1.658  13.812  0.5221 -0.5260 -0.5341
 4670TIP3    H135425   5.000   1.637  13.806  0.4465 -0.1662 -0.6862
 4670TIP3    H235426   5.098   1.721  13.884  0.3621  0.9741 -1.7778
 4671TIP3   OH235427   1.587   6.030  12.934 -0.0608 -0.3805  0.0911
 4671TIP3    H135428   1.544   6.109  12.968  0.1822 -0.5788  0.8743
 4671TIP3    H235429   1.679   6.055  12.929 -0.0674 -0.4227 -0.2244
 4672TIP3   OH235430   3.583   5.586  11.658  0.1496  0.5589 -0.6034
 4672TIP3    H135431   3.650   5.522  11.633  0.0751  0.3177 -0.2062
 4672TIP3    H235432   3.616   5.670  11.626  0.6689  0.4505 -0.3727
 4673TIP3   OH235433   4.640   1.643  15.918  0.2742 -0.1017  0.2947
 4673TIP3    H135434   4.598   1.723  15.885 -0.1640 -0.0376  0.9922
 4673TIP3    H235435   4.701   1.618  15.849 -2.0134 -1.0775 -1.5078
 4674TIP3   OH235436   5.808   3.027  10.801 -0.0487  0.3599  0.1913
 4674TIP3    H135437   5.740   3.089  10.775 -1.1779 -0.8844  0.0832
 4674TIP3    H235438   5.795   3.016  10.895 -0.2385 -0.1414  0.1108
 4675TIP3   OH235439   4.755   5.216  13.644  0.2265 -0.2942  0.2523
 4675TIP3    H135440   4.760   5.307  13.615  0.2284 -0.2404  0.4220
 4675TIP3    H235441   4.703   5.173  13.577  2.0096 -0.6301 -0.9847
 4676TIP3   OH235442   2.229   3.554  17.026 -0.0877 -0.2630 -0.2593
 4676TIP3    H135443   2.148   3.598  17.001  0.0061  0.3403  0.4697
 4676TIP3    H235444   2.250   3.588  17.113 -0.0212 -1.7884  0.3544
 4677TIP3   OH235445   1.366   3.644  13.120 -0.0942  0.0604  1.0496
 4677TIP3    H135446   1.444   3.591  13.139  0.7915 -0.9739 -4.0330
 4677TIP3    H235447   1.399   3.733  13.115  0.6903 -0.2731 -0.2602
 4678TIP3   OH235448   1.085   4.814   6.670 -0.3057  0.1072  0.0581
 4678TIP3    H135449   1.119   4.725   6.660 -0.9360  0.0347 -1.7717
 4678TIP3    H235450   0.992   4.806   6.648 -0.6541  0.9990  1.1544
 4679TIP3   OH235451   3.364   3.316  14.097  0.2694  0.0014  0.1585
 4679TIP3    H135452   3.342   3.355  14.182 -2.1906  0.5949 -0.6733
 4679TIP3    H235453   3.458   3.330  14.088  0.7123 -0.5904  3.0069
 4680TIP3   OH235454   0.704   0.404  16.498 -0.0261  0.3218 -0.6055
 4680TIP3    H135455   0.775   0.446  16.449  0.1826  0.7410  0.0369
 4680TIP3    H235456   0.678   0.330  16.444  0.5693  0.4537 -1.0841
 4681TIP3   OH235457   3.720   2.939   4.188  0.4778  0.1348  0.2345
 4681TIP3    H135458   3.744   3.027   4.217 -1.4673  1.2446 -1.2803
 4681TIP3    H235459   3.730   2.885   4.266 -1.0821  2.2659  2.0473
 4682TIP3   OH235460   0.665   2.023   0.289  0.2229  0.4790  0.0165
 4682TIP3    H135461   0.630   1.975   0.363  0.2488  0.0457 -0.2511
 4682TIP3    H235462   0.695   2.106   0.326 -1.2498  0.9438  0.2294
 4683TIP3   OH235463   4.919   5.808  11.590 -0.1733  0.1597  0.0978
 4683TIP3    H135464   4.827   5.789  11.611 -0.3406 -0.2152 -0.9317
 4683TIP3    H235465   4.936   5.893  11.630 -0.8502  0.0556  0.6277
 4684TIP3   OH235466   6.543   6.288  15.133 -0.0027  0.5500  0.2938
 4684TIP3    H135467   6.454   6.271  15.165 -0.4087 -2.8521 -2.0890
 4684TIP3    H235468   6.533   6.363  15.075 -1.1195  0.8107  0.7890
 4685TIP3   OH235469   6.455   1.903  16.636  0.2012  0.3235 -0.5205
 4685TIP3    H135470   6.452   1.822  16.686  1.1741 -0.0526 -1.0436
 4685TIP3    H235471   6.392   1.890  16.565 -0.0678  0.2557 -0.2674
 4686TIP3   OH235472   2.458   4.684   5.198  0.4660 -0.2659  0.3611
 4686TIP3    H135473   2.448   4.756   5.135  1.2350  0.1393  0.6834
 4686TIP3    H235474   2.552   4.663   5.195  0.0907 -1.9888 -0.5114
 4687TIP3   OH235475   4.278   3.577   0.460  0.2146 -0.2233 -1.2755
 4687TIP3    H135476   4.327   3.648   0.419  1.0691 -0.9054 -1.4713
 4687TIP3    H235477   4.207   3.557   0.397  1.8417 -1.6439 -2.7831
 4688TIP3   OH235478   3.855   1.588  15.563  0.4264 -0.1224 -0.2945
 4688TIP3    H135479   3.842   1.657  15.498  1.7329  0.8194  0.3822
 4688TIP3    H235480   3.800   1.516  15.534 -2.0747  1.6634 -0.3278
 4689TIP3   OH235481   2.999   5.953  14.068 -0.2798  0.7723 -0.0351
 4689TIP3    H135482   2.994   6.036  14.115 -0.7476  0.3204  0.7395
 4689TIP3    H235483   2.913   5.911  14.083  0.1643 -0.1187  0.1170
 4690TIP3   OH235484   2.273   1.612  16.199 -0.4211 -0.0747  0.4354
 4690TIP3    H135485   2.280   1.520  16.226  0.2913  0.2368  1.3436
 4690TIP3    H235486   2.182   1.621  16.171 -0.4928 -1.0708  0.2878
 4691TIP3   OH235487   4.642   3.148   4.046 -0.6834 -0.2509  0.2188
 4691TIP3    H135488   4.686   3.110   4.122  0.1252  0.4775  0.1231
 4691TIP3    H235489   4.560   3.183   4.081  0.4606  1.6528  1.1306
 4692TIP3   OH235490   2.639   2.908  13.392 -0.1072 -0.4967  0.0243
 4692TIP3    H135491   2.733   2.897  13.375 -0.2923 -0.8421 -0.8602
 4692TIP3    H235492   2.619   2.841  13.457  0.3315 -0.1767  0.4939
 4693TIP3   OH235493   4.578   6.039   1.616 -0.2943 -0.1237  0.4058
 4693TIP3    H135494   4.576   6.043   1.712  2.3801  0.6098  0.5058
 4693TIP3    H235495   4.533   6.119   1.588 -0.5576 -0.0413  1.0425
 4694TIP3   OH235496   4.820   6.206  13.793  0.1536 -0.0956 -0.4557
 4694TIP3    H135497   4.731   6.184  13.819  0.2349  0.4601  0.3063
 4694TIP3    H235498   4.831   6.297  13.819  1.4566 -0.5983  0.9002
 4695TIP3   OH235499   1.102   3.892  11.019 -0.3808  0.8219 -0.1372
 4695TIP3    H135500   1.012   3.923  11.012 -0.2657  1.0335 -0.7394
 4695TIP3    H235501   1.153   3.969  11.044 -0.1425  1.0568 -1.3176
 4696TIP3   OH235502   6.367   1.881  16.148 -0.3693 -0.1564 -0.0935
 4696TIP3    H135503   6.448   1.843  16.182 -1.3827 -2.7397 -0.3672
 4696TIP3    H235504   6.340   1.944  16.216  1.5923  0.4299  0.1944
 4697TIP3   OH235505   6.598   2.333   0.189 -0.5001 -0.2510  0.1477
 4697TIP3    H135506   6.534   2.282   0.139  0.3026 -1.0192 -0.1267
 4697TIP3    H235507   6.564   2.422   0.188 -0.2819 -0.1231 -2.2299
 4698TIP3   OH235508   1.254   6.599  14.940 -0.1296 -0.3947 -0.5392
 4698TIP3    H135509   1.316   6.667  14.914  2.0170 -1.3993  1.5371
 4698TIP3    H235510   1.205   6.638  15.013  1.8292 -1.2720  1.3647
 4699TIP3   OH235511   4.558   4.208   6.300  0.1987 -0.1946 -0.2444
 4699TIP3    H135512   4.481   4.262   6.279  0.8790  1.0830  0.3983
 4699TIP3    H235513   4.523   4.119   6.309 -1.2632  0.3966  0.3230
 4700TIP3   OH235514   1.874   5.251  11.413 -0.2681 -0.0687 -0.0242
 4700TIP3    H135515   1.883   5.186  11.344 -1.1074 -0.9952  0.7298
 4700TIP3    H235516   1.964   5.269  11.441  0.1989  1.1656 -2.0786
 4701TIP3   OH235517   1.618   5.707  16.553  0.1472 -0.0313 -0.0276
 4701TIP3    H135518   1.680   5.717  16.625  0.4821 -2.2127  0.0528
 4701TIP3    H235519   1.533   5.730  16.591  0.4294 -0.4271  0.8738
 4702TIP3   OH235520   5.258   1.820  15.654 -0.4204 -0.0458  0.2710
 4702TIP3    H135521   5.348   1.823  15.621  1.0013 -0.3142  3.6709
 4702TIP3    H235522   5.216   1.752  15.603  1.0691  0.5445 -1.8915
 4703TIP3   OH235523   6.577   0.312   2.932 -0.8826  0.4927 -0.3296
 4703TIP3    H135524   6.493   0.282   2.965 -0.2533 -1.4791 -0.4179
 4703TIP3    H235525   6.617   0.359   3.005 -1.3702  0.0192  0.2469
 4704TIP3   OH235526   1.287   2.083  14.758 -0.0325  0.3794  0.4303
 4704TIP3    H135527   1.212   2.042  14.802 -0.2150 -0.7405 -0.8466
 4704TIP3    H235528   1.248   2.146  14.698 -0.1681 -1.4699 -1.5742
 4705TIP3   OH235529   2.141   3.523  11.833  0.0808  0.1720  0.5035
 4705TIP3    H135530   2.137   3.495  11.741 -3.4303  0.9261  0.2793
 4705TIP3    H235531   2.180   3.610  11.829 -1.7985  1.0401 -0.6352
 4706TIP3   OH235532   2.015   0.226  12.820  0.4110  0.0600 -0.4703
 4706TIP3    H135533   2.080   0.268  12.877 -0.3166  1.9704 -0.9770
 4706TIP3    H235534   1.950   0.190  12.880  0.3984  0.8069 -0.0149
 4707TIP3   OH235535   4.795   5.392   2.294  0.2062  0.1736 -0.1366
 4707TIP3    H135536   4.888   5.413   2.307 -0.1510  2.0525 -0.2569
 4707TIP3    H235537   4.748   5.464   2.337 -1.1654  0.0376 -1.3231
 4708TIP3   OH235538   6.581   1.067   0.577  0.3277 -0.1064 -0.2184
 4708TIP3    H135539   6.536   0.992   0.539 -0.7929  0.5258 -0.2031
 4708TIP3    H235540   6.560   1.140   0.518  0.6826  0.3694  0.2286
 4709TIP3   OH235541   2.103   2.264   0.687 -0.4962  0.3942  0.1999
 4709TIP3    H135542   2.133   2.276   0.597 -1.6100  0.1003 -0.2291
 4709TIP3    H235543   2.080   2.352   0.716  2.7916  1.0177  1.3400
 4710TIP3   OH235544   3.396   6.211  14.233  0.3044  0.2678  0.5738
 4710TIP3    H135545   3.433   6.235  14.148 -2.0295  0.5592 -0.4357
 4710TIP3    H235546   3.413   6.117  14.240  0.8562  0.3149 -0.0415
 4711TIP3   OH235547   0.562   1.292   0.443 -0.3292 -0.1944  0.3653
 4711TIP3    H135548   0.578   1.198   0.454 -0.3089 -0.2332  0.0041
 4711TIP3    H235549   0.648   1.332   0.450 -0.3547 -0.1888  0.6577
 4712TIP3   OH235550   3.217   4.253   5.630 -0.5867 -0.1037 -0.0967
 4712TIP3    H135551   3.256   4.201   5.701 -0.6488  1.5606  1.2297
 4712TIP3    H235552   3.202   4.190   5.560  0.7730 -1.5695  0.8407
 4713TIP3   OH235553   6.711   0.623  12.685  0.0875 -0.3716  0.0790
 4713TIP3    H135554   6.673   0.539  12.658  1.1016 -0.4919 -1.0489
 4713TIP3    H235555   6.655   0.689  12.644 -0.0305 -0.5050  0.0253
 4714TIP3   OH235556   5.777   0.707  13.367  0.0862  0.1488  0.4103
 4714TIP3    H135557   5.752   0.711  13.275  1.4258  0.9337  0.0522
 4714TIP3    H235558   5.709   0.756  13.413  0.1894  1.0344 -0.3567
 4715TIP3   OH235559   4.340   6.207  15.704  0.4384 -0.1373  0.0664
 4715TIP3    H135560   4.325   6.239  15.615 -1.2665 -0.5575  0.1563
 4715TIP3    H235561   4.291   6.124  15.708 -1.2080  0.8393  1.9609
 4716TIP3   OH235562   5.648   6.521  13.491  0.4504  0.4145  0.1649
 4716TIP3    H135563   5.626   6.591  13.552  1.6156  1.9493 -1.0993
 4716TIP3    H235564   5.705   6.562  13.427 -0.4069 -1.2230 -1.7559
 4717TIP3   OH235565   4.909   2.103   5.844  0.1267 -0.3406 -0.8318
 4717TIP3    H135566   4.977   2.036   5.851  0.1549 -0.1985  0.7953
 4717TIP3    H235567   4.858   2.093   5.925 -1.3162  0.0671 -1.6584
 4718TIP3   OH235568   4.895   5.578   0.706  0.1830 -0.2134  0.1684
 4718TIP3    H135569   4.810   5.535   0.711  0.1364 -0.2994 -1.0883
 4718TIP3    H235570   4.949   5.519   0.654 -0.1760  1.6359 -2.4867
 4719TIP3   OH235571   0.552   4.839  15.837 -0.1060  0.0617 -0.5350
 4719TIP3    H135572   0.581   4.803  15.920  0.2454  1.8180  0.1571
 4719TIP3    H235573   0.633   4.859  15.790 -0.2901 -0.2703 -0.9964
 4720TIP3   OH235574   4.206   6.056  15.027 -0.6616 -0.2060 -0.0799
 4720TIP3    H135575   4.147   5.981  15.026  0.2831 -0.9759 -0.7791
 4720TIP3    H235576   4.156   6.127  14.987 -1.1512 -0.8204 -0.5797
 4721TIP3   OH235577   0.219   4.325  11.663 -0.1213  0.1576 -0.4205
 4721TIP3    H135578   0.134   4.337  11.706  0.7368 -0.9711  1.7507
 4721TIP3    H235579   0.253   4.414  11.652  0.0042  0.5215  2.2209
 4722TIP3   OH235580   6.316   4.217  15.059  0.1439  0.7238  0.0632
 4722TIP3    H135581   6.256   4.274  15.108  0.1879  2.4428 -1.7443
 4722TIP3    H235582   6.327   4.140  15.115 -1.0542  1.8591  1.9819
 4723TIP3   OH235583   1.634   2.296  12.344 -0.1208 -0.5182  0.2794
 4723TIP3    H135584   1.650   2.302  12.438  0.4397  2.2979  0.0692
 4723TIP3    H235585   1.576   2.220  12.335  1.3936 -2.0729  2.6392
 4724TIP3   OH235586   4.489   4.136   5.665  0.1055  0.0285 -0.1215
 4724TIP3    H135587   4.430   4.062   5.652  0.2852 -0.2296  0.4880
 4724TIP3    H235588   4.449   4.186   5.736  0.7580 -0.3051  0.4977
 4725TIP3   OH235589   1.058   3.157   0.657 -0.0488 -0.3132  0.7211
 4725TIP3    H135590   1.142   3.112   0.645 -0.2609 -0.7233  0.7542
 4725TIP3    H235591   1.070   3.242   0.614  0.5461 -0.1735  1.1446
 4726TIP3   OH235592   4.933   5.238   1.326  0.5083 -0.3975 -0.3915
 4726TIP3    H135593   4.942   5.177   1.400 -1.4751 -1.2754 -0.7897
 4726TIP3    H235594   4.859   5.294   1.351 -0.6200 -1.1282 -1.9347
 4727TIP3   OH235595   6.256   5.252  10.848  0.0692 -0.1258 -0.0220
 4727TIP3    H135596   6.348   5.231  10.859  0.7289  0.9613 -2.6344
 4727TIP3    H235597   6.250   5.345  10.872 -0.4236 -0.2580  0.3882
 4728TIP3   OH235598   4.373   3.304   6.043  0.6089 -0.3306 -0.1916
 4728TIP3    H135599   4.428   3.379   6.021  1.7062 -1.2129 -0.5629
 4728TIP3    H235600   4.319   3.334   6.116  0.5584  1.0145 -0.7519
 4729TIP3   OH235601   5.369   1.698   4.562 -0.9239 -0.1130 -0.2453
 4729TIP3    H135602   5.323   1.713   4.645 -1.2080 -0.9128 -0.2519
 4729TIP3    H235603   5.420   1.619   4.577  0.0884  0.5064 -0.3983
 4730TIP3   OH235604   0.052   3.506  15.397  0.1254 -0.0469  0.2098
 4730TIP3    H135605   0.123   3.512  15.460  0.9325 -0.8447 -0.5991
 4730TIP3    H235606   0.077   3.567  15.327  0.0868 -0.4382 -0.1441
 4731TIP3   OH235607   1.584   1.135   1.486  0.1811 -0.0338  0.0866
 4731TIP3    H135608   1.524   1.131   1.561 -0.9747  0.1831 -0.7836
 4731TIP3    H235609   1.557   1.214   1.439 -1.3673 -1.8469 -2.3089
 4732TIP3   OH235610   5.253   0.834  15.409  0.4013  0.1022 -0.3188
 4732TIP3    H135611   5.257   0.739  15.393 -0.4110  0.0150 -0.0325
 4732TIP3    H235612   5.168   0.848  15.450  1.2815  0.7039  1.3925
 4733TIP3   OH235613   1.656   0.425  13.204 -0.5050  0.0048 -0.2684
 4733TIP3    H135614   1.717   0.496  13.227 -0.5007  0.5665 -1.8925
 4733TIP3    H235615   1.607   0.459  13.129 -0.7267 -1.5990 -0.8793
 4734TIP3   OH235616   0.344   1.894   4.942 -0.3792  0.1765  0.5075
 4734TIP3    H135617   0.358   1.935   5.028  1.5046 -0.4535  0.5543
 4734TIP3    H235618   0.390   1.951   4.881  0.7133 -0.8665  0.3266
 4735TIP3   OH235619   3.515   5.056  15.394  0.0352  0.0277 -0.1720
 4735TIP3    H135620   3.448   5.109  15.436  0.1173 -1.0352  1.3602
 4735TIP3    H235621   3.486   4.965  15.405  1.1472 -0.3937 -0.4838
 4736TIP3   OH235622   6.221   2.688  12.362  0.2341  0.1419  0.0878
 4736TIP3    H135623   6.312   2.681  12.389  0.4256 -2.6345 -0.9837
 4736TIP3    H235624   6.221   2.753  12.291  1.5057 -0.4031 -0.4249
 4737TIP3   OH235625   2.881   3.287   2.433  0.2071 -0.1706  0.0233
 4737TIP3    H135626   2.861   3.368   2.479 -1.3000  0.0139 -0.8908
 4737TIP3    H235627   2.976   3.282   2.433  0.3537  1.8065 -0.2454
 4738TIP3   OH235628   6.410   0.574  16.203 -0.5147  0.0239 -0.7144
 4738TIP3    H135629   6.373   0.652  16.162  0.1590  0.3928 -0.6311
 4738TIP3    H235630   6.503   0.594  16.212 -0.4501 -0.5357 -0.1053
 4739TIP3   OH235631   0.029   5.988  13.781  0.2360  0.1888  0.4078
 4739TIP3    H135632   0.093   6.012  13.848  0.3582 -0.8672  0.6877
 4739TIP3    H235633  -0.055   5.996  13.825  0.1602  1.3898  0.0960
 4740TIP3   OH235634   0.109   4.217   4.692 -0.2513  0.3075 -0.1134
 4740TIP3    H135635   0.180   4.160   4.719  0.5420  0.6580 -1.3690
 4740TIP3    H235636   0.046   4.159   4.649  0.6655  0.3598 -1.6020
 4741TIP3   OH235637   3.996   4.495  15.395  0.4128  0.3817  0.0106
 4741TIP3    H135638   3.902   4.501  15.410  0.4417  3.6598 -0.3822
 4741TIP3    H235639   4.033   4.478  15.481 -0.4338  0.8273  0.4755
 4742TIP3   OH235640   5.845   4.659   4.113  0.1318  0.3121 -0.1865
 4742TIP3    H135641   5.755   4.638   4.090  0.5643 -1.6739 -0.2401
 4742TIP3    H235642   5.851   4.641   4.207  0.1692  1.7216  0.1116
 4743TIP3   OH235643   5.445   0.969  12.484 -0.4507 -0.4165 -0.1549
 4743TIP3    H135644   5.351   0.957  12.473 -0.7954 -1.4876  2.9870
 4743TIP3    H235645   5.482   0.883  12.466 -0.3522 -0.5762  0.7764
 4744TIP3   OH235646   4.434   3.202   3.594  0.9635 -0.3830 -0.5099
 4744TIP3    H135647   4.430   3.107   3.604 -0.7443 -0.2924 -0.0344
 4744TIP3    H235648   4.483   3.231   3.671  0.0469 -0.7763  0.2462
 4745TIP3   OH235649   0.431   4.461  16.401 -0.0560 -0.0792  0.1010
 4745TIP3    H135650   0.467   4.449  16.489 -0.8108  2.8866  0.9360
 4745TIP3    H235651   0.336   4.466  16.415 -0.1245  1.3103 -0.7158
 4746TIP3   OH235652   4.372   6.682   2.729  0.1959 -0.2211 -0.5751
 4746TIP3    H135653   4.462   6.679   2.696  0.5226 -0.1614  0.2774
 4746TIP3    H235654   4.341   6.771   2.709  1.9172  1.4257  3.0463
 4747TIP3   OH235655   4.504   5.006   5.939  0.0358  0.2623 -0.1242
 4747TIP3    H135656   4.590   4.976   5.967 -0.1168 -0.1538 -0.0957
 4747TIP3    H235657   4.506   5.101   5.952  0.5925  0.2937 -0.4033
 4748TIP3   OH235658   1.384   2.317   2.532 -0.5008 -0.7227  0.4358
 4748TIP3    H135659   1.361   2.352   2.619 -0.1047  0.3103  0.1437
 4748TIP3    H235660   1.347   2.229   2.531 -1.2137 -0.4555  1.3606
 4749TIP3   OH235661   2.241   4.811   2.594 -0.1862 -0.2669  0.2175
 4749TIP3    H135662   2.288   4.877   2.645  0.8467 -1.5888  1.0407
 4749TIP3    H235663   2.184   4.767   2.657 -0.1176 -0.8273 -0.0998
 4750TIP3   OH235664   4.405   0.512  11.840  0.3843  0.3510 -0.3015
 4750TIP3    H135665   4.481   0.502  11.783  0.9035  2.8745 -0.1669
 4750TIP3    H235666   4.425   0.589  11.893 -2.4377  1.3849 -0.5746
 4751TIP3   OH235667   5.421   2.125   1.218  0.4997 -0.1806  0.2843
 4751TIP3    H135668   5.420   2.030   1.209  0.9298 -0.1167 -0.4314
 4751TIP3    H235669   5.347   2.155   1.166  2.0670  0.0717 -1.8983
 4752TIP3   OH235670   0.064   6.595   4.438 -0.9414 -0.0121 -0.6680
 4752TIP3    H135671   0.016   6.597   4.521 -1.7392  2.4676 -1.1079
 4752TIP3    H235672   0.116   6.515   4.442 -0.0012  0.6275  2.7629
 4753TIP3   OH235673   6.533   2.070   6.006 -0.7153 -0.5070 -0.0437
 4753TIP3    H135674   6.601   2.007   5.981  0.5091  0.6851  0.1955
 4753TIP3    H235675   6.509   2.044   6.095 -0.8252 -1.1264 -0.2438
 4754TIP3   OH235676   3.029   6.146   5.338  0.1217 -0.2061  0.6962
 4754TIP3    H135677   3.074   6.211   5.391  2.4635  0.1812 -1.5757
 4754TIP3    H235678   3.063   6.062   5.370  0.7030 -0.0365  0.5356
 4755TIP3   OH235679   1.478   2.059  13.807  0.6202  0.2151 -0.1526
 4755TIP3    H135680   1.469   2.153  13.821  2.5971  0.3238  0.6882
 4755TIP3    H235681   1.564   2.049  13.767 -0.2664 -1.1272 -1.8352
 4756TIP3   OH235682   0.390   0.915  14.210  0.9921  0.2139  0.2626
 4756TIP3    H135683   0.338   0.995  14.222  2.8323  1.5927 -0.4508
 4756TIP3    H235684   0.330   0.854  14.168 -1.2012  0.3084  2.9346
 4757TIP3   OH235685   6.584   3.252  15.043  0.2833 -0.0069  0.1092
 4757TIP3    H135686   6.676   3.246  15.067  0.2440  0.6861  0.4476
 4757TIP3    H235687   6.581   3.225  14.951  0.8594  0.2040  0.0276
 4758TIP3   OH235688   3.310   0.187   1.660  0.6657 -0.3296 -0.4817
 4758TIP3    H135689   3.300   0.124   1.731 -0.0084 -0.2564 -0.5063
 4758TIP3    H235690   3.324   0.133   1.582  0.7970 -0.4237 -0.3942
 4759TIP3   OH235691   6.652   0.582  14.344 -0.2535 -0.3851 -0.7739
 4759TIP3    H135692   6.712   0.530  14.291 -0.3296 -0.6807 -0.5746
 4759TIP3    H235693   6.709   0.637  14.398 -0.1833  0.5210 -1.7504
 4760TIP3   OH235694   4.628   2.104   4.819 -0.1932  0.3333 -0.1418
 4760TIP3    H135695   4.605   2.071   4.731 -0.2594  0.6687 -0.2495
 4760TIP3    H235696   4.698   2.046   4.848  1.3595  1.5419 -1.3021
 4761TIP3   OH235697   6.116   4.046  16.036  0.1087  0.0978  0.1874
 4761TIP3    H135698   6.090   3.982  16.101  0.2432 -0.1378  0.0124
 4761TIP3    H235699   6.139   3.994  15.959 -0.4972  0.3938 -0.2053
 4762TIP3   OH235700   3.908   1.932   6.105 -0.7725 -0.1979 -0.1559
 4762TIP3    H135701   3.826   1.964   6.066 -0.7105  0.9104  0.5942
 4762TIP3    H235702   3.883   1.900   6.191 -0.5668 -0.7742 -0.3050
 4763TIP3   OH235703   1.594   1.531  15.243 -0.0920 -0.6889 -0.0978
 4763TIP3    H135704   1.578   1.479  15.322 -1.3988 -1.0214 -0.5502
 4763TIP3    H235705   1.640   1.471  15.184 -2.3329 -1.6989 -0.9400
 4764TIP3   OH235706   4.669   4.723   0.920  0.1334  0.2633 -0.7684
 4764TIP3    H135707   4.625   4.712   1.005  3.1355 -0.7025  0.8310
 4764TIP3    H235708   4.634   4.805   0.885 -2.8688 -0.4381  0.2636
 4765TIP3   OH235709   4.754   4.940  14.099  0.0560  0.3737  0.4220
 4765TIP3    H135710   4.711   4.946  14.014 -0.6554  0.5105  0.7794
 4765TIP3    H235711   4.800   5.023  14.109  1.2406 -0.1677 -0.3966
 4766TIP3   OH235712   6.090   1.491   2.368  0.0844  0.4035  0.0890
 4766TIP3    H135713   6.004   1.490   2.411  0.8522  0.5419  1.6778
 4766TIP3    H235714   6.135   1.414   2.403  0.9646  0.8714  0.0025
 4767TIP3   OH235715   6.494   2.090   0.363 -0.3051  0.2103  0.3099
 4767TIP3    H135716   6.478   2.001   0.330 -0.6058  0.3424  0.1019
 4767TIP3    H235717   6.499   2.144   0.285  0.7296  0.2498  0.3885
 4768TIP3   OH235718   5.309   6.775  13.591 -0.2649 -0.1386  0.4782
 4768TIP3    H135719   5.298   6.695  13.643  0.1118 -0.4641  0.0660
 4768TIP3    H235720   5.226   6.820  13.600 -1.2554 -1.5791 -0.9497
 4769TIP3   OH235721   0.510   2.785  14.647  0.9950 -0.7104  0.4270
 4769TIP3    H135722   0.530   2.878  14.644  2.2371 -0.7224  3.8478
 4769TIP3    H235723   0.557   2.748  14.572  1.4783  1.2562 -0.2959
 4770TIP3   OH235724   5.305   4.145   2.584 -0.5235  0.1162 -0.2405
 4770TIP3    H135725   5.255   4.181   2.510 -0.3424  0.2441 -0.3001
 4770TIP3    H235726   5.362   4.080   2.545 -0.5481  0.0634 -0.1887
 4771TIP3   OH235727   5.268   4.797  14.132 -0.0866  0.1670  0.2822
 4771TIP3    H135728   5.350   4.842  14.114 -0.0441  0.5274  1.3127
 4771TIP3    H235729   5.282   4.708  14.101 -0.1047  0.7614 -1.6079
 4772TIP3   OH235730   1.653   6.351   2.589  0.3052  0.2270 -0.4491
 4772TIP3    H135731   1.739   6.353   2.547  0.3782  0.1443 -0.3048
 4772TIP3    H235732   1.654   6.271   2.642  0.0457  0.0893 -0.6474
 4773TIP3   OH235733   2.998   3.364  15.477  0.1081 -0.0942  0.4265
 4773TIP3    H135734   2.952   3.285  15.508  0.6301 -0.3320  0.6008
 4773TIP3    H235735   3.059   3.331  15.410 -0.3588  0.2939 -0.2026
 4774TIP3   OH235736   4.855   3.114  16.051  0.5181 -0.4499 -0.2369
 4774TIP3    H135737   4.778   3.092  16.102  1.2981  0.7356  1.5737
 4774TIP3    H235738   4.828   3.187  15.995  0.0791 -0.6545 -0.2881
 4775TIP3   OH235739   0.031   3.077  15.487  0.2974 -0.6967 -0.2323
 4775TIP3    H135740   0.022   3.042  15.576  3.5596 -1.8929 -0.2204
 4775TIP3    H235741  -0.004   3.165  15.492  1.9125 -0.0908  2.7637
 4776TIP3   OH235742   2.452   0.544   0.245 -0.6511  0.7839  0.3797
 4776TIP3    H135743   2.506   0.620   0.224 -1.5887  1.8475  1.6717
 4776TIP3    H235744   2.485   0.512   0.329  0.3699 -0.8856 -0.5959
 4777TIP3   OH235745   2.525   6.288   3.957 -0.5268 -0.4172 -0.0965
 4777TIP3    H135746   2.524   6.260   3.865  0.6370 -1.1096  0.0952
 4777TIP3    H235747   2.615   6.316   3.973 -0.9569  0.6875  0.5622
 4778TIP3   OH235748   5.451   6.688   2.567  0.0129 -0.3403 -0.4306
 4778TIP3    H135749   5.380   6.734   2.521  0.7451 -0.6824 -1.9549
 4778TIP3    H235750   5.491   6.632   2.500  1.2194 -0.7587  0.6014
 4779TIP3   OH235751   6.739   2.434   0.837  0.1006 -0.7562  0.0517
 4779TIP3    H135752   6.768   2.435   0.746 -0.0883 -1.6674 -0.0259
 4779TIP3    H235753   6.811   2.393   0.885  1.0826  1.5066  0.6539
 4780TIP3   OH235754   6.075   3.597   0.108  0.3621  0.2176  0.8873
 4780TIP3    H135755   6.040   3.522   0.059 -1.9992  0.1444  2.5088
 4780TIP3    H235756   6.056   3.673   0.052  1.6960 -0.2189 -0.2242
 4781TIP3   OH235757   2.430   0.623  15.953 -0.1169 -0.5382  0.1352
 4781TIP3    H135758   2.428   0.668  15.868  1.0182  1.0595  0.9028
 4781TIP3    H235759   2.342   0.635  15.988  0.0772  0.9563  0.2075
 4782TIP3   OH235760   1.167   3.440   5.826  0.5481 -0.0626  0.2209
 4782TIP3    H135761   1.218   3.374   5.873  2.0479  0.0364 -1.1996
 4782TIP3    H235762   1.201   3.438   5.737  1.0435  3.0140  0.2522
 4783TIP3   OH235763   5.583   5.924  11.625 -0.2506  0.5903 -0.2090
 4783TIP3    H135764   5.532   5.974  11.563 -2.2144 -0.4610  0.4592
 4783TIP3    H235765   5.561   5.962  11.710 -0.1712 -0.0688  0.1138
 4784TIP3   OH235766   3.953   3.269   0.015 -0.2067  0.0914 -0.0191
 4784TIP3    H135767   4.032   3.231  -0.025  0.3180  1.0503  0.0827
 4784TIP3    H235768   3.884   3.256  -0.050  0.0565 -0.6527 -0.1571
 4785TIP3   OH235769   3.989   4.927  11.009  0.3116  0.2866  0.3113
 4785TIP3    H135770   3.942   4.903  11.089 -0.1435  0.2209  0.0244
 4785TIP3    H235771   3.936   4.996  10.969  0.6178  0.4275  0.1410
 4786TIP3   OH235772   1.466   4.421  16.354  0.6142 -0.4395 -0.2515
 4786TIP3    H135773   1.455   4.355  16.285 -2.0889  0.3517 -0.6954
 4786TIP3    H235774   1.470   4.370  16.435  0.8488 -1.2477 -0.7534
 4787TIP3   OH235775   0.452   4.054   2.436  0.8984  0.3181  0.0782
 4787TIP3    H135776   0.465   4.103   2.355  0.7420 -1.0895 -0.8192
 4787TIP3    H235777   0.406   4.116   2.494 -0.3971  0.8411 -1.4445
 4788TIP3   OH235778   1.456   0.178   0.576 -0.3923  0.4629 -0.2024
 4788TIP3    H135779   1.497   0.142   0.654 -1.6959 -1.3529 -0.2922
 4788TIP3    H235780   1.365   0.194   0.601 -0.3261  1.8935 -0.7608
 4789TIP3   OH235781   1.354   3.279   4.344 -0.2895 -0.1228 -0.2714
 4789TIP3    H135782   1.323   3.369   4.331  0.8094  0.2950 -0.1930
 4789TIP3    H235783   1.420   3.287   4.413 -1.8553 -1.3828  1.4650
 4790TIP3   OH235784   0.260   5.289   4.986  0.0407 -0.0313  0.3543
 4790TIP3    H135785   0.343   5.242   4.975 -1.5352 -2.5612 -1.7673
 4790TIP3    H235786   0.277   5.375   4.949  1.7576 -0.4293  0.1087
 4791TIP3   OH235787   5.959   2.581  13.977  0.2021  0.4019  0.5712
 4791TIP3    H135788   5.999   2.511  14.029 -0.2129  0.1981  0.6217
 4791TIP3    H235789   5.902   2.536  13.915  1.3150  0.5941 -0.6311
 4792TIP3   OH235790   6.002   3.096  14.598  0.5505 -0.4249  0.2685
 4792TIP3    H135791   6.017   3.180  14.555  1.8880 -0.9966 -0.4239
 4792TIP3    H235792   6.052   3.033  14.546 -1.3281 -1.8557  0.0961
 4793TIP3   OH235793   0.246   1.307  11.324  0.0188  0.4606  0.4728
 4793TIP3    H135794   0.172   1.358  11.292  0.5838  1.2689  0.4415
 4793TIP3    H235795   0.272   1.351  11.405  0.7983  0.5019  0.2022
 4794TIP3   OH235796   5.347   6.494   5.296 -0.5910 -0.2705  0.3737
 4794TIP3    H135797   5.362   6.400   5.280 -1.0298 -0.4018  0.7056
 4794TIP3    H235798   5.284   6.519   5.229 -0.3795 -0.1823  0.2071
 4795TIP3   OH235799   5.293   2.387  16.938 -0.3142  0.1866 -0.1999
 4795TIP3    H135800   5.372   2.440  16.932  0.0465 -0.4944 -2.1149
 4795TIP3    H235801   5.324   2.296  16.933 -0.9956 -0.2300  2.0815
 4796TIP3   OH235802   2.777   0.522  11.879  0.0007 -0.0188 -0.0740
 4796TIP3    H135803   2.693   0.498  11.916 -0.1913  1.9129  0.8343
 4796TIP3    H235804   2.835   0.448  11.900 -1.2497 -1.0225 -0.0628
 4797TIP3   OH235805   3.589   0.917  16.414  0.2706  0.4827  0.2353
 4797TIP3    H135806   3.495   0.934  16.423  0.0902 -0.7812  1.0504
 4797TIP3    H235807   3.598   0.823  16.433  1.4890  0.2044 -1.3992
 4798TIP3   OH235808   1.349   5.548   4.956  0.2108 -0.0814  0.2027
 4798TIP3    H135809   1.285   5.539   4.885  0.5112  1.4599 -0.2951
 4798TIP3    H235810   1.333   5.635   4.992  0.0380 -0.8348  2.0949
 4799TIP3   OH235811   5.781   0.114   1.251  0.0538  0.2777  0.4513
 4799TIP3    H135812   5.719   0.184   1.230  0.6603  0.8344  0.4657
 4799TIP3    H235813   5.824   0.144   1.331  0.4513 -0.0263  0.3555
 4800TIP3   OH235814   5.952   2.060   3.304 -0.9895 -0.4733  0.2592
 4800TIP3    H135815   5.863   2.053   3.271 -0.6181 -3.3139 -0.3671
 4800TIP3    H235816   5.967   1.978   3.350  0.6738  0.7751  2.1306
 4801TIP3   OH235817   6.364   1.910  15.377 -0.1666 -0.3041 -0.6039
 4801TIP3    H135818   6.440   1.891  15.433 -0.4577  0.3160  0.0080
 4801TIP3    H235819   6.329   1.992  15.411  0.3995  0.7698 -2.5024
 4802TIP3   OH235820   6.024   3.133   1.863 -0.0569 -0.2700 -0.2286
 4802TIP3    H135821   6.067   3.050   1.883 -0.1207 -0.0775  0.7428
 4802TIP3    H235822   6.095   3.197   1.858 -0.1120 -0.1777  0.1525
 4803TIP3   OH235823   5.671   1.141  14.168  0.3803 -0.1069 -0.4048
 4803TIP3    H135824   5.707   1.109  14.251 -1.1453  1.6924  1.0351
 4803TIP3    H235825   5.698   1.232  14.164 -0.7885  0.2217 -1.1482
 4804TIP3   OH235826   3.908   5.921   3.099 -0.3786  0.0983  0.1099
 4804TIP3    H135827   3.967   5.917   3.174  0.2641 -0.6105 -0.4095
 4804TIP3    H235828   3.848   5.992   3.119  1.1562  1.3909  0.2973
 4805TIP3   OH235829   1.817   3.844  11.318 -0.1609  0.1067  0.5199
 4805TIP3    H135830   1.727   3.875  11.324 -0.4238 -0.8967  2.1167
 4805TIP3    H235831   1.844   3.867  11.229 -1.4428  1.8584  0.5312
 4806TIP3   OH235832   1.707   4.840   2.345 -0.1783 -0.4464 -0.0342
 4806TIP3    H135833   1.679   4.811   2.258 -0.7743 -1.5246  0.4995
 4806TIP3    H235834   1.736   4.761   2.389 -1.1265 -0.1529  1.1996
 4807TIP3   OH235835   0.860   0.801   5.758  0.6991 -0.5201 -0.0178
 4807TIP3    H135836   0.898   0.798   5.670 -1.6760  1.0792 -1.2323
 4807TIP3    H235837   0.789   0.737   5.755  0.6272 -0.4810  0.7521
 4808TIP3   OH235838   5.243   5.068   4.215 -0.3347 -0.3976 -0.0167
 4808TIP3    H135839   5.287   5.152   4.226 -0.2669 -0.0887 -2.2071
 4808TIP3    H235840   5.302   5.005   4.257 -0.8160  0.6914  2.4364
 4809TIP3   OH235841   1.507   4.585   2.215 -0.3404 -0.2775  0.6117
 4809TIP3    H135842   1.416   4.555   2.206 -0.8663  1.4983 -0.5359
 4809TIP3    H235843   1.517   4.652   2.147  1.2012  1.0475  2.0610
 4810TIP3   OH235844   5.133   2.729  10.984 -0.8887 -0.3564  0.0456
 4810TIP3    H135845   5.207   2.703  11.039 -0.5323  0.8409  0.1480
 4810TIP3    H235846   5.140   2.674  10.906  0.2924 -0.0436 -0.0822
 4811TIP3   OH235847   4.491   0.708  17.176 -0.6625 -0.0855  0.0827
 4811TIP3    H135848   4.527   0.718  17.088 -0.7165 -1.9894 -0.2046
 4811TIP3    H235849   4.554   0.651  17.221 -0.2177  1.4961  1.5658
 4812TIP3   OH235850   3.202   0.116   6.785  0.1596  0.1284  0.6355
 4812TIP3    H135851   3.295   0.133   6.772 -0.0663  1.3966  0.5675
 4812TIP3    H235852   3.181   0.048   6.721  0.8477  0.4544  0.0488
 4813TIP3   OH235853   1.446   3.670  13.886 -0.0095  0.5014  0.1175
 4813TIP3    H135854   1.524   3.663  13.831 -0.5813  1.6527 -0.8900
 4813TIP3    H235855   1.474   3.723  13.961  1.2076 -2.3656  1.8869
 4814TIP3   OH235856   6.681   2.711  15.731 -0.2222  0.3414  1.0910
 4814TIP3    H135857   6.648   2.697  15.820 -2.6907  0.9128  0.3362
 4814TIP3    H235858   6.727   2.630  15.710 -1.5795 -0.7377  2.0776
 4815TIP3   OH235859   6.691   4.271   3.490 -0.3724 -0.0378 -0.6246
 4815TIP3    H135860   6.767   4.263   3.548 -0.5963  2.3598  0.1277
 4815TIP3    H235861   6.727   4.301   3.407 -0.5333  3.1844  0.3285
 4816TIP3   OH235862   0.248   3.423   3.092 -0.0900  0.1660  0.0538
 4816TIP3    H135863   0.216   3.432   3.003  1.4274  1.9392 -0.3768
 4816TIP3    H235864   0.342   3.441   3.086  0.6819 -2.7608  1.5463
 4817TIP3   OH235865   6.336   4.518  16.734 -0.2347  0.1455 -0.7734
 4817TIP3    H135866   6.356   4.467  16.813 -1.3318 -1.5196 -1.5158
 4817TIP3    H235867   6.324   4.607  16.766 -1.5584 -0.6358  1.1388
 4818TIP3   OH235868   6.127   1.092  12.750 -0.5369  0.1730 -0.5999
 4818TIP3    H135869   6.223   1.088  12.757 -0.4747  0.4755 -1.2306
 4818TIP3    H235870   6.096   1.026  12.812  0.1127 -0.7689 -1.2544
 4819TIP3   OH235871   0.198   5.299   4.131 -0.5550  0.2002 -0.1963
 4819TIP3    H135872   0.205   5.268   4.221 -3.2270  1.9960  0.7456
 4819TIP3    H235873   0.109   5.276   4.104  0.5479 -1.4465 -2.9523
 4820TIP3   OH235874   4.696   6.123  16.095  0.3593 -0.1355  0.0642
 4820TIP3    H135875   4.781   6.101  16.134  0.1288  2.8538  2.6160
 4820TIP3    H235876   4.667   6.041  16.055  3.3321 -1.8992  1.1482
 4821TIP3   OH235877   1.917   4.345   0.313 -0.2853  0.0053 -0.2893
 4821TIP3    H135878   2.003   4.366   0.278 -0.6526 -1.1479 -2.0667
 4821TIP3    H235879   1.925   4.356   0.407  1.7170  0.2035 -0.4484
 4822TIP3   OH235880   3.708   2.317   2.911 -0.1771  0.2688 -0.0680
 4822TIP3    H135881   3.712   2.232   2.956  1.2054 -0.5582 -1.6309
 4822TIP3    H235882   3.794   2.355   2.926 -0.2047  0.6243 -0.7871
 4823TIP3   OH235883   1.937   5.942  14.087 -0.1297  0.1448 -0.0913
 4823TIP3    H135884   2.006   5.960  14.151 -1.5008 -1.8743  2.1329
 4823TIP3    H235885   1.860   5.989  14.120 -1.3290 -2.3154  0.8475
 4824TIP3   OH235886   0.211   4.957   5.519  0.7226 -0.0205 -0.4981
 4824TIP3    H135887   0.277   4.986   5.583 -1.0789  0.3824  1.2699
 4824TIP3    H235888   0.230   4.865   5.505  2.0603  0.2446 -0.5594
 4825TIP3   OH235889   5.641   1.631   3.594 -0.8704  0.0413 -0.3607
 4825TIP3    H135890   5.666   1.581   3.672 -1.5158  0.4915  0.1466
 4825TIP3    H235891   5.719   1.630   3.538  0.1951  1.1930  1.0427
 4826TIP3   OH235892   0.736   6.373   3.315 -0.9134 -0.3525  0.0425
 4826TIP3    H135893   0.804   6.436   3.338 -1.6802  0.1766  0.9848
 4826TIP3    H235894   0.783   6.292   3.297  0.0746  0.4032 -0.9333
 4827TIP3   OH235895   6.603   2.847   2.444 -0.7034 -0.9110  0.2674
 4827TIP3    H135896   6.575   2.770   2.394 -1.3970 -0.7083  0.3424
 4827TIP3    H235897   6.528   2.906   2.442  0.9293  1.3104 -2.7279
 4828TIP3   OH235898   2.684   3.192  15.799 -0.2422  0.4195 -0.6506
 4828TIP3    H135899   2.593   3.207  15.826 -0.0236  1.6695 -0.5670
 4828TIP3    H235900   2.691   3.234  15.713 -0.3518 -1.7035 -1.7808
 4829TIP3   OH235901   6.453   3.949  14.384 -0.2944 -0.2847  0.0741
 4829TIP3    H135902   6.437   3.903  14.466 -1.2162 -0.2614 -0.0778
 4829TIP3    H235903   6.511   3.891  14.335 -0.8460 -0.9447  0.1891
 4830TIP3   OH235904   3.000   0.613  15.530 -0.2464  0.1066 -0.0051
 4830TIP3    H135905   2.999   0.525  15.494  2.1945  0.2154 -0.4932
 4830TIP3    H235906   2.927   0.614  15.592  1.1496 -3.1091  1.9615
 4831TIP3   OH235907   0.999   0.738  12.544  0.0782  0.6300  0.1963
 4831TIP3    H135908   0.937   0.674  12.580  1.5428  0.6364  2.9356
 4831TIP3    H235909   1.050   0.689  12.480  0.5121 -0.7367  1.5408
 4832TIP3   OH235910   0.468   1.673   1.353 -0.0248  0.4062  0.4893
 4832TIP3    H135911   0.468   1.633   1.440  1.8309 -0.5141  0.1294
 4832TIP3    H235912   0.494   1.764   1.368  1.8511 -0.1409  0.8071
 4833TIP3   OH235913   2.286   5.489  15.916 -0.5763 -0.5391 -0.2480
 4833TIP3    H135914   2.278   5.579  15.948 -0.4278 -0.7334  0.3619
 4833TIP3    H235915   2.195   5.459  15.904 -0.6348 -0.4297 -0.0827
 4834TIP3   OH235916   0.268   2.505  16.832  0.6269  0.3602 -0.9732
 4834TIP3    H135917   0.346   2.497  16.777  1.1855 -0.2208 -0.1241
 4834TIP3    H235918   0.237   2.594  16.817  0.8083  0.2502 -2.1484
 4835TIP3   OH235919   4.473   5.712  15.558  0.2269  0.2437  0.2920
 4835TIP3    H135920   4.512   5.796  15.536  2.7250 -1.2208 -1.4344
 4835TIP3    H235921   4.481   5.705  15.653 -0.6765  2.1882  0.5587
 4836TIP3   OH235922   3.950   1.751  13.148  0.1294 -0.0087 -0.7371
 4836TIP3    H135923   3.922   1.752  13.239  0.1714  0.5611 -0.7237
 4836TIP3    H235924   3.996   1.668  13.137 -0.7149 -0.5177 -0.5004
 4837TIP3   OH235925   0.978   1.733   2.073 -0.5858 -0.0664 -0.5987
 4837TIP3    H135926   0.990   1.679   1.994 -0.4177 -1.8590  0.5844
 4837TIP3    H235927   0.950   1.670   2.140  1.7855  0.9065  1.4454
 4838TIP3   OH235928   3.178   0.004  16.207 -0.4193  0.3302 -0.6975
 4838TIP3    H135929   3.206  -0.027  16.293  0.4621  1.8247 -0.4112
 4838TIP3    H235930   3.188  -0.072  16.149 -2.4883 -1.1563  0.7601
 4839TIP3   OH235931   5.779   0.112  16.253  0.4403 -0.3675 -0.0665
 4839TIP3    H135932   5.730   0.178  16.301  1.6493  0.6825 -0.2077
 4839TIP3    H235933   5.742   0.028  16.281 -1.5029  0.3685 -0.2989
 4840TIP3   OH235934   1.923   0.595  11.820  0.0380  0.1739  0.6066
 4840TIP3    H135935   1.970   0.666  11.864  1.3965 -0.7028  0.6005
 4840TIP3    H235936   1.938   0.519  11.875  0.1229 -0.5084 -0.3413
 4841TIP3   OH235937   2.665   0.846  16.215  0.0101 -0.2774  0.3661
 4841TIP3    H135938   2.635   0.872  16.128 -2.2830 -0.0312  1.1725
 4841TIP3    H235939   2.597   0.877  16.274  2.3516  1.1718  2.4942
 4842TIP3   OH235940   3.554   1.424   2.334 -0.0127  0.3117 -0.1146
 4842TIP3    H135941   3.517   1.383   2.256 -1.0444  0.2878  0.3691
 4842TIP3    H235942   3.583   1.510   2.304  0.0803  0.1060 -0.6350
 4843TIP3   OH235943   4.513   3.442   5.695  0.8322  0.1826  0.1938
 4843TIP3    H135944   4.479   3.415   5.609  3.1412  1.8361 -1.3679
 4843TIP3    H235945   4.559   3.364   5.727 -0.7680 -0.7243  0.3837
 4844TIP3   OH235946   2.640   5.786   0.815 -0.4927 -0.2162  0.1096
 4844TIP3    H135947   2.611   5.802   0.725  1.3866 -1.7578 -0.8409
 4844TIP3    H235948   2.624   5.693   0.830 -0.7833  0.0192  1.3947
 4845TIP3   OH235949   4.930   2.394   5.592  0.1870  0.4160  0.2294
 4845TIP3    H135950   4.964   2.459   5.531 -2.2351  1.1600 -0.4319
 4845TIP3    H235951   4.890   2.445   5.662  1.1270 -0.4269  1.4211
 4846TIP3   OH235952   4.082   1.151   2.798 -0.0922  0.1946  0.1309
 4846TIP3    H135953   3.998   1.196   2.805  0.4327  1.4204 -1.0453
 4846TIP3    H235954   4.063   1.062   2.825 -1.7503  0.4681  0.0025
 4847TIP3   OH235955   2.429   5.219   4.491  0.6361  0.1075  0.1017
 4847TIP3    H135956   2.400   5.297   4.444  0.9684  0.1326 -0.0665
 4847TIP3    H235957   2.444   5.249   4.580  2.2051  0.5881 -0.2986
 4848TIP3   OH235958   1.882   3.165  14.337  0.1515 -0.5304 -0.3079
 4848TIP3    H135959   1.821   3.113  14.388 -1.1901  0.7984 -0.4799
 4848TIP3    H235960   1.828   3.209  14.272  0.7684  2.9042  1.2880
 4849TIP3   OH235961   6.264   0.113  16.052  0.5652 -0.1004  0.1174
 4849TIP3    H135962   6.253   0.104  16.146 -0.7969  0.4553  0.0316
 4849TIP3    H235963   6.337   0.055  16.031  2.3337  1.3553  1.8116
 4850TIP3   OH235964   6.630   2.372  15.957  0.4711 -0.0449  0.0130
 4850TIP3    H135965   6.563   2.329  16.010  0.0402 -0.5522 -0.9311
 4850TIP3    H235966   6.600   2.362  15.867  1.1653  0.8671 -0.3312
 4851TIP3   OH235967   2.517   4.800   1.038 -0.2413 -0.2402 -0.2485
 4851TIP3    H135968   2.607   4.788   1.008  0.1365  0.1572  0.6954
 4851TIP3    H235969   2.489   4.712   1.065  0.6170 -0.0271  1.4596
 4852TIP3   OH235970   4.266   5.209   0.559 -0.1530 -0.0966  0.2728
 4852TIP3    H135971   4.225   5.231   0.642 -1.9648 -0.1929 -0.5356
 4852TIP3    H235972   4.198   5.226   0.494  1.0908 -0.3622 -1.1549
 4853TIP3   OH235973   5.962   0.410   4.628  0.1730  0.5408 -0.0751
 4853TIP3    H135974   6.028   0.408   4.698 -0.1543 -2.8581  0.3171
 4853TIP3    H235975   6.002   0.360   4.556 -0.6911  1.3689 -1.1608
 4854TIP3   OH235976   1.468   0.450   5.480 -0.0506 -0.2020  0.1011
 4854TIP3    H135977   1.399   0.393   5.514 -1.8919  1.0247 -1.3244
 4854TIP3    H235978   1.528   0.391   5.435 -0.7052 -1.2175  0.5167
 4855TIP3   OH235979   2.320   6.772   6.089 -0.1542 -0.1901  0.2605
 4855TIP3    H135980   2.412   6.747   6.098  0.6385  1.6454 -1.7696
 4855TIP3    H235981   2.322   6.861   6.056 -2.6987 -0.0462  0.2536
 4856TIP3   OH235982   2.322   2.874  16.941  0.0826  0.6216 -0.4822
 4856TIP3    H135983   2.401   2.820  16.947 -0.1040  0.4379  0.4904
 4856TIP3    H235984   2.335   2.943  17.007  0.0121  1.3767 -1.2326
 4857TIP3   OH235985   2.436   3.270   2.414  0.4047 -0.2339 -0.4702
 4857TIP3    H135986   2.439   3.251   2.320  2.2825  0.2491 -0.5320
 4857TIP3    H235987   2.414   3.363   2.419  0.2278 -0.2778 -0.4282
 4858TIP3   OH235988   6.588   2.472   5.195 -0.3725 -0.4268  0.0506
 4858TIP3    H135989   6.599   2.409   5.266 -1.2118 -0.6549 -0.0172
 4858TIP3    H235990   6.517   2.529   5.224 -0.2898 -0.1249 -0.3291
 4859TIP3   OH235991   5.646   0.131   5.107  0.2267  0.4509  0.0765
 4859TIP3    H135992   5.688   0.045   5.112 -0.1190  0.3441  2.0434
 4859TIP3    H235993   5.575   0.127   5.170 -0.2188  1.9702 -0.2800
 4860TIP3   OH235994   2.670   2.829  11.482 -0.4358 -0.1573  0.0848
 4860TIP3    H135995   2.758   2.867  11.475  0.7370 -2.7147 -0.2094
 4860TIP3    H235996   2.648   2.840  11.575  0.9294 -0.9112  0.5342
 4861TIP3   OH235997   0.313   2.998   3.517  0.0022  0.1364 -0.3683
 4861TIP3    H135998   0.406   2.988   3.498  0.6135 -0.8849  2.6902
 4861TIP3    H235999   0.311   3.054   3.595 -1.8193 -1.3099  0.6753
 4862TIP3   OH236000   4.737   5.377  11.977  0.6670  0.3465  0.0446
 4862TIP3    H136001   4.733   5.472  11.966  0.6046  0.0834 -3.1031
 4862TIP3    H236002   4.781   5.365  12.062  3.0269  3.1896 -0.5952
 4863TIP3   OH236003   0.590   3.002  16.522  0.4623 -0.1598 -0.4880
 4863TIP3    H136004   0.599   3.051  16.440  1.8311  1.1772  0.4136
 4863TIP3    H236005   0.661   2.938  16.519  1.0175  0.4235 -0.0092
 4864TIP3   OH236006   6.441   3.768   0.250 -0.4123 -0.1688 -0.2224
 4864TIP3    H136007   6.506   3.709   0.289  1.2615  1.2265 -0.7736
 4864TIP3    H236008   6.373   3.776   0.317  0.4727 -0.8737  0.7942
 4865TIP3   OH236009   0.778   6.178  15.882  0.0993  0.1968 -0.0232
 4865TIP3    H136010   0.795   6.106  15.821  2.0292  1.7134 -1.3699
 4865TIP3    H236011   0.697   6.218  15.850 -0.0790 -0.3486 -0.2635
 4866TIP3   OH236012   0.640   6.729  15.433 -0.2603  0.0012 -0.7790
 4866TIP3    H136013   0.699   6.731  15.508 -0.1103 -3.0170 -0.7032
 4866TIP3    H236014   0.692   6.687  15.363 -1.3930 -0.1033 -1.5886
 4867TIP3   OH236015   2.063   1.693   3.525 -0.3661 -0.0922  0.4375
 4867TIP3    H136016   2.030   1.680   3.614 -1.2495  2.4804  0.5732
 4867TIP3    H236017   1.990   1.731   3.478  1.2980  2.5507 -0.2155
 4868TIP3   OH236018   6.508   1.633  14.911 -0.2098  0.5727  0.1762
 4868TIP3    H136019   6.462   1.575  14.850 -0.4535  0.9252  0.0243
 4868TIP3    H236020   6.524   1.713  14.861  4.1578 -0.8740 -1.1891
 4869TIP3   OH236021   0.621   5.925  12.661 -0.1986  0.0701 -0.6658
 4869TIP3    H136022   0.648   5.844  12.705 -1.3815  0.2354  0.4316
 4869TIP3    H236023   0.682   5.934  12.588  2.6010  0.3525  1.5378
 4870TIP3   OH236024   4.935   5.801  12.357 -0.3154  0.0736  0.0960
 4870TIP3    H136025   4.908   5.854  12.432  0.1967  1.4816 -0.6638
 4870TIP3    H236026   5.002   5.742  12.392 -1.6259 -0.8173  1.1844
 4871TIP3   OH236027   0.907   3.996   4.259  0.2817  0.0194 -0.1663
 4871TIP3    H136028   0.864   3.921   4.218 -1.0916 -0.3030  1.7156
 4871TIP3    H236029   0.888   3.986   4.352  1.1564  2.0281  0.2704
 4872TIP3   OH236030   4.165   3.296   1.514 -0.2132 -0.7481 -0.1968
 4872TIP3    H136031   4.246   3.302   1.464 -0.4274 -0.7124 -0.5466
 4872TIP3    H236032   4.184   3.235   1.585  0.5250  0.3024  0.5265
 4873TIP3   OH236033   0.681   6.514   6.630  0.2141  0.1652 -0.1949
 4873TIP3    H136034   0.716   6.444   6.575 -0.1276  0.0506 -0.2719
 4873TIP3    H236035   0.666   6.587   6.570 -0.3744 -0.0366 -0.3013
 4874TIP3   OH236036   6.425   6.722   4.643  0.4465 -0.4180 -0.4602
 4874TIP3    H136037   6.424   6.817   4.656  0.1307 -0.4109 -0.5332
 4874TIP3    H236038   6.518   6.699   4.645  0.5237 -0.1114 -0.4139
 4875TIP3   OH236039   6.577   2.392   1.208  0.0522  0.3625  0.1230
 4875TIP3    H136040   6.507   2.398   1.143 -1.2988  0.7181  1.5610
 4875TIP3    H236041   6.656   2.421   1.162 -0.3608 -1.6228 -2.0335
 4876TIP3   OH236042   2.937   4.507  14.075  0.0732  0.1440 -0.5177
 4876TIP3    H136043   2.866   4.501  14.011  1.5019 -0.0212 -2.1612
 4876TIP3    H236044   2.951   4.601  14.087 -0.9807  0.1937  0.5091
 4877TIP3   OH236045   1.155   2.127   4.921  0.3065 -0.2744 -0.4018
 4877TIP3    H136046   1.208   2.058   4.881  0.1809 -1.0982  0.8080
 4877TIP3    H236047   1.169   2.117   5.015 -0.7271  0.5355 -0.1419
 4878TIP3   OH236048   4.767   4.066   1.165  0.0174  0.8241  0.4569
 4878TIP3    H136049   4.828   4.078   1.092 -0.8140  1.9812 -0.0848
 4878TIP3    H236050   4.797   4.127   1.232  1.1013 -0.6282  1.3226
 4879TIP3   OH236051   0.106   3.395  10.793  0.1525 -0.1065 -0.9147
 4879TIP3    H136052   0.079   3.487  10.782  0.6173  0.4245  1.8489
 4879TIP3    H236053   0.045   3.360  10.857  1.0968 -1.2095 -0.6013
 4880TIP3   OH236054   4.236   1.015   6.171 -0.1029 -0.1669  0.1475
 4880TIP3    H136055   4.242   1.060   6.087 -1.7688  2.0987  1.1226
 4880TIP3    H236056   4.211   1.083   6.233 -1.7263 -2.2658  1.9796
 4881TIP3   OH236057   1.361   3.904   5.163  0.6468  0.0023  0.2035
 4881TIP3    H136058   1.455   3.903   5.182  1.0409  0.5351 -1.4741
 4881TIP3    H236059   1.325   3.828   5.208  1.3796  1.2779  3.1432
 4882TIP3   OH236060   4.514   5.996   2.831 -0.1713 -0.6090  0.1602
 4882TIP3    H136061   4.595   6.011   2.784  0.5123 -1.6602  0.9575
 4882TIP3    H236062   4.470   6.081   2.832  2.5385  0.9308  2.7229
 4883TIP3   OH236063   4.146   6.579  16.663 -0.0125 -0.2377  0.3334
 4883TIP3    H136064   4.107   6.492  16.666 -0.4932 -0.0214  0.5752
 4883TIP3    H236065   4.169   6.599  16.753  2.0582 -0.9628  0.0041
 4884TIP3   OH236066   1.470   5.484   5.794  0.2882 -0.6690 -0.3173
 4884TIP3    H136067   1.565   5.483   5.784  0.4550 -1.6753  1.0769
 4884TIP3    H236068   1.442   5.565   5.750  1.7743 -0.3296 -0.6990
 4885TIP3   OH236069   0.586   2.927  10.916  0.5864 -0.5992  0.2078
 4885TIP3    H136070   0.674   2.932  10.878 -0.3042 -0.7571 -1.9830
 4885TIP3    H236071   0.578   3.009  10.966  1.4100  0.1716 -0.8679
 4886TIP3   OH236072   4.604   3.179   1.975  0.1152 -0.1561 -0.0162
 4886TIP3    H136073   4.640   3.260   2.010 -0.4786 -0.3363  1.0427
 4886TIP3    H236074   4.530   3.206   1.921  0.5938  0.0706 -0.5728
 4887TIP3   OH236075   3.260   6.643  15.964 -0.4381  0.2634  0.3885
 4887TIP3    H136076   3.227   6.682  15.883 -2.7536 -0.6226  0.8346
 4887TIP3    H236077   3.276   6.551  15.942 -1.4135 -0.0666  0.9911
 4888TIP3   OH236078   5.540   6.251  13.290  0.3495 -0.2423 -0.5810
 4888TIP3    H136079   5.502   6.329  13.247  0.4956 -0.0717 -0.4026
 4888TIP3    H236080   5.508   6.178  13.238 -2.3686 -0.3234  1.0310
 4889TIP3   OH236081   2.358   3.694  16.584 -0.0055 -0.4101  0.4484
 4889TIP3    H136082   2.326   3.690  16.494  0.2166  0.6847  0.3096
 4889TIP3    H236083   2.432   3.754  16.581  0.1483 -0.5360  1.3291
 4890TIP3   OH236084   2.692   6.353  16.981 -0.5036  0.1041  0.0730
 4890TIP3    H136085   2.725   6.270  17.015 -0.9313  0.4345  1.3557
 4890TIP3    H236086   2.766   6.414  16.990 -0.7586  0.3094  0.9144
 4891TIP3   OH236087   3.583   6.514  16.873  0.5743 -0.6673 -0.0554
 4891TIP3    H136088   3.546   6.569  16.942  0.1495  1.6021 -1.9774
 4891TIP3    H236089   3.647   6.569  16.829  0.2068 -1.7031 -2.0347
 4892TIP3   OH236090   0.093   0.016  15.031 -0.3616 -0.1120  0.8340
 4892TIP3    H136091   0.107   0.003  15.124 -2.4618 -0.7930  1.0880
 4892TIP3    H236092  -0.001   0.025  15.021 -0.2099 -0.3219 -1.2611
 4893TIP3   OH236093   3.720   4.298   4.653 -0.4452 -0.1974 -0.3870
 4893TIP3    H136094   3.784   4.228   4.659 -0.7793 -0.3981  1.8058
 4893TIP3    H236095   3.635   4.254   4.659 -0.6729  0.3139  0.3881
 4894TIP3   OH236096   4.477   0.119  12.274 -0.6650  0.3724  0.4753
 4894TIP3    H136097   4.397   0.066  12.283 -0.5273  0.4687  2.9354
 4894TIP3    H236098   4.549   0.056  12.283 -0.4340  0.4606 -0.5619
 4895TIP3   OH236099   1.902   4.009   1.195 -0.0511 -0.1323 -0.3080
 4895TIP3    H136100   1.945   3.949   1.135 -0.2703  0.2382 -0.8452
 4895TIP3    H236101   1.817   4.027   1.155  0.0977  0.7034 -0.2689
 4896TIP3   OH236102   0.759   6.071   3.708 -0.1363  0.0164 -0.6934
 4896TIP3    H136103   0.710   5.989   3.720  1.0242 -0.4610  1.1610
 4896TIP3    H236104   0.718   6.132   3.770 -0.0699  0.4160 -1.0390
 4897TIP3   OH236105   3.260   6.556   0.953  0.2021  0.1902  0.0366
 4897TIP3    H136106   3.356   6.559   0.962  0.2063  0.3434 -0.0635
 4897TIP3    H236107   3.237   6.468   0.984  0.0582  1.1368  2.9574
 4898TIP3   OH236108   5.571   1.064  11.898 -0.2737 -0.6810 -0.3322
 4898TIP3    H136109   5.659   1.080  11.862  0.6302  0.2338  2.1108
 4898TIP3    H236110   5.518   1.136  11.864  0.6579  0.4035  0.4493
 4899TIP3   OH236111   2.668   3.926   1.494  0.6173  0.2064  0.5009
 4899TIP3    H136112   2.619   3.963   1.566  1.1790  3.1083 -0.4885
 4899TIP3    H236113   2.760   3.945   1.514  0.8384  0.3669 -0.5969
 4900TIP3   OH236114   3.621   6.202   4.433 -0.7226 -0.0898  0.2626
 4900TIP3    H136115   3.670   6.120   4.427 -0.5854 -0.1599  1.8107
 4900TIP3    H236116   3.605   6.228   4.343 -0.0967 -1.4229 -0.2507
 4901TIP3   OH236117   5.223   0.775  11.043  0.1737 -0.0818 -0.4935
 4901TIP3    H136118   5.155   0.827  10.999  1.2543  0.3888 -1.6715
 4901TIP3    H236119   5.273   0.736  10.971 -0.4265 -2.5902  0.3568
 4902TIP3   OH236120   5.080   6.274  16.081 -0.3549 -0.6572 -0.4984
 4902TIP3    H136121   5.093   6.247  15.991  0.7633 -1.1151 -0.2199
 4902TIP3    H236122   5.138   6.349  16.093 -1.0655 -0.1106 -0.3629
 4903TIP3   OH236123   6.037   3.213  12.834  0.4101  0.1854 -0.5204
 4903TIP3    H136124   6.131   3.230  12.823  0.1832  0.5718 -2.0294
 4903TIP3    H236125   6.005   3.197  12.745 -0.8242 -0.6833  0.0594
 4904TIP3   OH236126   3.613   5.030   0.388 -0.1192  0.0546 -0.6362
 4904TIP3    H136127   3.590   4.937   0.381 -1.8328  0.3958 -0.1581
 4904TIP3    H236128   3.598   5.065   0.300  0.7729 -0.1690 -0.8784
 4905TIP3   OH236129   5.478   2.660  12.481 -0.5949  0.1126  0.1114
 4905TIP3    H136130   5.543   2.653  12.551 -0.8932  0.3143  0.4158
 4905TIP3    H236131   5.398   2.686  12.526 -0.8040  0.1946 -0.3039
 4906TIP3   OH236132   3.073   4.845  14.852  0.2161  0.3525  0.3163
 4906TIP3    H136133   2.988   4.865  14.812 -0.5140 -2.3600  0.3103
 4906TIP3    H236134   3.132   4.832  14.778  0.6605  2.1022  0.3189
 4907TIP3   OH236135   2.316   2.448  14.678 -0.1340 -0.5582  0.4795
 4907TIP3    H136136   2.305   2.400  14.760  0.7749 -1.1436  0.2722
 4907TIP3    H236137   2.400   2.417  14.643 -0.8367 -0.8429 -1.0240
 4908TIP3   OH236138   5.468   1.313   2.966 -0.2168 -0.3222  0.1480
 4908TIP3    H136139   5.394   1.320   3.026  0.0474 -2.0160  0.7317
 4908TIP3    H236140   5.543   1.295   3.022  0.2416 -0.7851 -0.5928
 4909TIP3   OH236141   1.476   6.122   3.681  0.2121 -0.1118  0.1559
 4909TIP3    H136142   1.551   6.144   3.737 -1.0954  0.2547  1.8561
 4909TIP3    H236143   1.513   6.065   3.614  1.9066 -0.4966  1.3303
 4910TIP3   OH236144   3.083   4.593  15.059 -0.3247  0.4687  0.5287
 4910TIP3    H136145   3.028   4.600  15.137 -2.0202  0.6127 -0.6415
 4910TIP3    H236146   3.048   4.658  14.998 -0.0286 -0.6905 -0.9274
 4911TIP3   OH236147   1.837   1.058   3.942  0.3822  0.0765 -0.0639
 4911TIP3    H136148   1.907   0.994   3.932  1.8928  1.7802 -1.1913
 4911TIP3    H236149   1.845   1.089   4.032  2.2968  1.4654 -0.6326
 4912TIP3   OH236150   0.810   1.208  13.993  0.4717 -0.2838 -0.0067
 4912TIP3    H136151   0.832   1.178  13.904 -1.4727  0.8077 -0.9047
 4912TIP3    H236152   0.715   1.199  13.999  0.5264 -0.0335  1.8885
 4913TIP3   OH236153   1.410   5.670   3.354  0.3357 -0.5621  0.1519
 4913TIP3    H136154   1.429   5.640   3.265  1.0071  2.6140 -0.9199
 4913TIP3    H236155   1.484   5.641   3.407  0.5298 -1.4470 -0.5960
 4914TIP3   OH236156   4.287   6.603   5.558 -0.4390  0.2427  0.2093
 4914TIP3    H136157   4.199   6.640   5.560 -0.1351  0.9644  0.5679
 4914TIP3    H236158   4.274   6.512   5.535 -1.3145  0.2530  0.6168
 4915TIP3   OH236159   4.296   6.038   1.426 -0.1412 -0.0641 -0.2460
 4915TIP3    H136160   4.226   6.055   1.363 -0.7825  1.6737  0.8629
 4915TIP3    H236161   4.376   6.056   1.378 -0.6765  3.7969 -0.0213
 4916TIP3   OH236162   0.117   3.166  15.132  0.0087  0.5466  0.1909
 4916TIP3    H136163   0.080   3.115  15.204 -3.1595 -1.0753 -2.3443
 4916TIP3    H236164   0.210   3.146  15.134 -0.5072 -2.2306  1.7577
 4917TIP3   OH236165   6.370   0.597  15.335 -0.1113 -0.0451 -0.1732
 4917TIP3    H136166   6.385   0.688  15.308 -1.1751  0.1201 -0.2504
 4917TIP3    H236167   6.458   0.560  15.344  0.5397  1.8417  2.8358
 4918TIP3   OH236168   5.332   4.934  12.121  0.1941  0.4927 -0.7365
 4918TIP3    H136169   5.237   4.931  12.131  0.1371  0.9434 -1.1102
 4918TIP3    H236170   5.357   4.844  12.099  0.0465 -0.0066  0.9773
 4919TIP3   OH236171   4.408   4.673  16.844  0.3245 -0.5345  0.6861
 4919TIP3    H136172   4.470   4.631  16.784  0.3082  1.5136 -0.8697
 4919TIP3    H236173   4.463   4.722  16.905  0.3016 -0.7478  0.8749
 4920TIP3   OH236174   3.156   2.511   0.462 -0.3610 -0.1608 -0.8527
 4920TIP3    H136175   3.184   2.444   0.400 -1.1690 -2.4565  1.1133
 4920TIP3    H236176   3.235   2.535   0.509 -0.2079 -0.2641 -1.0559
 4921TIP3   OH236177   0.196   0.534  16.757 -0.0532 -0.0526 -0.9199
 4921TIP3    H136178   0.181   0.447  16.721 -0.1084 -0.5758  0.3250
 4921TIP3    H236179   0.222   0.519  16.848 -4.6206  1.2797  0.9489
 4922TIP3   OH236180   6.247   2.577   5.878  0.3454  0.4145 -0.9131
 4922TIP3    H136181   6.326   2.553   5.830  0.0078  0.1001 -1.3158
 4922TIP3    H236182   6.175   2.551   5.821 -0.0563  0.4341 -0.4224
 4923TIP3   OH236183   6.473   0.353  14.039 -0.1710  0.0990  0.1215
 4923TIP3    H136184   6.378   0.350  14.033 -0.1328 -0.1063 -0.4510
 4923TIP3    H236185   6.491   0.420  14.105 -0.7332 -0.7660  1.1832
 4924TIP3   OH236186   3.718   5.098   6.026  0.0842  0.4328 -0.3575
 4924TIP3    H136187   3.701   5.114   5.933  0.7975 -0.7286 -0.7126
 4924TIP3    H236188   3.689   5.178   6.070  1.3078  1.6912 -1.7500
 4925TIP3   OH236189   0.113   6.196  11.055 -0.2700  0.8004 -0.0873
 4925TIP3    H136190   0.205   6.173  11.043 -0.0372  1.3039  0.6506
 4925TIP3    H236191   0.078   6.124  11.109 -0.1045  1.0306  0.3259
 4926TIP3   OH236192   2.871   1.130  14.047  0.1109 -0.1370  0.3304
 4926TIP3    H136193   2.838   1.110  14.134  1.6050 -0.3508  0.8729
 4926TIP3    H236194   2.894   1.223  14.051  2.7396 -0.7363  1.0939
 4927TIP3   OH236195   3.797   5.076  11.543 -0.5886  0.1561 -0.1596
 4927TIP3    H136196   3.737   5.031  11.483 -0.8599  0.0753  0.1679
 4927TIP3    H236197   3.740   5.114  11.609 -0.4324  1.6538 -0.8480
 4928TIP3   OH236198   5.189   4.010  17.073 -0.0812  0.2532  0.2165
 4928TIP3    H136199   5.207   4.103  17.087 -0.2783  0.1459  1.2690
 4928TIP3    H236200   5.167   3.976  17.160 -0.3997 -0.6966 -0.2150
 4929TIP3   OH236201   6.752   0.959  12.446  0.3842 -0.3576  0.1377
 4929TIP3    H136202   6.793   0.879  12.413 -1.0125 -0.3320 -1.8405
 4929TIP3    H236203   6.709   0.997  12.370  1.0121  2.3281  1.0383
 4930TIP3   OH236204   1.967   1.650  17.039 -0.2882 -0.3298  0.7063
 4930TIP3    H136205   2.035   1.705  17.000 -1.3900  0.4605 -0.1759
 4930TIP3    H236206   1.898   1.711  17.065 -1.0838 -1.1809  0.6839
 4931TIP3   OH236207   1.594   2.629  16.356 -0.8612 -0.1180  0.4335
 4931TIP3    H136208   1.515   2.585  16.386 -0.7748 -2.4542 -2.3302
 4931TIP3    H236209   1.659   2.612  16.424 -2.4801  1.3387  2.4638
 4932TIP3   OH236210   5.407   1.484   5.223 -0.2606  0.0773 -0.3259
 4932TIP3    H136211   5.459   1.474   5.304  0.0361 -1.4735 -0.6893
 4932TIP3    H236212   5.318   1.502   5.254  0.1769  1.2698  0.3175
 4933TIP3   OH236213   0.517   1.916  13.338  0.3203 -0.2506 -0.4852
 4933TIP3    H136214   0.540   1.838  13.388  1.3596 -0.5365 -1.3843
 4933TIP3    H236215   0.425   1.903  13.315  0.5196 -1.2801 -0.7426
 4934TIP3   OH236216   5.529   3.830   6.162  0.3247  0.5385 -0.2918
 4934TIP3    H136217   5.485   3.895   6.216 -1.4631 -0.9155  0.1243
 4934TIP3    H236218   5.541   3.755   6.220 -2.4255 -1.4061 -1.9648
 4935TIP3   OH236219   2.075   1.172   0.059 -0.2565 -0.3149 -0.1053
 4935TIP3    H136220   2.096   1.252   0.106 -1.1194 -0.5413  0.7119
 4935TIP3    H236221   2.068   1.198  -0.033  3.0612 -0.1531 -0.4376
 4936TIP3   OH236222   5.921   5.719  15.076  0.6827 -0.5249  0.0543
 4936TIP3    H136223   5.866   5.744  15.002 -2.0452  0.3841  2.2202
 4936TIP3    H236224   5.939   5.801  15.121  1.4242 -1.1759  0.9909
 4937TIP3   OH236225   4.525   4.418   2.742 -0.4174 -0.4536  0.0727
 4937TIP3    H136226   4.580   4.400   2.666  0.7380  1.1092  0.4702
 4937TIP3    H236227   4.482   4.335   2.762  1.7691 -1.7694 -0.3070
 4938TIP3   OH236228   4.970   0.864   0.651 -0.5610 -0.2939  0.1280
 4938TIP3    H136229   4.981   0.842   0.744 -0.7530  0.0391  0.2315
 4938TIP3    H236230   5.056   0.848   0.612 -1.0245 -2.6171 -0.1030
 4939TIP3   OH236231   4.790   2.038   6.589 -0.8243 -0.1611 -0.0202
 4939TIP3    H136232   4.800   2.090   6.509 -1.7511 -1.7373 -1.2295
 4939TIP3    H236233   4.811   2.099   6.660  2.8560  0.5666 -1.5238
 4940TIP3   OH236234   5.614   4.154   3.681  0.2280  0.1118  0.0641
 4940TIP3    H136235   5.521   4.130   3.681  0.1598  0.3761  0.2684
 4940TIP3    H236236   5.620   4.227   3.742  1.0084 -1.5999  2.1768
 4941TIP3   OH236237   3.250   6.102   0.253 -0.0372 -0.4056 -0.2821
 4941TIP3    H136238   3.271   6.009   0.243  0.4334 -0.2654 -0.6428
 4941TIP3    H236239   3.156   6.103   0.271 -0.2933 -0.8877 -1.4790
 4942TIP3   OH236240   4.194   5.539  12.004 -0.1235  0.0270 -0.2876
 4942TIP3    H136241   4.278   5.557  12.048 -0.9752  1.0084  1.0170
 4942TIP3    H236242   4.163   5.625  11.976 -0.3991 -0.4055 -1.3806
 4943TIP3   OH236243   1.739   1.041  16.413  0.0618  0.4220  0.0629
 4943TIP3    H136244   1.763   0.948  16.409 -0.0427  0.3463  1.0993
 4943TIP3    H236245   1.811   1.085  16.366  1.7109  0.0850  2.1154
 4944TIP3   OH236246   5.759   2.001  16.199  0.3124 -0.0316  0.6115
 4944TIP3    H136247   5.803   1.951  16.130 -2.1612  1.3300 -2.1872
 4944TIP3    H236248   5.806   2.084  16.202  1.2311 -0.5676  1.5617
 4945TIP3   OH236249   2.484   2.337   1.355  0.0263  0.2747  0.3128
 4945TIP3    H136250   2.438   2.410   1.395 -0.9640 -0.0226 -0.2629
 4945TIP3    H236251   2.529   2.375   1.279 -0.9408  0.1958 -0.3103
 4946TIP3   OH236252   4.485   3.531   6.045 -0.1305  0.4338  0.3216
 4946TIP3    H136253   4.464   3.603   5.985  1.1920  1.0172  0.5261
 4946TIP3    H236254   4.495   3.573   6.130 -1.5532 -0.3317  0.9106
 4947TIP3   OH236255   5.054   5.577  11.558 -0.3122  0.6745 -0.4563
 4947TIP3    H136256   4.985   5.515  11.583  0.0927  0.9221  1.4454
 4947TIP3    H236257   5.017   5.663  11.577  0.8748  0.7702  1.7728
 4948TIP3   OH236258   4.718   0.636  12.056 -0.3717  0.0473 -0.3530
 4948TIP3    H136259   4.812   0.643  12.074 -0.4045 -1.2233  0.4478
 4948TIP3    H236260   4.696   0.545  12.078 -2.0283  0.6246  0.5774
 4949TIP3   OH236261   3.478   6.394   4.580 -0.2708  0.1667  0.2457
 4949TIP3    H136262   3.511   6.466   4.526 -0.9551 -2.0463 -3.4703
 4949TIP3    H236263   3.518   6.316   4.542 -2.8858 -1.7994  1.2519
 4950TIP3   OH236264   2.442   4.266   6.105  0.1046 -0.9521  0.0708
 4950TIP3    H136265   2.480   4.181   6.125 -0.8672 -1.3033  0.4910
 4950TIP3    H236266   2.473   4.323   6.177  0.4245 -1.0433  0.0081
 4951TIP3   OH236267   0.017   5.526  15.921  0.3964  0.0337  0.6301
 4951TIP3    H136268   0.017   5.594  15.853  3.4293  0.0871  0.5544
 4951TIP3    H236269  -0.040   5.562  15.989 -1.2998  0.7808 -1.0691
 4952TIP3   OH236270   3.726   3.746  14.391  0.3436 -0.2081 -0.5912
 4952TIP3    H136271   3.785   3.790  14.330  0.7026  1.2528  0.7585
 4952TIP3    H236272   3.644   3.737  14.342  0.9626 -0.1113 -1.6692
 4953TIP3   OH236273   2.419   3.881   1.898 -0.1282 -0.3427 -0.2814
 4953TIP3    H136274   2.326   3.881   1.875 -0.0044  0.3205 -0.8260
 4953TIP3    H236275   2.420   3.871   1.993 -0.7978  0.6584 -0.1463
 4954TIP3   OH236276   1.469   4.068   4.851  0.2142  0.2049  0.2772
 4954TIP3    H136277   1.392   4.014   4.870  0.8535 -1.6328 -1.8799
 4954TIP3    H236278   1.475   4.067   4.755  2.8589  0.3464  0.3750
 4955TIP3   OH236279   2.473   6.027  17.134  0.1757 -0.6141 -0.0099
 4955TIP3    H136280   2.483   6.033  17.039 -0.8226  0.4033 -0.0723
 4955TIP3    H236281   2.561   6.041  17.168  0.3453  0.2935 -0.7561
 4956TIP3   OH236282   1.949   4.522  16.818  0.0014 -0.3663 -0.7810
 4956TIP3    H136283   1.895   4.556  16.747  2.5851  1.8310 -1.8475
 4956TIP3    H236284   1.918   4.568  16.896 -3.6244 -3.6075  0.0199
 4957TIP3   OH236285   6.728   2.848  14.975 -0.5886  0.4145 -0.2214
 4957TIP3    H136286   6.774   2.895  14.905 -1.1816  0.4123 -0.6139
 4957TIP3    H236287   6.779   2.868  15.054 -0.0569  0.6180 -0.6058
 4958TIP3   OH236288   4.662   2.847  12.188 -0.0553 -0.5107  0.6243
 4958TIP3    H136289   4.725   2.861  12.258 -3.2264 -0.1988  3.7132
 4958TIP3    H236290   4.663   2.929  12.138  1.9998 -0.5940  0.4634
 4959TIP3   OH236291   4.496   4.697  11.378  0.1170 -0.0483 -0.1263
 4959TIP3    H136292   4.416   4.706  11.325  0.0652  1.2310  0.1401
 4959TIP3    H236293   4.481   4.619  11.432 -1.7916  1.2714  1.3352
 4960TIP3   OH236294   2.116   0.761  14.891  0.3380 -0.0725 -0.1479
 4960TIP3    H136295   2.086   0.781  14.980  0.5663  0.9140 -0.2774
 4960TIP3    H236296   2.099   0.842  14.842 -0.8327 -0.9763 -1.2871
 4961TIP3   OH236297   6.198   0.006  13.827 -0.2705  0.2772 -0.2904
 4961TIP3    H136298   6.171   0.095  13.850 -0.2467 -0.2006  1.7328
 4961TIP3    H236299   6.287   0.016  13.792  0.1272  0.9538  0.8785
 4962TIP3   OH236300   5.194   3.540   4.297 -0.1529  0.3095  0.0638
 4962TIP3    H136301   5.271   3.566   4.347  0.5682 -0.7299 -0.4526
 4962TIP3    H236302   5.216   3.453   4.262 -1.8701 -0.3783  0.5587
 4963TIP3   OH236303   4.473   5.048   4.015 -0.2800  0.3015  0.4777
 4963TIP3    H136304   4.446   4.956   4.025 -0.9293  0.4584  0.2142
 4963TIP3    H236305   4.433   5.075   3.932  0.7688  0.5193  0.0243
 4964TIP3   OH236306   2.698   6.105  10.590  0.7518 -0.3734  0.4139
 4964TIP3    H136307   2.730   6.171  10.528 -1.3901  1.8466  1.4713
 4964TIP3    H236308   2.617   6.072  10.551 -1.0050  1.5623  2.1667
 4965TIP3   OH236309   1.150   1.675   3.657 -0.6069 -0.3754  0.1724
 4965TIP3    H136310   1.125   1.632   3.739  0.1114  0.6457  0.9490
 4965TIP3    H236311   1.076   1.733   3.638 -1.0695 -1.0966 -0.2697
 4966TIP3   OH236312   4.590   6.433   0.716  0.3021 -0.0010  0.0910
 4966TIP3    H136313   4.628   6.348   0.737  1.2701  0.2800 -0.4566
 4966TIP3    H236314   4.656   6.496   0.744  0.6255  0.4696 -1.6470
 4967TIP3   OH236315   5.881   2.887   5.332  0.4099  0.7449 -0.0239
 4967TIP3    H136316   5.910   2.804   5.293  1.7310  1.4302 -0.5416
 4967TIP3    H236317   5.958   2.943   5.331 -0.9131  2.6781 -1.5011
 4968TIP3   OH236318   2.390   2.662  11.997 -0.1982 -0.0991  0.2758
 4968TIP3    H136319   2.321   2.713  11.955 -1.6291 -1.6735  0.6207
 4968TIP3    H236320   2.345   2.613  12.066  0.9131 -2.4768 -0.5836
 4969TIP3   OH236321   1.916   1.997   0.316  0.4895  0.2389  0.0161
 4969TIP3    H136322   1.929   2.043   0.233 -1.1700 -1.6176 -1.3440
 4969TIP3    H236323   1.960   1.913   0.304  0.8598  0.2144  1.3335
 4970TIP3   OH236324   2.018   4.517   0.085  0.1906  0.9043  0.0263
 4970TIP3    H136325   2.094   4.522   0.142  0.8733 -1.3103 -0.6189
 4970TIP3    H236326   2.002   4.608   0.058  1.5091  1.6242  1.5370
 4971TIP3   OH236327   1.337   0.888  17.048 -0.0770 -0.5480 -0.1504
 4971TIP3    H136328   1.289   0.954  16.998  2.4757  1.3470 -0.3036
 4971TIP3    H236329   1.329   0.915  17.139  2.1919  0.9530 -0.3285
 4972TIP3   OH236330   0.811   0.980  15.673 -0.2595 -0.1348  0.2240
 4972TIP3    H136331   0.834   0.929  15.750 -0.1534 -2.5315 -1.2795
 4972TIP3    H236332   0.716   0.968  15.664 -0.1935 -0.3070 -0.2937
 4973TIP3   OH236333   2.395   2.628   1.546 -0.4956 -0.9078 -0.2625
 4973TIP3    H136334   2.384   2.671   1.461  0.7772  0.9913  0.4673
 4973TIP3    H236335   2.307   2.624   1.582 -1.0238 -1.5414 -1.5711
 4974TIP3   OH236336   4.231   2.050  15.586 -0.1633  0.5451  0.2105
 4974TIP3    H136337   4.170   2.013  15.650 -2.5179  1.2599 -1.4888
 4974TIP3    H236338   4.223   1.993  15.510  0.8462  1.0303 -0.2710
 4975TIP3   OH236339   2.273   5.029   2.917 -0.3919  0.4317  0.3809
 4975TIP3    H136340   2.322   4.963   2.965  0.1595  0.2452 -0.4102
 4975TIP3    H236341   2.181   5.008   2.934 -0.2124  0.1028  0.9757
 4976TIP3   OH236342   3.652   0.002   3.164 -0.3516 -0.1670  0.2319
 4976TIP3    H136343   3.695   0.086   3.183  0.1921  0.1347 -2.0295
 4976TIP3    H236344   3.684  -0.057   3.232 -0.4322  1.3381  1.6411
 4977TIP3   OH236345   5.645   0.129  13.958 -0.3642  0.6525 -0.1093
 4977TIP3    H136346   5.715   0.100  13.899 -0.0773  0.9206  0.0934
 4977TIP3    H236347   5.676   0.214  13.991 -0.6346  0.6173  0.2382
 4978TIP3   OH236348   6.594   5.858   5.552 -0.2624 -0.0957 -0.5933
 4978TIP3    H136349   6.500   5.848   5.561 -0.3142 -0.2604 -1.3082
 4978TIP3    H236350   6.619   5.916   5.624 -0.6085 -1.6638  0.8749
 4979TIP3   OH236351   0.921   0.681   1.468 -0.0960 -0.0236  0.4432
 4979TIP3    H136352   1.012   0.683   1.496 -0.3357 -0.9310  1.3336
 4979TIP3    H236353   0.882   0.608   1.516 -1.3622  0.5167  0.2910
 4980TIP3   OH236354   2.835   3.263  17.023  0.0426 -0.7236 -0.3266
 4980TIP3    H136355   2.747   3.301  17.023  0.4484  0.8357 -4.9318
 4980TIP3    H236356   2.893   3.338  17.035  0.7777 -1.3587  0.1207
 4981TIP3   OH236357   0.076   1.117   1.687  0.0917  0.3572  0.0295
 4981TIP3    H136358   0.114   1.184   1.744 -0.1058  0.1978  0.3496
 4981TIP3    H236359   0.067   1.161   1.602  0.3764  0.5976  0.1199
 4982TIP3   OH236360   1.275   6.327   2.762 -0.0474  0.4128 -0.1970
 4982TIP3    H136361   1.325   6.367   2.691  0.9904  0.0529  0.3155
 4982TIP3    H236362   1.271   6.395   2.830 -0.7103  0.6217 -0.4361
 4983TIP3   OH236363   2.150   1.326  14.822 -0.2744 -0.9699  0.1045
 4983TIP3    H136364   2.242   1.339  14.801  0.0357 -2.8218  0.1316
 4983TIP3    H236365   2.110   1.413  14.814  1.1533 -0.4138 -1.4534
 4984TIP3   OH236366   3.453   0.312  14.484  0.0525  0.1484 -0.0134
 4984TIP3    H136367   3.535   0.263  14.489  0.2537  0.4953  0.0810
 4984TIP3    H236368   3.479   0.400  14.456 -0.4312 -0.1290 -1.4306
 4985TIP3   OH236369   6.322   2.248  14.227 -0.4890 -0.7588 -0.2216
 4985TIP3    H136370   6.238   2.217  14.261 -0.2200 -0.6487  0.5748
 4985TIP3    H236371   6.350   2.314  14.291  1.2307 -2.3200  0.7088
 4986TIP3   OH236372   6.348   3.275  14.377  0.2846 -0.2159 -0.3147
 4986TIP3    H136373   6.338   3.267  14.472  0.1106 -3.2690 -0.4934
 4986TIP3    H236374   6.443   3.285  14.364  0.2354  1.1249  0.1656
 4987TIP3   OH236375   2.108   6.631  15.051 -0.2943  0.1526  0.2949
 4987TIP3    H136376   2.090   6.641  15.145 -2.1541 -0.4408  0.0400
 4987TIP3    H236377   2.034   6.672  15.007  1.0506  1.3467 -0.9850
 4988TIP3   OH236378   1.486   2.884  12.592 -0.3031 -0.2406 -0.0485
 4988TIP3    H136379   1.514   2.933  12.515  0.3323 -1.0426 -0.3423
 4988TIP3    H236380   1.544   2.913  12.662 -0.3580 -0.0923 -0.0649
 4989TIP3   OH236381   4.669   1.352  16.302 -0.4113 -0.1699  0.2981
 4989TIP3    H136382   4.702   1.360  16.392 -1.0903  0.1059  0.5325
 4989TIP3    H236383   4.580   1.386  16.307 -0.1880  0.6009 -0.6483
 4990TIP3   OH236384   5.531   6.288   3.437 -0.2598 -0.0078 -0.1701
 4990TIP3    H136385   5.480   6.276   3.358  1.0717  1.5670 -1.3419
 4990TIP3    H236386   5.489   6.361   3.482  0.2767  0.5749 -0.5895
 4991TIP3   OH236387   3.715   2.573  15.375  0.6732 -0.6404 -0.0758
 4991TIP3    H136388   3.741   2.626  15.450  0.4821  0.7045 -0.9108
 4991TIP3    H236389   3.796   2.556  15.328  0.5014  0.8687 -0.9957
 4992TIP3   OH236390   0.832   2.149   3.578 -0.2781  0.6949 -0.3095
 4992TIP3    H136391   0.786   2.169   3.659  0.7561  1.4964  0.0999
 4992TIP3    H236392   0.840   2.233   3.533  0.8206  0.5932 -0.3367
 4993TIP3   OH236393   5.377   4.189  14.856  0.2118  0.1717 -0.0288
 4993TIP3    H136394   5.342   4.262  14.806 -0.3173 -0.1123 -0.0860
 4993TIP3    H236395   5.458   4.222  14.895  0.0953  0.7088 -0.2393
 4994TIP3   OH236396   4.684   5.471   5.625 -0.3053  0.7033 -0.3784
 4994TIP3    H136397   4.653   5.448   5.712  1.0953  2.1837  0.5553
 4994TIP3    H236398   4.748   5.404   5.603 -2.5417 -1.2445 -1.5025
 4995TIP3   OH236399   3.259   3.600  11.713 -0.2044 -0.4074  0.3220
 4995TIP3    H136400   3.215   3.574  11.632  0.2789  0.2281 -0.1522
 4995TIP3    H236401   3.224   3.687  11.732 -1.6403 -1.2541  1.7741
 4996TIP3   OH236402   0.869   6.281   4.276 -0.1883 -0.3817  0.4437
 4996TIP3    H136403   0.859   6.340   4.201  1.2440 -0.9234 -0.2162
 4996TIP3    H236404   0.779   6.256   4.299 -0.8102  1.7199  0.4978
 4997TIP3   OH236405   0.647   1.111   3.199 -0.1807  0.5616  0.2681
 4997TIP3    H136406   0.732   1.144   3.226  0.6640 -0.4193 -1.0783
 4997TIP3    H236407   0.645   1.020   3.228 -0.0604  0.0817 -1.1166
 4998TIP3   OH236408   2.187   4.034  16.589 -0.1129 -0.4670 -0.1678
 4998TIP3    H136409   2.130   4.109  16.575 -0.0973 -0.5691 -0.7961
 4998TIP3    H236410   2.131   3.969  16.633 -0.5711 -0.6861 -1.0692
 4999TIP3   OH236411   2.175   2.854  14.439  0.0273 -0.4148 -0.0678
 4999TIP3    H136412   2.095   2.907  14.434 -0.8572 -1.7024 -0.1948
 4999TIP3    H236413   2.203   2.846  14.348  0.1634 -0.1680 -0.0490
 5000TIP3   OH236414   1.062   5.115  12.255 -0.2044 -0.0672  0.0235
 5000TIP3    H136415   1.120   5.042  12.231 -0.5436 -0.3956  0.1909
 5000TIP3    H236416   0.977   5.092  12.217 -0.2035  0.4588 -0.2971
 5001TIP3   OH236417   1.363   3.906   0.311  0.3544 -0.0425 -0.1884
 5001TIP3    H136418   1.282   3.920   0.262  0.7139  0.4738 -0.6410
 5001TIP3    H236419   1.361   3.813   0.334 -0.5848  0.0593  0.1992
 5002TIP3   OH236420   0.461   4.051   3.871 -0.2007 -0.0996  0.2248
 5002TIP3    H136421   0.398   4.076   3.803  0.4133 -0.9720 -0.6934
 5002TIP3    H236422   0.408   4.004   3.936 -0.4462 -1.2387 -0.7703
 5003TIP3   OH236423   6.031   0.822   4.480 -0.4136 -0.1886  0.0589
 5003TIP3    H136424   6.084   0.848   4.555  0.3007  0.4215 -0.6358
 5003TIP3    H236425   6.070   0.869   4.406 -0.3765 -1.6543 -0.8985
 5004TIP3   OH236426   3.735   4.494   0.466 -0.1491  0.4830 -0.1424
 5004TIP3    H136427   3.754   4.543   0.546 -0.8183  0.4676  0.0316
 5004TIP3    H236428   3.710   4.407   0.497  0.8145  0.0934 -0.4395
 5005TIP3   OH236429   6.414   1.740  14.543  0.4251  0.4232 -0.3786
 5005TIP3    H136430   6.421   1.790  14.625  0.7353  0.7783 -0.6170
 5005TIP3    H236431   6.363   1.796  14.485 -1.1890 -0.5073  0.0745
 5006TIP3   OH236432   5.011   1.869  17.047 -0.0910 -0.4409 -0.3622
 5006TIP3    H136433   5.059   1.803  17.098  0.1997  0.1842  0.1772
 5006TIP3    H236434   5.078   1.927  17.013 -0.5141  1.2852  1.5810
 5007TIP3   OH236435   4.516   5.198   5.571  0.4073  0.3200  0.0478
 5007TIP3    H136436   4.513   5.249   5.652  0.3381 -0.2497  0.4067
 5007TIP3    H236437   4.432   5.153   5.568  0.2079  0.7170 -0.5952
 5008TIP3   OH236438   6.646   2.787   3.956 -1.0350 -0.0696  0.1999
 5008TIP3    H136439   6.733   2.758   3.983 -1.4108 -1.4321  0.0245
 5008TIP3    H236440   6.650   2.882   3.960 -0.3089 -0.1281  2.6498
 5009TIP3   OH236441   5.928   6.661   3.775 -0.0640 -0.2427  0.2730
 5009TIP3    H136442   5.858   6.675   3.838 -1.7085 -1.2119 -1.2407
 5009TIP3    H236443   5.965   6.576   3.799 -0.5067 -0.4863  0.1044
 5010TIP3   OH236444   1.616   5.613  15.752  0.2658 -0.3718 -0.1574
 5010TIP3    H136445   1.624   5.628  15.846  0.2003  0.0802 -0.2230
 5010TIP3    H236446   1.696   5.650  15.715 -0.2558  0.5287 -0.4007
 5011TIP3   OH236447   4.981   5.504  13.342  0.4029  0.0635  0.4122
 5011TIP3    H136448   5.040   5.470  13.410  0.1113  0.2099  0.7430
 5011TIP3    H236449   4.977   5.598  13.359  0.0899  0.0568  0.3777
 5012TIP3   OH236450   3.754   5.252  13.271  0.3414  0.3553 -0.4148
 5012TIP3    H136451   3.731   5.194  13.344 -0.2143  1.6640  0.4850
 5012TIP3    H236452   3.844   5.279  13.291  0.2305  0.6212 -0.2720
 5013TIP3   OH236453   0.925   1.510  15.255  0.0077  0.9583 -0.5064
 5013TIP3    H136454   0.958   1.458  15.328 -1.3792 -1.0824 -1.2593
 5013TIP3    H236455   0.830   1.501  15.260 -0.4547  4.4005 -0.0413
 5014TIP3   OH236456   5.207   1.413  14.210  0.3408 -0.0755  0.2999
 5014TIP3    H136457   5.269   1.342  14.199  0.2000 -0.3368  1.1206
 5014TIP3    H236458   5.217   1.441  14.301 -0.5961  0.0074  0.3933
 5015TIP3   OH236459   2.083   0.071   0.232 -0.2721  0.4277 -0.2643
 5015TIP3    H136460   2.073   0.048   0.140  0.4074  2.2933 -0.8493
 5015TIP3    H236461   2.104   0.165   0.232 -0.7494  0.5984  1.8173
 5016TIP3   OH236462   4.112   3.859   2.144 -0.2309  0.5907  0.5083
 5016TIP3    H136463   4.043   3.901   2.092  0.8658 -0.2339 -1.7665
 5016TIP3    H236464   4.169   3.932   2.171 -1.2923  1.1317  1.3560
 5017TIP3   OH236465   3.911   5.884  11.478 -0.3522  0.0767 -0.4964
 5017TIP3    H136466   3.995   5.839  11.474 -0.9004 -0.9242 -1.1604
 5017TIP3    H236467   3.882   5.889  11.387 -0.3320  1.7528 -0.4310
 5018TIP3   OH236468   5.784   2.881  14.026 -0.2470 -0.0845 -0.1753
 5018TIP3    H136469   5.745   2.949  13.972 -0.7943 -0.4927 -0.3022
 5018TIP3    H236470   5.847   2.928  14.082 -0.6485  0.5302 -0.2276
 5019TIP3   OH236471   5.730   3.566  11.826  0.5581 -0.1742 -0.0262
 5019TIP3    H136472   5.783   3.637  11.864  0.6180 -1.5096  2.6319
 5019TIP3    H236473   5.795   3.505  11.791  0.7956 -1.0590  1.8322
 5020TIP3   OH236474   3.463   3.922  15.561  0.8182  0.0678 -0.1897
 5020TIP3    H136475   3.421   3.980  15.625  1.0963 -0.9476  0.9471
 5020TIP3    H236476   3.532   3.976  15.522  1.2007  0.4515  0.9841
 5021TIP3   OH236477   6.775   2.697  13.622  1.0039 -0.0424  0.1641
 5021TIP3    H136478   6.853   2.665  13.667  0.5123 -1.5396  0.0058
 5021TIP3    H236479   6.734   2.757  13.684  1.2133 -0.7981  1.0472
 5022TIP3   OH236480   3.021   2.054  16.278 -0.1723  0.1068  0.3224
 5022TIP3    H136481   3.084   2.092  16.218 -0.0311 -1.8146 -0.8143
 5022TIP3    H236482   3.046   1.962  16.285 -1.5400 -0.2110  1.5705
 5023TIP3   OH236483   4.174   5.655   0.645  0.6268 -0.5154  0.0147
 5023TIP3    H136484   4.217   5.642   0.560 -0.9319 -0.2270 -0.8623
 5023TIP3    H236485   4.083   5.675   0.622  0.2168 -0.2735  1.7645
 5024TIP3   OH236486   5.127   3.951  10.511  0.4818 -0.6990  0.4580
 5024TIP3    H136487   5.144   3.889  10.441 -0.0199 -1.1730  0.7435
 5024TIP3    H236488   5.212   3.990  10.531  0.8512 -1.4815  0.4503
 5025TIP3   OH236489   1.745   6.453   3.887  0.0669 -0.0134  0.5834
 5025TIP3    H136490   1.750   6.471   3.981 -0.7581  3.1484  0.1305
 5025TIP3    H236491   1.663   6.403   3.877 -1.2847  1.9303  1.3330
 5026TIP3   OH236492   4.301   3.888  14.504  0.6042 -0.1276 -0.3763
 5026TIP3    H136493   4.245   3.857  14.575 -0.5023  1.4763 -0.4998
 5026TIP3    H236494   4.369   3.940  14.547  1.3127 -1.0750 -0.3254
 5027TIP3   OH236495   4.519   0.063   0.458  0.0638 -0.2264 -0.3178
 5027TIP3    H136496   4.476   0.135   0.504  0.4714  0.3482 -0.8196
 5027TIP3    H236497   4.530   0.096   0.369  1.3228 -0.4493 -0.2627
 5028TIP3   OH236498   4.319   3.597   2.267  0.4865  0.0654  0.0374
 5028TIP3    H136499   4.306   3.662   2.198  1.2155 -2.2287 -2.4210
 5028TIP3    H236500   4.307   3.513   2.224  1.4285 -1.5317  2.6343
 5029TIP3   OH236501   6.090   0.264  16.513  0.5249 -0.0330 -0.5304
 5029TIP3    H136502   6.155   0.244  16.445  0.8666  0.9347 -0.4946
 5029TIP3    H236503   6.036   0.184  16.518  0.1381  0.0691 -2.3172
 5030TIP3   OH236504   0.655   3.602  16.689  0.3459 -0.1165  0.3403
 5030TIP3    H136505   0.565   3.610  16.720  0.2098  0.3540 -0.1519
 5030TIP3    H236506   0.687   3.521  16.729  0.1554  0.4172  1.5949
 5031TIP3   OH236507   6.534   0.299  16.121  0.2415  0.0112  0.0966
 5031TIP3    H136508   6.492   0.379  16.152  1.4636  0.6965  0.0459
 5031TIP3    H236509   6.525   0.238  16.195 -0.6877  0.1873  0.1384
 5032TIP3   OH236510   3.002   5.804   1.722  0.2106 -0.0034 -0.0404
 5032TIP3    H136511   3.039   5.753   1.794 -0.5538 -1.3649 -0.5623
 5032TIP3    H236512   3.046   5.889   1.727  2.0465 -0.9266  0.4525
 5033TIP3   OH236513   3.091   6.750  15.206 -0.1164  0.0760 -0.2100
 5033TIP3    H136514   3.028   6.758  15.278  1.0166 -0.3641  0.8557
 5033TIP3    H236515   3.134   6.835  15.203  2.2623 -0.9253  1.9927
 5034TIP3   OH236516   6.327   3.633   5.239  0.4204  0.1885  0.2683
 5034TIP3    H136517   6.249   3.640   5.295  1.1439 -1.7780  1.6366
 5034TIP3    H236518   6.311   3.556   5.185  1.1417  0.1778  0.0639
 5035TIP3   OH236519   5.078   4.662   5.249 -0.2963  0.1701 -0.0921
 5035TIP3    H136520   5.127   4.740   5.225 -0.2746 -0.3950 -2.0812
 5035TIP3    H236521   4.986   4.687   5.237 -0.2904 -0.0670 -0.7051
 5036TIP3   OH236522   3.555   3.198  16.672 -0.1664 -0.4701  0.1539
 5036TIP3    H136523   3.619   3.202  16.601 -0.1483 -1.9486  0.0645
 5036TIP3    H236524   3.484   3.143  16.639 -0.8115 -0.0419  0.7794
 5037TIP3   OH236525   0.996   1.846  13.656 -0.1683 -0.1276  0.6896
 5037TIP3    H136526   0.981   1.929  13.612  0.4217 -1.2058 -1.6992
 5037TIP3    H236527   0.950   1.855  13.740  0.2877  2.7310  0.7259
 5038TIP3   OH236528   3.925   5.224  16.104 -0.3148  0.4146 -0.1886
 5038TIP3    H136529   3.925   5.316  16.079  1.7568  0.6145  0.3423
 5038TIP3    H236530   3.863   5.182  16.044 -0.3061  1.9352 -1.3060
 5039TIP3   OH236531   6.552   1.068  12.629  0.1268  0.1612  0.3191
 5039TIP3    H136532   6.501   1.107  12.558 -0.2464 -0.5670  0.1828
 5039TIP3    H236533   6.642   1.067  12.595 -0.0533 -0.2068 -0.1574
 5040TIP3   OH236534   2.460   1.097   5.536  0.0220  0.1255  0.4691
 5040TIP3    H136535   2.466   1.004   5.512 -2.1844  0.5062 -2.0765
 5040TIP3    H236536   2.530   1.139   5.485 -0.8719  0.1870 -0.7425
 5041TIP3   OH236537   6.150   5.060  17.011  0.7022 -0.3054  0.5811
 5041TIP3    H136538   6.133   5.136  17.067  0.1354 -0.5334  0.7265
 5041TIP3    H236539   6.078   5.000  17.030  1.7061 -1.3277  1.2442
 5042TIP3   OH236540   2.974   1.025  16.392  0.1538  0.0450  0.1409
 5042TIP3    H136541   2.905   1.086  16.366  0.7672  0.1491 -1.3451
 5042TIP3    H236542   3.048   1.081  16.414  0.3176 -0.1140 -0.0009
 5043TIP3   OH236543   2.347   4.132   2.976 -0.4002  0.1913  0.1326
 5043TIP3    H136544   2.323   4.088   2.894  1.4593 -0.9011  0.1237
 5043TIP3    H236545   2.276   4.195   2.990 -0.7325  0.5124 -2.3728
 5044TIP3   OH236546   6.242   5.337   1.063 -0.0041 -0.4545 -0.3768
 5044TIP3    H136547   6.267   5.283   0.989 -1.5988  1.3809 -2.3933
 5044TIP3    H236548   6.205   5.417   1.024  0.3262  1.2088  2.3977
 5045TIP3   OH236549   6.374   1.350   3.603  0.3132  0.0291  0.3493
 5045TIP3    H136550   6.301   1.357   3.664  0.3027  1.3463  0.2223
 5045TIP3    H236551   6.373   1.259   3.574 -1.6744  0.1585 -0.1393
 5046TIP3   OH236552   5.087   3.927  16.247 -0.1774  0.4213  0.0541
 5046TIP3    H136553   5.034   3.942  16.169 -0.3434  0.5618  0.1932
 5046TIP3    H236554   5.138   3.849  16.227 -1.4661 -0.5488  0.4582
 5047TIP3   OH236555   3.791   3.107  14.282 -0.2877  0.1929 -0.1729
 5047TIP3    H136556   3.706   3.066  14.267  0.3698 -1.3039  0.0254
 5047TIP3    H236557   3.773   3.201  14.280 -2.0132 -0.0972  0.2678
 5048TIP3   OH236558   2.258   1.453  15.543  0.0052 -0.0190  0.2047
 5048TIP3    H136559   2.209   1.516  15.597  2.4669  2.7931 -0.5412
 5048TIP3    H236560   2.288   1.387  15.604 -1.1543  0.4952  1.3948
 5049TIP3   OH236561   2.101   1.703   2.270 -0.6641  0.3001 -0.1083
 5049TIP3    H136562   2.064   1.665   2.350  1.7854 -1.5417  0.2769
 5049TIP3    H236563   2.177   1.753   2.299  0.6536 -0.9292 -1.2598
 5050TIP3   OH236564   2.135   6.069   6.476 -0.2869  0.1840 -0.7369
 5050TIP3    H136565   2.182   6.026   6.549 -0.3287  1.0248 -0.2004
 5050TIP3    H236566   2.156   6.015   6.400  1.8654  0.7001 -0.5994
 5051TIP3   OH236567   3.197   1.496   1.715 -0.1864  0.2940  0.2648
 5051TIP3    H136568   3.187   1.591   1.719 -2.4096  0.2650 -1.8203
 5051TIP3    H236569   3.264   1.482   1.647 -1.7655  0.4420 -1.4114
 5052TIP3   OH236570   1.265   1.457  14.526 -0.6257  0.4820  0.1277
 5052TIP3    H136571   1.199   1.437  14.593 -0.7312  2.2880  0.6387
 5052TIP3    H236572   1.265   1.553  14.521 -0.4168  0.4190 -2.2922
 5053TIP3   OH236573   6.116   6.015   5.234 -0.0641  0.7766 -0.0903
 5053TIP3    H136574   6.153   5.926   5.239 -1.0199  0.4153  2.3416
 5053TIP3    H236575   6.165   6.064   5.300 -3.0134  0.5508  2.4721
 5054TIP3   OH236576   1.220   3.577   2.762 -0.0613 -0.0078  0.2347
 5054TIP3    H136577   1.219   3.491   2.804  0.1047  0.4327  1.1548
 5054TIP3    H236578   1.228   3.640   2.834  1.2731  0.7212 -0.5119
 5055TIP3   OH236579   4.129   3.601   0.071 -0.1081  0.2740 -0.0377
 5055TIP3    H136580   4.046   3.628   0.031 -0.0821  1.9883  0.9805
 5055TIP3    H236581   4.175   3.554   0.002 -1.8474 -0.5966 -0.6786
 5056TIP3   OH236582   6.324   5.615   3.360 -0.1666 -0.2528  0.0877
 5056TIP3    H136583   6.335   5.704   3.326 -1.6879 -0.3270 -0.6753
 5056TIP3    H236584   6.324   5.625   3.455 -0.3399  0.5738  0.0058
 5057TIP3   OH236585   3.336   2.872   0.306  0.2912  0.0911  0.2556
 5057TIP3    H136586   3.381   2.895   0.387  1.2201 -0.4277 -0.0998
 5057TIP3    H236587   3.401   2.824   0.255 -0.4319 -0.0087 -0.5979
 5058TIP3   OH236588   0.721   4.952  14.327  0.6518  0.1872  0.0964
 5058TIP3    H136589   0.661   5.022  14.303  0.8751  0.5768  0.6796
 5058TIP3    H236590   0.758   4.978  14.411  2.6420  0.6214 -0.8335
 5059TIP3   OH236591   4.120   1.744   3.871  0.2419  0.1220  0.4396
 5059TIP3    H136592   4.116   1.705   3.784 -0.1408  1.1471 -0.0235
 5059TIP3    H236593   4.076   1.681   3.928 -0.8941  0.1217 -0.3937
 5060TIP3   OH236594   2.718   6.388  14.676  0.6552  0.3531  0.0969
 5060TIP3    H136595   2.709   6.293  14.673  0.0470  0.4131 -0.0528
 5060TIP3    H236596   2.788   6.408  14.614 -2.5106  0.3987 -3.9127
 5061TIP3   OH236597   3.815   2.963   0.304 -0.2222 -1.1052  0.3394
 5061TIP3    H136598   3.908   2.984   0.289 -1.0227  0.7683 -3.3733
 5061TIP3    H236599   3.783   3.034   0.359  0.2706 -1.0620  0.5813
 5062TIP3   OH236600   3.219   3.280  17.011 -0.4201  0.1616 -0.1478
 5062TIP3    H136601   3.216   3.356  17.069  1.5988 -0.5503  1.0266
 5062TIP3    H236602   3.283   3.304  16.944  1.5175 -1.0181  1.1747
 5063TIP3   OH236603   0.858   0.239  10.825  0.0704 -0.3993 -0.2687
 5063TIP3    H136604   0.939   0.188  10.834  0.9430  0.9019 -0.4378
 5063TIP3    H236605   0.855   0.261  10.731  0.0300  0.3451 -0.0994
 5064TIP3   OH236606   1.137   1.611   2.944  0.0234 -0.0861 -0.5440
 5064TIP3    H136607   1.066   1.670   2.970 -1.2028 -1.9552  0.6009
 5064TIP3    H236608   1.111   1.577   2.859 -0.9150 -1.3602  0.2145
 5065TIP3   OH236609   1.575   4.000  11.321  0.0914  0.9388 -0.0304
 5065TIP3    H136610   1.530   4.069  11.272 -1.1856 -0.1274 -0.4020
 5065TIP3    H236611   1.543   4.010  11.411 -1.3005 -0.1082 -0.3830
 5066TIP3   OH236612   2.016   2.245  14.008  0.1352 -0.6358 -0.4858
 5066TIP3    H136613   2.084   2.211  13.949  0.6910 -0.4998  0.0631
 5066TIP3    H236614   1.982   2.323  13.965  1.0087 -0.1559 -0.3235
 5067TIP3   OH236615   5.824   2.124   0.726  0.0788 -0.1988  0.3780
 5067TIP3    H136616   5.853   2.062   0.794 -1.5417 -0.4996  0.8309
 5067TIP3    H236617   5.808   2.206   0.772 -2.7287 -0.8653  0.7758
 5068TIP3   OH236618   3.651   3.978  14.052 -0.0410  0.1765  0.6607
 5068TIP3    H136619   3.684   3.928  13.978  0.1366  0.5998  0.4533
 5068TIP3    H236620   3.562   4.003  14.026  0.2203  0.8054  0.3476
 5069TIP3   OH236621   0.040   4.731  16.226  0.3444 -0.7589  0.4095
 5069TIP3    H136622   0.022   4.766  16.313 -0.2444  0.1429 -0.0660
 5069TIP3    H236623  -0.027   4.770  16.170  2.4012  0.9800 -1.0076
 5070TIP3   OH236624   1.791   1.427   1.161 -0.0811  0.1677  0.2100
 5070TIP3    H136625   1.704   1.459   1.183  0.2326  1.4416 -0.2922
 5070TIP3    H236626   1.788   1.333   1.179 -2.1898 -0.2314 -1.7748
 5071TIP3   OH236627   0.955   1.637   0.652 -0.2667 -0.5095 -0.6785
 5071TIP3    H136628   0.897   1.639   0.577 -1.2650  0.8073  0.1013
 5071TIP3    H236629   1.036   1.678   0.622 -0.4089 -0.6403 -1.2342
 5072TIP3   OH236630   0.365   6.244  11.805 -0.4673  0.1359 -0.3282
 5072TIP3    H136631   0.373   6.157  11.767 -0.5840  0.5559 -1.3393
 5072TIP3    H236632   0.382   6.231  11.898 -2.0576 -1.2308 -0.1893
 5073TIP3   OH236633   5.211   4.739   4.353  0.3135  0.7119  0.0639
 5073TIP3    H136634   5.119   4.759   4.370 -0.1653 -2.0735  1.3530
 5073TIP3    H236635   5.217   4.729   4.258 -1.2098 -0.8230  0.0780
 5074TIP3   OH236636   0.046   5.547  17.002 -0.0378 -0.2914  0.5875
 5074TIP3    H136637   0.015   5.461  16.973  1.7252 -1.3290  1.6478
 5074TIP3    H236638  -0.000   5.562  17.085 -0.4371 -0.1483  0.3417
 5075TIP3   OH236639   1.290   3.603  14.149  1.0711 -0.7889 -0.0758
 5075TIP3    H136640   1.229   3.573  14.216 -0.4826 -0.1857 -1.1485
 5075TIP3    H236641   1.278   3.698  14.145  1.6887 -0.7228 -0.6747
 5076TIP3   OH236642   5.325   0.945  12.973 -0.1584  0.1134 -0.1729
 5076TIP3    H136643   5.384   0.951  12.898 -1.8486 -0.3525 -1.5864
 5076TIP3    H236644   5.299   1.035  12.990  1.4405  0.4269  0.9407
 5077TIP3   OH236645   3.973   2.016   3.224  0.2890 -0.0848 -0.0891
 5077TIP3    H136646   3.969   2.068   3.144  0.7696 -1.1737 -0.8359
 5077TIP3    H236647   3.885   1.978   3.232 -0.5484  1.9838  1.2802
 5078TIP3   OH236648   0.009   6.498  15.244 -0.1309  0.1326 -0.0706
 5078TIP3    H136649  -0.060   6.560  15.268  0.8184  1.3836 -0.4941
 5078TIP3    H236650  -0.037   6.430  15.194 -1.1236  0.7394 -0.0134
 5079TIP3   OH236651   1.640   1.568   2.806  0.5261  0.0310 -0.3670
 5079TIP3    H136652   1.590   1.555   2.726  0.0660  0.3893 -0.1407
 5079TIP3    H236653   1.580   1.611   2.866  0.2095 -2.0167  0.8868
 5080TIP3   OH236654   6.019   4.546   4.988 -0.1572 -0.3748 -0.0845
 5080TIP3    H136655   5.931   4.571   4.958 -0.1024 -0.8192 -0.6387
 5080TIP3    H236656   6.002   4.483   5.058 -0.2839  0.0184  0.2393
 5081TIP3   OH236657   1.820   5.860   2.842 -0.4503 -0.2517  0.1678
 5081TIP3    H136658   1.899   5.900   2.878 -0.5718  0.9170 -0.8033
 5081TIP3    H236659   1.752   5.880   2.906 -0.1236 -0.5800  0.6218
 5082TIP3   OH236660   2.005   2.768   4.120  0.0639 -0.1680  0.3641
 5082TIP3    H136661   1.965   2.796   4.037 -0.4770 -1.5329  0.1367
 5082TIP3    H236662   1.937   2.785   4.186 -0.3978 -1.1925  0.1772
 5083TIP3   OH236663   0.492   3.551   2.397 -0.1713  0.1875 -0.2427
 5083TIP3    H136664   0.403   3.537   2.365 -0.1599  1.7979 -1.0745
 5083TIP3    H236665   0.497   3.645   2.415  1.5359  0.2561 -0.8622
 5084TIP3   OH236666   5.105   3.441  16.388 -0.1368  0.4715 -0.0322
 5084TIP3    H136667   5.030   3.499  16.377 -0.7454 -0.1577  0.5931
 5084TIP3    H236668   5.094   3.374  16.320  0.2848  0.8006 -0.4290
 5085TIP3   OH236669   1.507   0.707   1.135 -0.1204 -0.1531 -0.2585
 5085TIP3    H136670   1.495   0.752   1.218 -2.9302 -1.4780  0.2040
 5085TIP3    H236671   1.541   0.774   1.076  1.0179  1.0800  1.6862
 5086TIP3   OH236672   1.747   4.434  13.302  0.7286 -0.2195 -0.2131
 5086TIP3    H136673   1.748   4.407  13.394 -0.6164 -1.2751 -0.4773
 5086TIP3    H236674   1.837   4.461  13.284  0.9000  0.4490  1.5240
 5087TIP3   OH236675   2.202   3.917  14.519 -0.2176  0.2082 -0.0078
 5087TIP3    H136676   2.153   3.980  14.572 -0.9541  0.1990 -0.6554
 5087TIP3    H236677   2.284   3.961  14.498  0.2163  0.1081  1.3631
 5088TIP3   OH236678   0.375   5.114  15.266  0.6644  0.2980 -0.1313
 5088TIP3    H136679   0.338   5.064  15.339  2.9450  0.7983  1.5206
 5088TIP3    H236680   0.314   5.186  15.253  0.4661  0.5401  1.7684
 5089TIP3   OH236681   4.731   4.268  14.590  0.0830  0.0048  0.1577
 5089TIP3    H136682   4.805   4.316  14.627  0.0793 -0.0857  0.2825
 5089TIP3    H236683   4.677   4.336  14.550 -0.3252  0.2026  1.0143
 5090TIP3   OH236684   6.758   6.048  16.938 -0.5080  0.1446  0.3019
 5090TIP3    H136685   6.681   6.004  16.901 -0.6853  0.1350  0.6853
 5090TIP3    H236686   6.832   5.995  16.907 -0.7896 -1.0972  1.6823
 5091TIP3   OH236687   0.244   5.971  15.587  0.6658  0.0674  0.1965
 5091TIP3    H136688   0.190   5.982  15.666  2.2448 -0.0531  1.3378
 5091TIP3    H236689   0.222   5.883  15.556 -0.2686  0.2691  0.2399
 5092TIP3   OH236690   4.371   4.748   3.554  0.1840  0.6253 -0.0219
 5092TIP3    H136691   4.320   4.729   3.475  0.6122 -1.6019  0.1817
 5092TIP3    H236692   4.429   4.673   3.563  0.5147  1.0928  2.1302
 5093TIP3   OH236693   0.697   4.683   5.304  0.1678  0.1655  0.0444
 5093TIP3    H136694   0.646   4.632   5.366 -0.0241  2.6328  2.0837
 5093TIP3    H236695   0.785   4.648   5.310 -0.0150 -0.1353  1.1767
 5094TIP3   OH236696   4.341   6.179   4.681 -0.2090  0.1798 -0.0288
 5094TIP3    H136697   4.423   6.135   4.703 -0.4609 -1.3919 -2.0306
 5094TIP3    H236698   4.278   6.109   4.667 -1.7954  1.3420  0.9112
 5095TIP3   OH236699   3.178   0.756   3.700 -0.6923  0.4585  0.4119
 5095TIP3    H136700   3.203   0.664   3.710  0.3651  0.3738 -2.3463
 5095TIP3    H236701   3.221   0.800   3.773  0.1601 -0.9919  0.8315
 5096TIP3   OH236702   3.984   3.952  14.478  0.0420  0.0314  0.5363
 5096TIP3    H136703   3.946   3.882  14.425  0.6412 -0.1732  0.3681
 5096TIP3    H236704   3.917   3.973  14.542 -0.8485  0.5435 -0.5434
 5097TIP3   OH236705   4.516   5.419  13.687  0.1168  0.2224 -0.2875
 5097TIP3    H136706   4.553   5.497  13.728  1.2294 -0.4525  0.0295
 5097TIP3    H236707   4.547   5.346  13.740  0.5854 -0.5815 -1.6072
 5098TIP3   OH236708   6.588   6.256   0.246 -0.4266 -0.0805 -0.3385
 5098TIP3    H136709   6.531   6.291   0.314 -0.3770  2.0273 -1.3035
 5098TIP3    H236710   6.676   6.283   0.273 -0.2578 -0.3498 -0.6072
 5099TIP3   OH236711   0.808   2.577   5.755  0.2059  0.1526 -0.5236
 5099TIP3    H136712   0.731   2.525   5.731  0.8524 -0.2552 -1.7944
 5099TIP3    H236713   0.857   2.587   5.673  0.5124  2.0897 -0.1511
 5100TIP3   OH236714   2.407   5.430  13.638 -0.5936  0.0936 -0.7277
 5100TIP3    H136715   2.435   5.405  13.726 -2.0459  2.4212  0.4680
 5100TIP3    H236716   2.385   5.346  13.596  3.5457 -1.4768 -0.2718
 5101TIP3   OH236717   0.587   2.132  14.748 -0.5697 -0.5249 -0.2420
 5101TIP3    H136718   0.586   2.040  14.722  1.4681 -0.1602 -1.7949
 5101TIP3    H236719   0.662   2.139  14.808 -0.9691  0.0515  0.2016
 5102TIP3   OH236720   5.462   4.487   5.797 -0.2372 -0.2291  0.6185
 5102TIP3    H136721   5.452   4.476   5.892 -0.5471 -0.7615  0.5257
 5102TIP3    H236722   5.523   4.560   5.788  0.3382 -0.6250  1.2334
 5103TIP3   OH236723   3.787   5.216   4.698  0.0792  0.2446 -0.3308
 5103TIP3    H136724   3.882   5.210   4.693 -0.0695 -2.4437 -1.0616
 5103TIP3    H236725   3.759   5.221   4.607 -0.5304 -0.0026 -0.1618
 5104TIP3   OH236726   6.266   5.535  13.551  0.0794 -0.3148  0.0373
 5104TIP3    H136727   6.330   5.516  13.619 -0.5090  1.1658  1.0472
 5104TIP3    H236728   6.314   5.587  13.486 -0.1916  1.2545  1.0563
 5105TIP3   OH236729   1.929   0.932   1.208 -0.3221  0.2932  0.0010
 5105TIP3    H136730   1.845   0.978   1.206  0.7636  2.3688 -0.4905
 5105TIP3    H236731   1.914   0.858   1.267 -1.8386  1.9579  1.8411
 5106TIP3   OH236732   0.922   6.549   4.886  0.2896  0.0027 -0.8230
 5106TIP3    H136733   0.950   6.554   4.795  1.3288 -0.0699 -0.5193
 5106TIP3    H236734   0.924   6.639   4.917  0.2993 -0.0166 -0.7671
 5107TIP3   OH236735   4.288   2.429  11.895 -0.6830  0.6702 -0.1856
 5107TIP3    H136736   4.218   2.364  11.902 -0.4461  0.4740  0.5445
 5107TIP3    H236737   4.328   2.430  11.982 -0.9140  2.0640 -0.0665
 5108TIP3   OH236738   5.229   4.780  16.562 -0.1256 -0.0407 -0.1855
 5108TIP3    H136739   5.141   4.814  16.581 -0.6944 -1.0551 -0.9234
 5108TIP3    H236740   5.232   4.773  16.467  0.1457 -1.5633 -0.0865
 5109TIP3   OH236741   1.658   2.444  16.008 -0.4129  0.7585  0.0082
 5109TIP3    H136742   1.598   2.397  16.066  1.7849  0.4774  2.2363
 5109TIP3    H236743   1.686   2.520  16.059  1.0155  0.9447 -0.9861
 5110TIP3   OH236744   3.050   2.797  15.192 -0.1133 -1.1676  0.0663
 5110TIP3    H136745   3.048   2.724  15.254 -3.5644 -1.5738 -0.3043
 5110TIP3    H236746   3.033   2.756  15.107 -3.7862  0.0528  0.0479
 5111TIP3   OH236747   6.350   2.309   4.816 -0.1714  0.0846  0.0641
 5111TIP3    H136748   6.431   2.267   4.846 -0.1115  0.0226 -0.1849
 5111TIP3    H236749   6.353   2.302   4.721 -1.0237 -0.9516  0.0995
 5112TIP3   OH236750   5.827   6.351  15.152 -0.0171 -0.1162  0.5258
 5112TIP3    H136751   5.904   6.381  15.104 -0.1916  1.0293  0.9507
 5112TIP3    H236752   5.753   6.381  15.101 -0.1965  0.6350  1.2090
 5113TIP3   OH236753   4.427   3.738   2.517 -0.1898 -0.0284 -0.3835
 5113TIP3    H136754   4.507   3.694   2.546  1.6288  2.2960 -1.5492
 5113TIP3    H236755   4.402   3.693   2.436 -0.4053 -1.1060  0.2652
 5114TIP3   OH236756   6.096   5.086   3.244  0.4863  1.0884 -0.2929
 5114TIP3    H136757   6.138   5.124   3.321  2.2745  0.2855 -0.8423
 5114TIP3    H236758   6.043   5.015   3.279  0.1737  1.6128  0.3260
 5115TIP3   OH236759   1.258   0.497  12.742  0.0911 -0.3459  0.1677
 5115TIP3    H136760   1.225   0.477  12.655 -1.8475  0.7675  0.5879
 5115TIP3    H236761   1.334   0.553  12.726  0.9528 -1.7221 -0.8050
 5116TIP3   OH236762   1.650   2.986   5.943 -0.2560 -0.1858  0.2729
 5116TIP3    H136763   1.736   3.007   5.906  0.7807 -1.0874  2.0451
 5116TIP3    H236764   1.604   3.070   5.948  0.9378  0.4793  0.3109
 5117TIP3   OH236765   0.287   2.137   2.114 -0.3563  0.0816  0.0883
 5117TIP3    H136766   0.297   2.177   2.028 -0.1618 -1.4377 -0.6177
 5117TIP3    H236767   0.236   2.201   2.164  0.6017  1.5501 -0.7372
 5118TIP3   OH236768   1.214   3.054   3.756  0.0100  0.4007 -0.0232
 5118TIP3    H136769   1.291   3.097   3.720  0.8798  0.2316  1.5270
 5118TIP3    H236770   1.232   2.960   3.747  0.3151  0.3558  0.9686
 5119TIP3   OH236771   2.669   5.929  12.654  0.1374 -0.5123 -0.4757
 5119TIP3    H136772   2.729   5.906  12.583  1.7928  1.0007  0.3518
 5119TIP3    H236773   2.593   5.967  12.609  1.9866  2.3332 -1.5038
 5120TIP3   OH236774   2.095   2.414   5.614 -0.4276  0.1002  0.0932
 5120TIP3    H136775   2.161   2.357   5.574 -1.5958 -1.2507  0.0131
 5120TIP3    H236776   2.134   2.501   5.612 -0.4707  0.2820 -4.4168
 5121TIP3   OH236777   1.695   5.007  15.888 -0.0543  0.7740  0.0206
 5121TIP3    H136778   1.716   4.924  15.930 -0.6503  0.4880 -0.2417
 5121TIP3    H236779   1.599   5.012  15.890 -0.1836  0.2839 -2.1693
 5122TIP3   OH236780   4.625   3.836   1.123 -0.5136 -0.2933 -0.2409
 5122TIP3    H136781   4.539   3.858   1.088 -0.8582 -1.3051 -0.0409
 5122TIP3    H236782   4.667   3.921   1.139 -1.7899  0.2146  0.4832
 5123TIP3   OH236783   2.820   0.644   1.632 -0.1950 -0.2050  0.5425
 5123TIP3    H136784   2.748   0.615   1.688  0.6256  0.7105  2.1306
 5123TIP3    H236785   2.805   0.738   1.621  0.0555 -0.2451 -0.1994
 5124TIP3   OH236786   5.118   6.698  15.488 -0.1851 -0.1897  0.4702
 5124TIP3    H136787   5.190   6.761  15.481 -0.7561  0.3390 -1.2881
 5124TIP3    H236788   5.046   6.739  15.439 -0.5691 -2.2275 -0.7578
 5125TIP3   OH236789   2.050   1.740   4.180 -0.0410  0.1237  0.4195
 5125TIP3    H136790   2.095   1.811   4.135 -0.1726 -0.7982 -1.2657
 5125TIP3    H236791   2.027   1.776   4.266  3.0732  0.9252  1.0476
 5126TIP3   OH236792   5.573   6.181  11.451  0.2290  0.2245 -0.2380
 5126TIP3    H136793   5.584   6.258  11.395 -2.9514  1.3288  0.5031
 5126TIP3    H236794   5.488   6.145  11.427 -0.5217 -0.2163  2.7504
 5127TIP3   OH236795   5.800   4.908   2.053  0.1737  0.4723  0.0604
 5127TIP3    H136796   5.847   4.843   2.000  0.8500  0.7520  0.3113
 5127TIP3    H236797   5.759   4.856   2.123  0.2958  0.2539 -0.0277
 5128TIP3   OH236798   4.350   5.748   2.102  0.0076  0.5237 -0.3758
 5128TIP3    H136799   4.348   5.655   2.126  0.4790  0.3070 -1.1647
 5128TIP3    H236800   4.439   5.764   2.071  0.1437  1.4208  0.4080
 5129TIP3   OH236801   0.984   1.108   0.733 -0.4625 -0.5453  0.4433
 5129TIP3    H136802   1.050   1.144   0.673  0.4830 -0.7900  1.3087
 5129TIP3    H236803   0.917   1.072   0.675 -0.1964  0.3586 -0.4518
 5130TIP3   OH236804   4.763   4.082   5.664 -0.1947 -0.4798 -0.4375
 5130TIP3    H136805   4.672   4.093   5.638 -0.5198 -0.0943  0.7964
 5130TIP3    H236806   4.769   4.125   5.749  1.3831  0.3568 -0.9468
 5131TIP3   OH236807   2.632   2.602  16.386  0.4226 -0.2554 -0.2880
 5131TIP3    H136808   2.630   2.642  16.473  1.2429  1.3680 -0.9643
 5131TIP3    H236809   2.644   2.509  16.403 -2.2701 -0.4029  1.3911
 5132TIP3   OH236810   3.101   5.357   4.656 -0.1353 -0.3003 -0.4215
 5132TIP3    H136811   3.172   5.403   4.701  0.1870  0.5300 -1.7268
 5132TIP3    H236812   3.048   5.320   4.726 -0.4287  2.0778  0.7190
 5133TIP3   OH236813   4.466   4.533   1.031 -0.1403  0.3539 -0.0925
 5133TIP3    H136814   4.431   4.454   1.073  1.9197 -1.3735 -1.3980
 5133TIP3    H236815   4.406   4.551   0.960  0.0947 -0.9530 -0.6605
 5134TIP3   OH236816   5.013   0.250   4.667 -0.7153  0.2802 -0.0973
 5134TIP3    H136817   4.952   0.191   4.711 -1.6280  1.8404  0.8227
 5134TIP3    H236818   5.096   0.202   4.665 -1.3559 -0.9150  0.8430
 5135TIP3   OH236819   0.737   4.228   0.278  0.4470 -0.5301 -0.2682
 5135TIP3    H136820   0.646   4.231   0.250  0.6156  0.4424 -0.7445
 5135TIP3    H236821   0.734   4.245   0.372  0.2772  1.7662 -0.6373
 5136TIP3   OH236822   4.769   5.434   4.759  0.2547  0.0703 -0.4772
 5136TIP3    H136823   4.846   5.463   4.807  0.6953 -0.9101 -0.5689
 5136TIP3    H236824   4.761   5.497   4.687  1.4133 -0.2431 -0.8988
 5137TIP3   OH236825   0.207   6.669   1.231 -0.2907 -0.3296 -0.2888
 5137TIP3    H136826   0.210   6.741   1.294  1.7831  0.7001 -1.4389
 5137TIP3    H236827   0.247   6.706   1.152  0.6245 -2.6606 -0.9920
 5138TIP3   OH236828   1.316   4.323   3.947  0.0034  0.2072 -0.0882
 5138TIP3    H136829   1.400   4.286   3.920 -0.5073 -0.5804 -0.6508
 5138TIP3    H236830   1.311   4.304   4.041 -0.7172 -2.2398 -0.5359
 5139TIP3   OH236831   4.577   3.058   1.157  0.3936 -0.7635 -0.0854
 5139TIP3    H136832   4.523   3.005   1.216 -0.3654  1.1344  1.0281
 5139TIP3    H236833   4.648   3.090   1.212 -0.2294  0.8935 -0.1938
 5140TIP3   OH236834   5.169   1.726  14.707  0.3373  0.4146 -0.3069
 5140TIP3    H136835   5.089   1.759  14.748  0.1364  0.1398 -0.4715
 5140TIP3    H236836   5.204   1.801  14.659 -0.5640  0.1841 -1.3720
 5141TIP3   OH236837   6.505   3.815   2.976 -0.2441 -0.1869  0.1151
 5141TIP3    H136838   6.509   3.747   3.043 -0.7423 -0.5926 -0.2670
 5141TIP3    H236839   6.421   3.801   2.932  0.2087 -0.1055 -0.7908
 5142TIP3   OH236840   2.277   0.677  14.051 -0.0204  0.3113  0.0234
 5142TIP3    H136841   2.337   0.661  13.979 -0.9703  2.6384 -1.3808
 5142TIP3    H236842   2.196   0.632  14.027  0.2017 -0.3617  0.5013
 5143TIP3   OH236843   6.370   0.333  13.599 -0.4482 -0.1312  0.6771
 5143TIP3    H136844   6.392   0.334  13.505 -0.6396  0.1480  0.6362
 5143TIP3    H236845   6.455   0.330  13.643 -0.3644 -1.9612  0.4753
 5144TIP3   OH236846   0.892   5.443  13.722  0.2169  0.2830  0.3556
 5144TIP3    H136847   0.875   5.424  13.814  1.1292 -0.8658  0.3100
 5144TIP3    H236848   0.926   5.532  13.722 -1.0038  0.7774  0.9624
 5145TIP3   OH236849   5.500   5.146  17.202 -0.4065 -0.1167 -0.0845
 5145TIP3    H136850   5.485   5.152  17.296 -0.4477  0.4824 -0.1225
 5145TIP3    H236851   5.595   5.151  17.192 -0.2271 -2.3907  0.0568
 5146TIP3   OH236852   6.426   2.941   3.750 -0.1174  0.0129 -0.9410
 5146TIP3    H136853   6.382   2.908   3.829 -1.1840  1.8371 -0.7036
 5146TIP3    H236854   6.369   3.011   3.719  1.5481  1.0078 -1.9042
 5147TIP3   OH236855   3.928   4.153   5.001 -0.5806  0.2269 -0.4718
 5147TIP3    H136856   4.023   4.166   5.006 -0.6559  0.8739 -0.6798
 5147TIP3    H236857   3.891   4.232   5.038 -1.0543 -0.8846  1.5714
 5148TIP3   OH236858   5.082   2.984  16.674 -0.7204 -0.8726 -0.4891
 5148TIP3    H136859   5.013   3.011  16.614 -1.2146 -0.0893  0.4109
 5148TIP3    H236860   5.132   2.919  16.625 -0.7323  0.1940 -1.9726
 5149TIP3   OH236861   5.457   2.115   5.057  0.0930 -0.0351  0.4720
 5149TIP3    H136862   5.429   2.094   4.967  1.1129 -0.5724  0.2746
 5149TIP3    H236863   5.471   2.030   5.099  3.0395  0.1326  0.0386
 5150TIP3   OH236864   3.337   4.180   2.567 -0.1903 -0.3433  0.4334
 5150TIP3    H136865   3.306   4.178   2.476 -0.6109 -2.0343  0.5855
 5150TIP3    H236866   3.280   4.243   2.610 -1.5344 -1.2353  0.0294
 5151TIP3   OH236867   5.964   6.639   3.320  0.1918 -0.6026 -0.0551
 5151TIP3    H136868   5.893   6.576   3.334 -0.2638  0.1683  1.3019
 5151TIP3    H236869   5.940   6.685   3.239 -1.4611  0.3806  0.9303
 5152TIP3   OH236870   0.990   3.970  12.488  0.6073  0.0475  0.2702
 5152TIP3    H136871   0.908   4.013  12.512  0.5664  0.3112 -0.3062
 5152TIP3    H236872   1.059   4.026  12.523  0.5403 -0.0278  0.5185
 5153TIP3   OH236873   0.531   5.355   5.160 -0.6576  0.3165  0.6504
 5153TIP3    H136874   0.447   5.319   5.188 -0.4303 -2.1263 -1.4326
 5153TIP3    H236875   0.528   5.447   5.189 -2.8797 -0.3512  2.9478
 5154TIP3   OH236876   3.160   6.201  13.814  0.1283 -0.0474 -0.6390
 5154TIP3    H136877   3.221   6.156  13.873  0.3788  1.2468  0.1167
 5154TIP3    H236878   3.217   6.244  13.750 -0.0620 -0.0300 -0.7940
 5155TIP3   OH236879   6.409   2.138   0.110  0.0342 -0.0975  0.1467
 5155TIP3    H136880   6.400   2.106   0.020  2.0456 -0.0011 -0.1381
 5155TIP3    H236881   6.387   2.062   0.164  1.5437 -1.0553 -0.4951
 5156TIP3   OH236882   5.747   3.935  11.134 -0.5931 -0.7233  0.1194
 5156TIP3    H136883   5.750   3.897  11.221 -1.0765 -1.6074 -0.2437
 5156TIP3    H236884   5.664   3.904  11.096 -0.3136 -0.4946 -0.7181
 5157TIP3   OH236885   1.993   1.006   0.271 -0.0156 -0.2923 -0.4106
 5157TIP3    H136886   1.966   0.929   0.221 -1.6353  0.2216 -0.3629
 5157TIP3    H236887   2.039   1.061   0.207 -0.7313 -0.3328 -0.9749
 5158TIP3   OH236888   3.181   2.280  15.766 -0.8253  0.3383 -0.2531
 5158TIP3    H136889   3.243   2.300  15.837 -3.2592 -0.4474  2.2698
 5158TIP3    H236890   3.127   2.358  15.759 -0.5453  0.4496 -1.4019
 5159TIP3   OH236891   2.377   4.396  13.554  0.4236 -0.3195 -0.9431
 5159TIP3    H136892   2.322   4.463  13.596  2.2958 -0.0399  1.1787
 5159TIP3    H236893   2.344   4.313  13.589 -0.5544 -0.4100 -2.0040
 5160TIP3   OH236894   4.926   6.324   5.170 -0.0776  0.3449 -0.3640
 5160TIP3    H136895   4.927   6.285   5.082 -0.6196 -0.6765  0.0681
 5160TIP3    H236896   4.967   6.259   5.226  0.9585  1.3204  0.0317
 5161TIP3   OH236897   0.330   4.072  13.963  0.0089 -0.0502  0.2999
 5161TIP3    H136898   0.281   4.149  13.933  1.4191  0.5079 -0.6406
 5161TIP3    H236899   0.416   4.106  13.988 -0.2406 -0.8984  2.5953
 5162TIP3   OH236900   1.320   2.461   4.662  0.0537 -0.5062 -0.0801
 5162TIP3    H136901   1.357   2.379   4.694 -1.4062 -1.4593 -0.7404
 5162TIP3    H236902   1.396   2.518   4.648  0.9542 -0.7821  2.8909
 5163TIP3   OH236903   1.675   5.105   2.261 -0.2566  0.1075  0.2321
 5163TIP3    H136904   1.678   5.010   2.276  0.5890 -0.8288 -4.3188
 5163TIP3    H236905   1.766   5.130   2.248 -0.4378  1.7215  1.6561
 5164TIP3   OH236906   0.405   1.324   5.264 -0.3034  0.4488  0.4609
 5164TIP3    H136907   0.367   1.410   5.244  2.4180  1.9887  1.3972
 5164TIP3    H236908   0.417   1.283   5.178 -1.1249  1.2355 -0.0558
 5165TIP3   OH236909   2.889   4.899   1.349  0.1049  0.4614 -0.3557
 5165TIP3    H136910   2.837   4.838   1.402 -1.1443 -0.1658 -2.2013
 5165TIP3    H236911   2.974   4.903   1.394 -0.6873 -0.4705  1.3372
 5166TIP3   OH236912   1.703   4.446   4.090 -0.0105 -0.1139  0.3593
 5166TIP3    H136913   1.769   4.391   4.048 -0.1969  0.1840 -0.3353
 5166TIP3    H236914   1.730   4.450   4.182  0.0476 -1.2856  0.4050
 5167TIP3   OH236915   6.049   5.817   4.176  0.3651 -0.4938  0.3728
 5167TIP3    H136916   6.055   5.735   4.225 -1.8595 -0.2584  1.1391
 5167TIP3    H236917   6.054   5.885   4.244  2.7304  0.0840 -0.3005
 5168TIP3   OH236918   2.167   3.771   1.531 -0.4940  0.3662  0.0673
 5168TIP3    H136919   2.148   3.840   1.595 -0.1166  1.1702 -0.6579
 5168TIP3    H236920   2.261   3.780   1.514 -0.1879 -1.0801  0.7980
 5169TIP3   OH236921   5.584   5.647  16.007 -0.0799 -0.1565  0.2190
 5169TIP3    H136922   5.574   5.605  15.921 -1.1463  1.5849 -0.5678
 5169TIP3    H236923   5.526   5.723  16.003 -0.4107 -0.2057  2.6292
 5170TIP3   OH236924   4.684   3.237  13.728  0.3796 -0.1242  0.2103
 5170TIP3    H136925   4.596   3.227  13.764 -0.0269  0.2585 -0.6685
 5170TIP3    H236926   4.727   3.153  13.747 -0.3579 -0.5279  0.1305
 5171TIP3   OH236927   3.968   2.703   1.123  0.1538 -0.1855  0.0858
 5171TIP3    H136928   3.922   2.707   1.207  0.8784 -0.1300  0.4978
 5171TIP3    H236929   3.940   2.781   1.076 -0.1401 -0.1349  0.3468
 5172TIP3   OH236930   0.467   1.077   2.194  0.0665  0.3066 -0.0046
 5172TIP3    H136931   0.391   1.132   2.173 -0.1517  0.4003  0.9772
 5172TIP3    H236932   0.437   0.988   2.179 -0.0606  0.3751 -0.1586
 5173TIP3   OH236933   0.919   5.324   6.479  0.0227 -0.2846  0.1353
 5173TIP3    H136934   0.977   5.374   6.422  0.3583 -2.4025 -1.5412
 5173TIP3    H236935   0.978   5.282   6.542  0.2339 -1.3871 -0.7486
 5174TIP3   OH236936   4.169   5.052   3.402  0.9869  0.1495  0.2295
 5174TIP3    H136937   4.117   5.047   3.322  1.3183  0.8048 -0.0417
 5174TIP3    H236938   4.256   5.023   3.376  0.4558 -2.3617  1.0166
 5175TIP3   OH236939   5.609   1.530  15.447  0.3537 -0.0501 -0.5453
 5175TIP3    H136940   5.528   1.543  15.496  0.0611  0.7543 -1.2197
 5175TIP3    H236941   5.581   1.493  15.363  0.9042 -2.0755  0.0890
 5176TIP3   OH236942   6.456   0.843   0.201  0.9569  0.0555  0.4697
 5176TIP3    H136943   6.543   0.880   0.216  0.6989  0.4653  0.9662
 5176TIP3    H236944   6.456   0.761   0.251  0.3969  1.0008  2.0812
 5177TIP3   OH236945   3.169   4.521   6.281  0.5297  0.3740  0.4606
 5177TIP3    H136946   3.145   4.544   6.191  1.1045 -0.1470  0.1638
 5177TIP3    H236947   3.201   4.602   6.320 -1.2417  0.9851  0.7263
 5178TIP3   OH236948   3.195   5.775   5.851 -0.1276  0.2056  0.3334
 5178TIP3    H136949   3.256   5.707   5.880  0.1643 -0.2027 -1.1288
 5178TIP3    H236950   3.127   5.776   5.918  0.9403 -0.0637  1.4539
 5179TIP3   OH236951   0.586   3.193  10.949 -0.1342 -0.0490 -0.5057
 5179TIP3    H136952   0.575   3.203  10.855 -0.0924 -0.3421 -0.5412
 5179TIP3    H236953   0.592   3.283  10.982  0.5871  0.0426 -0.8699
 5180TIP3   OH236954   2.578   2.155   6.933 -0.0492  0.2396 -0.5662
 5180TIP3    H136955   2.661   2.125   6.970 -0.0095  0.8654 -0.1335
 5180TIP3    H236956   2.557   2.090   6.866  0.0143 -0.7785  0.3685
 5181TIP3   OH236957   0.364   3.052   2.731  0.2249  0.4323  0.3451
 5181TIP3    H136958   0.395   3.138   2.758 -1.6593  1.3951 -0.4215
 5181TIP3    H236959   0.298   3.028   2.795  0.1377 -0.0684  0.0751
 5182TIP3   OH236960   2.408   4.788  13.746 -0.1804 -0.5480 -0.0347
 5182TIP3    H136961   2.407   4.704  13.792 -0.5310 -0.5134  0.0272
 5182TIP3    H236962   2.316   4.816  13.745  0.0772  0.4082  0.9955
 5183TIP3   OH236963   4.092   5.886   4.072 -0.0540 -0.0759  0.1972
 5183TIP3    H136964   4.162   5.906   4.133 -0.9384  0.3479  1.1109
 5183TIP3    H236965   4.136   5.852   3.994  1.1534  0.3080  0.6964
 5184TIP3   OH236966   3.735   5.358   2.464 -0.0828 -0.0896 -0.2679
 5184TIP3    H136967   3.667   5.313   2.414 -1.8643 -0.2946  2.1197
 5184TIP3    H236968   3.702   5.358   2.554  2.0779  1.8215  0.6325
 5185TIP3   OH236969   3.642   6.207  10.680  0.2437  0.1341  0.0804
 5185TIP3    H136970   3.636   6.197  10.775 -0.8796  0.2060  0.0365
 5185TIP3    H236971   3.707   6.142  10.653 -0.5435 -0.9809  0.7459
 5186TIP3   OH236972   3.568   2.747  12.557 -0.1232 -0.1609  0.0115
 5186TIP3    H136973   3.517   2.672  12.527 -0.1138  0.4375 -1.6000
 5186TIP3    H236974   3.578   2.802  12.479  1.8155  0.4011  0.5915
 5187TIP3   OH236975   5.288   5.978  10.955 -0.1773 -0.0285 -0.0158
 5187TIP3    H136976   5.332   6.037  11.017  0.4411  0.6543 -1.0716
 5187TIP3    H236977   5.356   5.918  10.927 -0.8946 -1.5280  1.3336
 5188TIP3   OH236978   4.003   3.006   4.207  0.1808 -0.2020  0.3147
 5188TIP3    H136979   3.926   2.975   4.159  1.2877 -0.0160 -1.6899
 5188TIP3    H236980   3.970   3.080   4.259 -0.7681  0.7261 -1.5205
 5189TIP3   OH236981   6.030   4.725   3.239  0.2624  0.0229  0.0034
 5189TIP3    H136982   6.094   4.666   3.200 -0.4540 -1.0873  0.4742
 5189TIP3    H236983   5.957   4.669   3.264  0.1120  0.9095  1.6861
 5190TIP3   OH236984   1.698   2.069  11.854 -0.8495  0.1457  0.1193
 5190TIP3    H136985   1.634   2.010  11.893 -1.9124  0.4484 -1.0962
 5190TIP3    H236986   1.668   2.156  11.876  1.7169  0.3616  3.4987
 5191TIP3   OH236987   4.190   4.830  12.139  0.1137 -0.2962  0.6358
 5191TIP3    H136988   4.165   4.748  12.098 -2.9917  1.0995 -0.6047
 5191TIP3    H236989   4.145   4.830  12.223  2.4470 -1.0101  1.9617
 5192TIP3   OH236990   4.477   0.319  16.065  0.7706  0.0705  0.1682
 5192TIP3    H136991   4.420   0.277  16.130 -0.7237  0.0869 -1.0808
 5192TIP3    H236992   4.557   0.265  16.065 -0.0404 -1.1743  0.5236
 5193TIP3   OH236993   1.283   2.739   4.373 -0.3661 -0.3037 -0.2788
 5193TIP3    H136994   1.339   2.663   4.386  0.7851  0.8540  2.2316
 5193TIP3    H236995   1.326   2.790   4.305  0.2852 -0.6267 -0.1112
 5194TIP3   OH236996   2.419   6.258   5.130  0.1008  0.0197  0.3568
 5194TIP3    H136997   2.494   6.317   5.139 -0.1906  0.8252 -1.8715
 5194TIP3    H236998   2.446   6.194   5.064 -0.3798 -1.0740  1.1844
 5195TIP3   OH236999   4.566   0.817  12.176  0.1716  0.2458 -0.5700
 5195TIP3    H137000   4.639   0.768  12.138  0.9385  1.4548 -0.7265
 5195TIP3    H237001   4.608   0.889  12.223 -0.9437  1.2166 -1.0186
 5196TIP3   OH237002   1.093   4.420   0.610  0.2412  0.2069 -0.3777
 5196TIP3    H137003   1.187   4.414   0.596 -0.0104 -1.6125 -1.7513
 5196TIP3    H237004   1.084   4.457   0.698  2.3306 -2.2861  1.0465
 5197TIP3   OH237005   5.139   0.983  12.055  0.1777  0.0693 -0.3097
 5197TIP3    H137006   5.044   0.992  12.052  0.0105 -1.0546  0.6683
 5197TIP3    H237007   5.156   0.936  12.137  1.2973 -2.8796 -2.0752
 5198TIP3   OH237008   2.704   1.324  11.777  0.8313 -0.0062 -0.4277
 5198TIP3    H137009   2.636   1.376  11.818 -0.2518  0.0274 -2.1573
 5198TIP3    H237010   2.784   1.347  11.825  0.0734  1.8571  0.0490
 5199TIP3   OH237011   0.723   0.179   4.477 -0.4912  0.3848 -0.3473
 5199TIP3    H137012   0.707   0.182   4.382  3.5157  0.7577 -1.1905
 5199TIP3    H237013   0.784   0.250   4.493 -0.0112 -0.5254  2.2964
 5200TIP3   OH237014   2.914   4.300   2.472  0.1403  0.9270 -0.0920
 5200TIP3    H137015   2.890   4.393   2.469  0.7654  1.1228  0.6235
 5200TIP3    H237016   2.886   4.271   2.559  0.7200  0.6707  0.0170
 5201TIP3   OH237017   2.764   0.606  10.937 -0.1631 -0.0667 -0.2314
 5201TIP3    H137018   2.740   0.547  10.866  0.1765 -0.8338  0.2860
 5201TIP3    H237019   2.695   0.594  11.003 -0.4104  0.5539 -0.3588
 5202TIP3   OH237020   3.990   6.081   5.694 -0.8922  0.2359  0.6918
 5202TIP3    H137021   4.076   6.040   5.695 -0.2133  1.4953  3.4171
 5202TIP3    H237022   3.930   6.011   5.667  0.9165 -0.6652 -1.2316
 5203TIP3   OH237023   0.098   3.949   3.970 -0.1421  0.1863  0.1846
 5203TIP3    H137024   0.105   3.929   3.877  1.1397  0.4438  0.2161
 5203TIP3    H237025   0.080   3.865   4.011 -0.9233  0.1011 -0.3042
 5204TIP3   OH237026   1.779   5.742   3.147  0.2607  0.3012  0.3914
 5204TIP3    H137027   1.711   5.675   3.153  0.8511 -0.2459  1.1519
 5204TIP3    H237028   1.848   5.703   3.094  0.0462  0.8029 -0.2652
 5205TIP3   OH237029   0.740   4.513   6.132 -0.4075 -0.7763 -0.0751
 5205TIP3    H137030   0.738   4.422   6.161  1.2987 -0.9842 -0.5405
 5205TIP3    H237031   0.676   4.557   6.189  1.3248 -1.5518  2.6923
 5206TIP3   OH237032   2.889   2.459  15.357 -0.0592  0.0629 -0.0663
 5206TIP3    H137033   2.921   2.396  15.421  0.5687  0.3942 -0.0530
 5206TIP3    H237034   2.931   2.541  15.380 -1.0763  0.5596  0.0722
 5207TIP3   OH237035   2.391   1.406  15.031  1.0434 -0.2745  0.9550
 5207TIP3    H137036   2.433   1.489  15.052 -1.3560  1.9050 -1.8876
 5207TIP3    H237037   2.301   1.416  15.062  0.7643 -1.9489  0.7731
 5208TIP3   OH237038   1.809   6.437  12.836 -0.3612 -0.4840 -0.4038
 5208TIP3    H137039   1.887   6.489  12.856  0.3687 -1.3637 -0.9236
 5208TIP3    H237040   1.738   6.501  12.833  0.1425  0.2110  1.1023
 5209TIP3   OH237041   0.661   5.069   0.947 -0.2025  0.0711  0.0052
 5209TIP3    H137042   0.716   5.005   0.993  0.6097 -0.7953 -2.0477
 5209TIP3    H237043   0.665   5.148   1.002  1.2640 -0.6823  1.0559
 5210TIP3   OH237044   3.028   2.822   0.606 -0.3272 -0.7851  0.2706
 5210TIP3    H137045   3.013   2.916   0.617 -1.1691 -1.0946  2.3113
 5210TIP3    H237046   3.103   2.803   0.662 -0.6188 -1.4342  0.4478
 5211TIP3   OH237047   1.139   6.640   6.392 -0.0936  0.6598  0.2755
 5211TIP3    H137048   1.103   6.559   6.426 -0.2010  0.5264 -0.1506
 5211TIP3    H237049   1.185   6.679   6.466 -0.1769  0.2909  0.5221
 5212TIP3   OH237050   5.857   4.668  11.997  0.3635 -0.5860  0.0631
 5212TIP3    H137051   5.920   4.662  11.925  0.2673  0.7341 -0.1659
 5212TIP3    H237052   5.907   4.707  12.069 -0.1711  0.4813 -0.1242
 5213TIP3   OH237053   2.299   0.912  13.077  0.0996  0.3581 -0.0681
 5213TIP3    H137054   2.284   0.937  12.986  1.8944 -1.4043 -0.9242
 5213TIP3    H237055   2.341   0.988  13.117  0.4971  0.6758 -1.0762
 5214TIP3   OH237056   6.096   2.598  13.177 -0.5938  0.3586 -0.1337
 5214TIP3    H137057   6.190   2.616  13.174 -0.3868 -0.7068 -1.3001
 5214TIP3    H237058   6.062   2.637  13.096 -0.9257 -0.3238 -0.3301
 5215TIP3   OH237059   6.140   3.120   0.705 -0.3119  0.4163  0.3411
 5215TIP3    H137060   6.215   3.060   0.706 -2.2110 -2.1146  0.7376
 5215TIP3    H237061   6.105   3.113   0.616 -0.9966  0.3619  0.6118
 5216TIP3   OH237062   6.780   1.558  10.655  0.4767 -0.0070  0.0864
 5216TIP3    H137063   6.826   1.494  10.601 -0.1775 -1.1451  0.8497
 5216TIP3    H237064   6.743   1.507  10.727 -1.6654  0.9023 -0.2839
 5217TIP3   OH237065   2.348   2.311  16.775 -0.0542 -0.3022  0.1244
 5217TIP3    H137066   2.365   2.330  16.867 -1.7216 -0.6715  0.5407
 5217TIP3    H237067   2.271   2.364  16.753  0.2303 -0.3212 -1.0330
 5218TIP3   OH237068   4.706   1.308  16.575  0.7735 -0.5714  0.3471
 5218TIP3    H137069   4.630   1.286  16.629  0.1019 -0.8498 -0.6800
 5218TIP3    H237070   4.778   1.256  16.612  0.4695 -0.3250  1.3064
 5219TIP3   OH237071   2.619   0.341  14.589  0.0055  0.2619  0.0024
 5219TIP3    H137072   2.548   0.400  14.562 -0.0009 -0.2101 -1.0861
 5219TIP3    H237073   2.577   0.255  14.597  0.2768  0.1508  0.2392
 5220TIP3   OH237074   4.834   4.277  11.145 -0.4751 -0.0410 -0.6444
 5220TIP3    H137075   4.822   4.230  11.063 -2.0017 -1.3998  0.2926
 5220TIP3    H237076   4.777   4.232  11.208  0.8127  0.7899  1.2369
 5221TIP3   OH237077   4.317   2.155   2.411 -0.4679 -0.2483 -0.2069
 5221TIP3    H137078   4.242   2.131   2.465  0.9609 -1.9915  1.1545
 5221TIP3    H237079   4.293   2.130   2.322 -1.0865 -1.8652  0.3799
 5222TIP3   OH237080   6.216   1.554  13.140  0.4664  0.2594  0.6502
 5222TIP3    H137081   6.139   1.610  13.126 -0.4022 -1.1219 -0.3738
 5222TIP3    H237082   6.284   1.614  13.170 -0.2781  1.9397 -0.8499
 5223TIP3   OH237083   4.666   3.738  13.019  0.0661 -0.1449 -0.2847
 5223TIP3    H137084   4.746   3.686  13.020 -0.9374 -1.7570  0.4638
 5223TIP3    H237085   4.654   3.766  13.110 -0.5917 -0.5088 -0.2566
 5224TIP3   OH237086   6.400   2.009   3.100 -0.2914  0.6717  0.4710
 5224TIP3    H137087   6.329   2.020   3.164  0.9891 -3.9550  3.1506
 5224TIP3    H237088   6.379   1.927   3.055  1.7350  0.9110 -1.0598
 5225TIP3   OH237089   6.301   1.616  15.343 -0.6089 -0.2830 -0.3686
 5225TIP3    H137090   6.349   1.693  15.375 -0.9484  0.6510 -1.9807
 5225TIP3    H237091   6.359   1.542  15.362 -1.0609  0.0552  2.9084
 5226TIP3   OH237092   0.133   0.384  15.021  0.3432  0.2062  0.4566
 5226TIP3    H137093   0.181   0.435  14.955  0.5846  1.0103  1.2316
 5226TIP3    H237094   0.186   0.306  15.035  1.1718  0.8453  0.9294
 5227TIP3   OH237095   0.582   2.574   1.909  0.6920 -0.3082 -0.7204
 5227TIP3    H137096   0.631   2.556   1.829  0.1658  1.4795 -1.4912
 5227TIP3    H237097   0.503   2.619   1.880 -0.8973 -2.0644  0.6010
 5228TIP3   OH237098   2.602   0.247   6.605 -0.2840 -0.4072 -0.0503
 5228TIP3    H137099   2.558   0.209   6.529 -0.1781 -1.6028  0.4535
 5228TIP3    H237100   2.645   0.172   6.647  3.0127  0.7816 -1.0043
 5229TIP3   OH237101   2.216   0.114   3.015  0.4944 -0.2419 -0.2107
 5229TIP3    H137102   2.130   0.117   3.056  0.7493 -2.3321  0.6554
 5229TIP3    H237103   2.202   0.068   2.932  0.5651  0.6669 -0.7317
 5230TIP3   OH237104   2.792   4.453  15.652 -0.3102 -0.3504 -0.1850
 5230TIP3    H137105   2.807   4.481  15.743  0.5564 -1.7479  0.1383
 5230TIP3    H237106   2.775   4.359  15.659 -0.1532 -0.4882 -1.4873
 5231TIP3   OH237107   0.505   5.509   3.584  0.1499 -0.1095  0.1560
 5231TIP3    H137108   0.472   5.598   3.590  0.6110  0.0015  1.6382
 5231TIP3    H237109   0.571   5.504   3.653  0.1611 -1.5840  0.0686
 5232TIP3   OH237110   1.170   2.608  11.106 -0.1628 -0.3125  0.3012
 5232TIP3    H137111   1.078   2.633  11.115 -0.2144 -0.2037 -0.4504
 5232TIP3    H237112   1.172   2.547  11.032  0.6642  1.5344 -1.3251
 5233TIP3   OH237113   5.074   0.781  11.502  0.8139 -0.4285 -0.0497
 5233TIP3    H137114   5.088   0.689  11.525  0.7996 -0.3635  0.2189
 5233TIP3    H237115   5.016   0.814  11.570  2.6698  0.4037  1.2023
 5234TIP3   OH237116   1.618   2.306   3.104 -0.9488 -0.1063  0.3454
 5234TIP3    H137117   1.634   2.400   3.118 -0.2704 -0.3541  1.3621
 5234TIP3    H237118   1.677   2.283   3.032 -2.1249  0.5186 -0.8596
 5235TIP3   OH237119   5.053   3.735   2.207 -0.3717 -0.5300  0.0810
 5235TIP3    H137120   5.130   3.680   2.195  0.1810 -0.1805  1.8261
 5235TIP3    H237121   5.077   3.819   2.170  0.8723  0.1873  2.3642
 5236TIP3   OH237122   2.125   1.175  13.674  0.0211  0.0710  0.0794
 5236TIP3    H137123   2.107   1.088  13.638 -0.4818 -0.4877  1.5619
 5236TIP3    H237124   2.209   1.200  13.637 -0.6482 -0.2501 -1.7675
 5237TIP3   OH237125   5.388   5.929  16.968 -0.0929 -0.3240  0.4965
 5237TIP3    H137126   5.430   5.854  17.010 -0.2562 -0.9540 -0.4298
 5237TIP3    H237127   5.299   5.928  17.002 -1.0952 -2.5277 -1.8485
 5238TIP3   OH237128   3.459   5.681   2.476  0.3490 -0.3556  0.2371
 5238TIP3    H137129   3.537   5.676   2.533  0.4831 -1.4210 -0.0046
 5238TIP3    H237130   3.430   5.772   2.483  2.5570  0.5153 -0.9259
 5239TIP3   OH237131   2.400   4.571  13.965  0.5186 -0.0514 -0.1262
 5239TIP3    H137132   2.410   4.476  13.969  1.0178  0.0522  2.2672
 5239TIP3    H237133   2.405   4.600  14.056 -0.5536  2.1942 -0.7060
 5240TIP3   OH237134   4.716   5.215   4.364  0.3713 -0.3204  0.4997
 5240TIP3    H137135   4.647   5.250   4.419  1.2596  2.0138  0.2525
 5240TIP3    H237136   4.791   5.204   4.423  0.5088 -0.4974  0.2967
 5241TIP3   OH237137   3.301   6.101  14.970 -0.2396 -0.3308  0.1424
 5241TIP3    H137138   3.231   6.125  14.910 -0.2816  0.2372  0.4104
 5241TIP3    H237139   3.372   6.072  14.913  0.2924  1.6680 -0.3122
 5242TIP3   OH237140   1.702   0.494  10.683  0.4502  0.1767  0.0186
 5242TIP3    H137141   1.789   0.489  10.644  0.2113 -1.5330 -0.3578
 5242TIP3    H237142   1.676   0.585  10.673  1.2493  0.2304 -1.9540
 5243TIP3   OH237143   4.243   6.355  14.499  0.0224  0.0718 -0.5060
 5243TIP3    H137144   4.190   6.403  14.562  2.6603  2.2955  0.2356
 5243TIP3    H237145   4.191   6.354  14.419 -2.4116 -0.7304  0.9882
 5244TIP3   OH237146   4.834   5.827   1.995 -0.0745 -0.4018 -0.4097
 5244TIP3    H137147   4.907   5.880   1.961 -0.4094 -1.2899 -2.6766
 5244TIP3    H237148   4.876   5.751   2.035  0.3598  0.9776  1.9280
 5245TIP3   OH237149   6.609   6.232  15.626 -0.5364 -0.7527 -0.1289
 5245TIP3    H137150   6.695   6.273  15.638 -1.1960  0.3312  1.0877
 5245TIP3    H237151   6.628   6.152  15.577  1.2196 -0.7214  0.4110
 5246TIP3   OH237152   3.119   4.252  16.307 -0.3352 -0.0857 -0.3132
 5246TIP3    H137153   3.118   4.327  16.248 -0.7956 -0.1352 -0.3693
 5246TIP3    H237154   3.033   4.212  16.296 -0.0826 -0.6379 -0.3068
 5247TIP3   OH237155   4.189   4.227   5.027 -0.0773  0.6046  0.0652
 5247TIP3    H137156   4.260   4.162   5.033  0.0510  0.9134  2.7219
 5247TIP3    H237157   4.233   4.308   5.000  0.2757  0.3503 -0.1330
 5248TIP3   OH237158   3.078   4.572  11.085 -0.7927 -0.1730 -0.0234
 5248TIP3    H137159   3.138   4.628  11.135  0.4673 -0.7147 -0.8836
 5248TIP3    H237160   3.018   4.537  11.151  1.4560 -1.6943  1.3608
 5249TIP3   OH237161   3.591   3.592   5.355  0.0936 -0.2418  0.1823
 5249TIP3    H137162   3.606   3.509   5.401  0.6416 -1.3023 -1.7752
 5249TIP3    H237163   3.636   3.658   5.408 -0.1300 -1.2097  1.6492
 5250TIP3   OH237164   0.620   6.540  14.224 -0.2728 -0.0920 -0.5576
 5250TIP3    H137165   0.655   6.629  14.218  0.5065 -0.3102  0.4743
 5250TIP3    H237166   0.662   6.493  14.152  0.2901  0.0609 -0.3353
 5251TIP3   OH237167   3.641   4.114  15.461 -0.0132 -0.5757  0.2344
 5251TIP3    H137168   3.733   4.112  15.433  0.3047  0.6023  1.0872
 5251TIP3    H237169   3.636   4.190  15.520 -1.7325 -0.0551 -0.5130
 5252TIP3   OH237170   5.486   4.029   4.861 -0.3639 -0.2382  0.0126
 5252TIP3    H137171   5.538   4.099   4.901 -1.0016  0.5786 -0.5507
 5252TIP3    H237172   5.396   4.048   4.887 -0.5410 -0.9006 -0.0857
 5253TIP3   OH237173   2.494   1.571  15.717 -0.8211 -0.3254  0.1605
 5253TIP3    H137174   2.504   1.663  15.744  0.9451 -0.5006  0.2285
 5253TIP3    H237175   2.493   1.574  15.622 -2.0865 -0.1346  0.1704
 5254TIP3   OH237176   4.585   1.556   2.678 -0.5189  0.2412  0.1535
 5254TIP3    H137177   4.668   1.576   2.635 -0.0427  0.1697  1.0154
 5254TIP3    H237178   4.583   1.461   2.684 -0.6295  0.2462  0.1990
 5255TIP3   OH237179   5.895   1.541  14.363 -0.1592  0.7824  0.3527
 5255TIP3    H137180   5.944   1.591  14.427  2.6650 -0.3795 -0.7577
 5255TIP3    H237181   5.924   1.450  14.376 -0.9418  0.2561 -1.3082
 5256TIP3   OH237182   2.222   3.626  15.999  0.5068  0.2573 -0.1481
 5256TIP3    H137183   2.235   3.546  16.051 -0.0146  0.7138  0.7210
 5256TIP3    H237184   2.304   3.637  15.951  0.7225 -0.5989  0.0027
 5257TIP3   OH237185   0.377   0.706  14.428  0.2741  0.2351  0.4856
 5257TIP3    H137186   0.458   0.736  14.385 -0.1158 -0.1810 -0.5798
 5257TIP3    H237187   0.384   0.610  14.428 -0.9228  0.1120 -1.0908
 5258TIP3   OH237188   3.167   1.814  11.175 -0.1675  0.0390 -0.5463
 5258TIP3    H137189   3.243   1.805  11.118 -0.2095 -2.0576 -0.3525
 5258TIP3    H237190   3.198   1.863  11.251  0.6118  0.4000 -1.0941
 5259TIP3   OH237191   6.117   2.278   5.119  0.6498  0.5395 -0.3319
 5259TIP3    H137192   6.052   2.210   5.101  0.0589  1.0919 -0.3144
 5259TIP3    H237193   6.069   2.360   5.109  1.7923  1.0354 -2.1510
 5260TIP3   OH237194   2.542   2.869   5.340  0.3348  0.1675  0.6720
 5260TIP3    H137195   2.556   2.885   5.246  0.1654  0.3533  0.6777
 5260TIP3    H237196   2.535   2.774   5.347 -1.8505  0.2448  0.1781
 5261TIP3   OH237197   2.966   4.820   1.977 -0.1992 -0.0666 -0.3286
 5261TIP3    H137198   2.922   4.888   1.925  0.2271  0.7769  0.3883
 5261TIP3    H237199   3.046   4.862   2.008  0.4610 -1.1614 -0.5162
 5262TIP3   OH237200   1.611   6.574  13.413  0.0903 -0.4237 -0.1776
 5262TIP3    H137201   1.557   6.627  13.472 -0.6844  0.5087 -1.6764
 5262TIP3    H237202   1.555   6.556  13.338  1.7114  0.2898 -1.6414
 5263TIP3   OH237203   2.243   5.199   4.239 -0.3011  0.5265 -0.2419
 5263TIP3    H137204   2.300   5.123   4.251  1.7346  1.9830 -0.0730
 5263TIP3    H237205   2.158   5.171   4.271  0.2604 -1.8258 -0.6617
 5264TIP3   OH237206   6.031   3.911  12.109 -0.4331 -0.2206 -0.3573
 5264TIP3    H137207   6.106   3.886  12.163 -1.4103 -0.0260  1.1403
 5264TIP3    H237208   5.981   3.971  12.163 -2.0451 -0.8903 -1.0399
 5265TIP3   OH237209   0.355   5.998  12.968  0.7154  0.1561 -0.3321
 5265TIP3    H137210   0.324   5.999  12.878  0.1658  0.1045 -0.1497
 5265TIP3    H237211   0.344   5.907  12.996  1.4492  0.0415 -0.4020
 5266TIP3   OH237212   6.237   0.597   4.406 -0.5106 -0.8461 -0.2971
 5266TIP3    H137213   6.285   0.559   4.480  0.0324 -1.0430 -0.7396
 5266TIP3    H237214   6.197   0.676   4.441 -0.4977 -1.0937  0.2810
 5267TIP3   OH237215   0.381   3.116  15.071 -0.3949  0.1401 -0.8432
 5267TIP3    H137216   0.462   3.137  15.118 -1.7496  4.3679 -0.0131
 5267TIP3    H237217   0.394   3.154  14.984 -1.7009  1.5473 -0.4590
 5268TIP3   OH237218   0.814   0.836  14.085 -0.1314  0.0450  0.0489
 5268TIP3    H137219   0.832   0.839  13.992 -1.6117  1.4484 -0.2417
 5268TIP3    H237220   0.897   0.811  14.126  0.2555 -1.7550 -1.6841
 5269TIP3   OH237221   3.557   6.640  13.519 -0.5480 -0.1094 -0.0153
 5269TIP3    H137222   3.490   6.708  13.509 -1.3364 -1.2272 -3.4036
 5269TIP3    H237223   3.628   6.668  13.462 -0.6643 -1.7878 -1.0469
 5270TIP3   OH237224   3.301   5.218  15.331  0.2797 -0.0542 -0.8626
 5270TIP3    H137225   3.277   5.260  15.413  2.2811  1.2582 -0.8598
 5270TIP3    H237226   3.268   5.128  15.339  0.3874  0.0455  1.3619
 5271TIP3   OH237227   2.460   4.656   4.855 -0.0339 -0.4792 -0.4501
 5271TIP3    H137228   2.461   4.741   4.898  0.6008 -0.0503 -1.2975
 5271TIP3    H237229   2.515   4.600   4.910  0.8870  0.0997 -0.7848
 5272TIP3   OH237230   5.688   5.578   0.840 -0.0594 -0.3879 -0.6560
 5272TIP3    H137231   5.754   5.538   0.897  1.0825  0.2845 -1.4590
 5272TIP3    H237232   5.690   5.526   0.760 -0.8403 -0.6374 -0.5182
 5273TIP3   OH237233   4.468   0.332  14.977  0.4393 -0.5197 -0.3417
 5273TIP3    H137234   4.399   0.349  15.042 -0.0181 -0.5335 -0.8194
 5273TIP3    H237235   4.523   0.410  14.981  1.0524 -0.9781  0.8377
 5274TIP3   OH237236   1.748   3.017  15.832 -0.0837  0.6595  0.0832
 5274TIP3    H137237   1.678   2.959  15.862 -0.4642  1.0739  0.0089
 5274TIP3    H237238   1.826   2.988  15.880 -0.5029  0.7698  0.8517
 5275TIP3   OH237239   4.991   3.951  15.380 -0.5462 -0.1219  0.0147
 5275TIP3    H137240   4.985   4.018  15.448  1.5849  1.1512 -0.9640
 5275TIP3    H237241   4.975   3.999  15.298  2.1759 -0.4760 -0.8067
 5276TIP3   OH237242   0.701   3.544  16.391 -0.2576 -0.5236 -0.4846
 5276TIP3    H137243   0.645   3.475  16.427 -0.1932 -0.0929  0.4563
 5276TIP3    H237244   0.743   3.584  16.468 -0.5997  0.8375 -0.9881
 5277TIP3   OH237245   2.896   1.033  12.000  0.0329 -0.1925  0.0365
 5277TIP3    H137246   2.809   1.069  12.020  0.4126  0.4572  0.5392
 5277TIP3    H237247   2.884   0.938  12.006 -0.6457 -0.1104  0.0929
 5278TIP3   OH237248   3.902   4.133  11.784 -0.3203  0.1017  0.7356
 5278TIP3    H137249   3.808   4.144  11.767 -0.5509 -0.8534  1.3206
 5278TIP3    H237250   3.945   4.176  11.710 -1.2573 -1.3998 -0.7667
 5279TIP3   OH237251   0.295   4.091   1.957  0.2017  0.2279  0.3211
 5279TIP3    H137252   0.253   4.015   1.918  0.8438  0.4615 -0.8790
 5279TIP3    H237253   0.271   4.088   2.049 -1.6378 -0.1754 -0.1384
 5280TIP3   OH237254   2.111   0.138  14.480 -0.0787  0.0255  0.2559
 5280TIP3    H137255   2.137   0.046  14.470  1.5210  0.6103 -1.6535
 5280TIP3    H237256   2.039   0.150  14.417 -0.6036 -0.0016  0.8360
 5281TIP3   OH237257   1.056   4.951  11.688  0.4515  0.2087  0.0704
 5281TIP3    H137258   1.132   4.966  11.744 -0.2793 -3.1344  2.2605
 5281TIP3    H237259   1.091   4.910  11.609  1.1005  0.7368  0.0825
 5282TIP3   OH237260   1.388   5.110   5.449 -0.2872 -0.5343 -0.3137
 5282TIP3    H137261   1.443   5.110   5.370  0.3364 -5.8801 -0.2434
 5282TIP3    H237262   1.313   5.054   5.426 -1.6170  0.1259  2.0559
 5283TIP3   OH237263   2.160   3.931   1.744  0.2189 -0.2635 -0.3162
 5283TIP3    H137264   2.179   4.013   1.698  1.8386 -0.2734  0.2798
 5283TIP3    H237265   2.084   3.952   1.799 -0.8459  0.1468 -1.8540
 5284TIP3   OH237266   3.696   3.186  16.189  0.7612  0.6963  0.1428
 5284TIP3    H137267   3.625   3.146  16.240  2.4345 -2.7595  0.0327
 5284TIP3    H237268   3.684   3.150  16.101  2.0937  0.8034 -0.0956
 5285TIP3   OH237269   3.997   2.688   0.782  0.5433  0.3492 -0.8241
 5285TIP3    H137270   4.005   2.732   0.867  0.1099 -0.2492 -0.4694
 5285TIP3    H237271   4.086   2.691   0.746  0.5747  1.2932 -0.7014
 5286TIP3   OH237272   5.014   4.957  16.212 -0.0873  0.2918  0.0650
 5286TIP3    H137273   4.935   5.011  16.204 -0.3528 -0.0590  0.3170
 5286TIP3    H237274   5.083   5.019  16.238 -0.5790  0.3769  1.2390
 5287TIP3   OH237275   0.208   0.721   1.678 -0.3619 -0.5025 -0.8623
 5287TIP3    H137276   0.271   0.659   1.641 -2.0444 -2.7255 -0.2702
 5287TIP3    H237277   0.125   0.697   1.636 -1.6000 -0.6157  1.5129
 5288TIP3   OH237278   5.996   3.378  17.152 -0.0055 -0.8322 -0.5215
 5288TIP3    H137279   5.917   3.366  17.205  0.7767  0.1196  0.9592
 5288TIP3    H237280   6.012   3.292  17.113 -1.4000 -1.2054 -0.3289
 5289TIP3   OH237281   5.098   2.390   4.661  0.6455  0.7849  0.0793
 5289TIP3    H137282   5.075   2.394   4.569 -0.1456 -1.6043  0.1101
 5289TIP3    H237283   5.039   2.452   4.704 -1.1113 -0.2869 -0.6886
 5290TIP3   OH237284   1.601   3.547  13.286  0.8642  0.4046  0.4046
 5290TIP3    H137285   1.542   3.516  13.354  0.1506 -0.9888 -0.7952
 5290TIP3    H237286   1.652   3.470  13.261  0.1118  0.4815 -1.5916
 5291TIP3   OH237287   4.960   3.390  11.345 -0.1976  0.1969  0.1027
 5291TIP3    H137288   4.905   3.445  11.289 -1.8085 -0.0528  1.3589
 5291TIP3    H237289   4.930   3.301  11.327  0.0122  0.0329  0.5648
 5292TIP3   OH237290   6.570   3.074   1.351  0.0331 -0.1188 -0.3016
 5292TIP3    H137291   6.586   3.059   1.258  2.6544  0.8367 -0.0926
 5292TIP3    H237292   6.513   3.150   1.353  1.3104  0.9140 -1.1706
 5293TIP3   OH237293   5.825   1.517  11.011  0.5726 -0.4400  0.2492
 5293TIP3    H137294   5.887   1.515  10.939  0.9472 -0.6145  0.5743
 5293TIP3    H237295   5.743   1.545  10.971  0.9960  0.3696 -0.0791
 5294TIP3   OH237296   6.664   4.474  13.826  0.2915  0.1521  0.7613
 5294TIP3    H137297   6.589   4.443  13.776 -0.3151  1.0812  1.0495
 5294TIP3    H237298   6.659   4.427  13.909  1.1070 -1.1429  0.1007
 5295TIP3   OH237299   3.048   6.401  15.399 -0.4293 -0.0238 -0.1656
 5295TIP3    H137300   3.085   6.315  15.416 -0.5592  0.3240  2.3457
 5295TIP3    H237301   3.103   6.439  15.330 -0.4797 -2.1222 -1.4360
 5296TIP3   OH237302   3.911   1.876  15.543  0.5956  0.1564  0.3247
 5296TIP3    H137303   3.970   1.877  15.618 -0.1801 -0.0792  0.9550
 5296TIP3    H237304   3.965   1.904  15.469  0.9077  2.3743  1.3193
 5297TIP3   OH237305   2.715   3.320  12.518  0.1266  0.3213 -0.1830
 5297TIP3    H137306   2.718   3.290  12.609 -1.0094  2.9410  0.7901
 5297TIP3    H237307   2.675   3.247  12.470 -1.4908 -0.1869  1.8373
 5298TIP3   OH237308   0.153   4.760  14.323  0.7086  0.5113  0.2456
 5298TIP3    H137309   0.146   4.853  14.345 -1.6101  0.1013  1.6053
 5298TIP3    H237310   0.074   4.741  14.273  0.6815 -0.8958  0.7700
 5299TIP3   OH237311   3.097   3.229   2.937 -0.5964  0.0500  0.4001
 5299TIP3    H137312   3.097   3.318   2.902 -0.0626  0.1583  0.6690
 5299TIP3    H237313   3.008   3.198   2.922 -0.8319  0.6849  0.4506
 5300TIP3   OH237314   1.685   1.393   6.223  0.3108 -0.1524 -0.0848
 5300TIP3    H137315   1.761   1.339   6.246  1.4231  1.3034 -0.2046
 5300TIP3    H237316   1.721   1.460   6.165 -1.2901 -0.0752 -1.0168
 5301TIP3   OH237317   1.664   0.914   4.827  0.0008 -0.1318 -0.1652
 5301TIP3    H137318   1.697   0.960   4.904 -0.3104  1.8368 -1.1438
 5301TIP3    H237319   1.740   0.907   4.769  0.0917 -1.0773  0.0436
 5302TIP3   OH237320   0.256   4.963  13.368 -0.0997 -0.5466  0.4216
 5302TIP3    H137321   0.163   4.981  13.372  0.0588  0.2928  0.4063
 5302TIP3    H237322   0.263   4.870  13.392 -0.9198 -0.5890  0.5267
 5303TIP3   OH237323   5.309   1.784  11.630  0.3308 -0.3658  0.1762
 5303TIP3    H137324   5.393   1.818  11.663 -0.7039  0.8706  1.6375
 5303TIP3    H237325   5.245   1.811  11.694 -1.1051 -2.1091 -0.4359
 5304TIP3   OH237326   2.215   3.211  16.433 -0.1120 -0.6866  0.0534
 5304TIP3    H137327   2.122   3.207  16.454 -0.1934 -1.4469 -0.4244
 5304TIP3    H237328   2.237   3.123  16.403  1.0687 -0.9049  1.4154
 5305TIP3   OH237329   3.360   0.773  11.884  0.3961 -0.2920 -0.4382
 5305TIP3    H137330   3.267   0.795  11.891  0.4195  0.2361 -1.6305
 5305TIP3    H237331   3.373   0.703  11.948 -0.9687 -0.8463 -0.7402
 5306TIP3   OH237332   5.394   0.907  13.734  0.5738 -0.0597  0.1306
 5306TIP3    H137333   5.342   0.963  13.792 -1.3284  0.3474 -1.8134
 5306TIP3    H237334   5.332   0.840  13.703  1.2041  0.2942 -2.0989
 5307TIP3   OH237335   3.603   2.040  16.208 -0.1838 -0.3576 -0.2361
 5307TIP3    H137336   3.676   1.977  16.204 -0.7410 -0.9587 -1.4840
 5307TIP3    H237337   3.548   2.007  16.280 -0.0142 -0.7800 -0.2923
 5308TIP3   OH237338   0.423   0.408  11.422 -0.5684 -0.1556 -0.5293
 5308TIP3    H137339   0.377   0.388  11.341 -0.4566  1.5740 -1.0610
 5308TIP3    H237340   0.355   0.406  11.489 -1.2091  0.9941 -1.0970
 5309TIP3   OH237341   3.783   0.424  15.808 -0.2048  0.2559  0.2856
 5309TIP3    H137342   3.840   0.354  15.840 -0.8515  0.0897  1.1086
 5309TIP3    H237343   3.719   0.379  15.752  0.4095  0.4349 -0.5928
 5310TIP3   OH237344   3.033   2.032   4.810 -0.0911  0.1013  0.1690
 5310TIP3    H137345   2.956   2.001   4.859 -1.3863  2.4730 -0.2010
 5310TIP3    H237346   3.007   2.023   4.718 -0.4183  1.9054  0.0504
 5311TIP3   OH237347   5.080   4.275  12.030 -0.4756  0.2589 -0.1091
 5311TIP3    H137348   5.096   4.266  12.124  1.9976 -2.7239 -0.6605
 5311TIP3    H237349   5.058   4.367  12.019  0.7052  1.1003  3.1951
 5312TIP3   OH237350   6.376   4.860   2.600  0.1891 -0.1124  0.5626
 5312TIP3    H137351   6.345   4.950   2.606  0.1411 -0.1773  1.3910
 5312TIP3    H237352   6.434   4.849   2.675  1.2653 -0.3752 -0.2796
 5313TIP3   OH237353   1.978   0.381   2.350 -0.7984 -0.4093  0.0358
 5313TIP3    H137354   1.937   0.464   2.326  1.6841  1.2029  1.0089
 5313TIP3    H237355   2.042   0.365   2.281 -0.5467 -0.9804  0.3961
 5314TIP3   OH237356   3.975   6.486   1.019 -0.0960  0.4123  0.1846
 5314TIP3    H137357   4.046   6.443   1.066 -0.5656  0.9318  1.4271
 5314TIP3    H237358   3.961   6.568   1.067 -2.6283 -0.4160  1.0051
 5315TIP3   OH237359   5.184   0.661  15.851  0.2651  0.2950 -0.3919
 5315TIP3    H137360   5.198   0.566  15.848  0.8497  0.3859 -0.6655
 5315TIP3    H237361   5.104   0.674  15.801 -1.3111 -0.3124  1.8242
 5316TIP3   OH237362   0.003   1.112  16.600  0.1771  0.2396  1.0124
 5316TIP3    H137363  -0.035   1.148  16.520 -2.5558 -0.1988  1.9931
 5316TIP3    H237364   0.024   1.188  16.654  2.4492  0.5594 -0.1922
 5317TIP3   OH237365   0.897   5.054   1.147 -0.4278 -0.0262 -0.4779
 5317TIP3    H137366   0.906   5.140   1.105  1.0941  0.3884  0.6079
 5317TIP3    H237367   0.959   4.998   1.101  2.5545  0.8531  2.0643
 5318TIP3   OH237368   6.499   0.399   6.000 -0.5265  0.5187 -0.1058
 5318TIP3    H137369   6.486   0.311   6.033  0.7311  1.0613  1.9848
 5318TIP3    H237370   6.555   0.388   5.923  0.0430 -0.4818  0.4399
 5319TIP3   OH237371   2.838   3.815   1.818  0.3385  0.2198 -0.1914
 5319TIP3    H137372   2.867   3.740   1.765 -0.7341 -1.0174  0.9124
 5319TIP3    H237373   2.849   3.786   1.908 -2.3877  0.4157  0.2755
 5320TIP3   OH237374   5.883   4.513  14.440  0.0255  0.0283 -0.1137
 5320TIP3    H137375   5.942   4.440  14.454 -1.2938 -0.8572  1.1010
 5320TIP3    H237376   5.805   4.474  14.400 -0.8053  0.6939  0.7983
 5321TIP3   OH237377   1.768   3.907  12.106 -0.1960 -0.0677 -0.3079
 5321TIP3    H137378   1.717   3.905  12.188  0.3149  2.2368  0.1290
 5321TIP3    H237379   1.847   3.858  12.127 -0.9292 -1.2013 -0.0777
 5322TIP3   OH237380   4.866   5.038   5.177 -0.3119  0.6927  0.6981
 5322TIP3    H137381   4.887   5.124   5.213 -0.6264  0.8530  0.5037
 5322TIP3    H237382   4.817   4.994   5.247 -1.3317  1.1745  0.3222
 5323TIP3   OH237383   3.239   2.264  17.080  0.0377 -0.1188  0.2296
 5323TIP3    H137384   3.190   2.182  17.068 -1.1408  0.6284 -0.2452
 5323TIP3    H237385   3.216   2.293  17.168  0.1163 -0.0798  0.2374
 5324TIP3   OH237386   0.646   1.646  16.844  0.3757 -0.0469  0.2737
 5324TIP3    H137387   0.722   1.597  16.877  1.6197  0.3288 -1.8365
 5324TIP3    H237388   0.662   1.736  16.873  0.2148 -0.1439  0.6697
 5325TIP3   OH237389   1.597   1.577   4.214  0.5725  0.0358  0.0467
 5325TIP3    H137390   1.670   1.604   4.159  0.3644  0.0984 -0.2047
 5325TIP3    H237391   1.630   1.581   4.304  1.0400 -0.4452 -0.0996
 5326TIP3   OH237392   4.752   1.595  16.181 -0.2228 -0.1057  0.4394
 5326TIP3    H137393   4.697   1.534  16.231  0.0510  0.5221  1.5313
 5326TIP3    H237394   4.711   1.598  16.094 -0.2281 -1.8511  0.3384
 5327TIP3   OH237395   3.372   4.527  13.958 -0.1823 -0.0965 -0.1533
 5327TIP3    H137396   3.389   4.470  13.884 -0.1675 -1.7223  1.0559
 5327TIP3    H237397   3.442   4.593  13.954 -0.6333  0.3100 -1.9812
 5328TIP3   OH237398   6.188   2.234   2.312 -0.0331  0.3049  0.1142
 5328TIP3    H137399   6.205   2.323   2.343 -1.7125  1.1986 -1.3153
 5328TIP3    H237400   6.095   2.234   2.291 -0.2734 -2.0779  0.8527
 5329TIP3   OH237401   5.599   2.695   5.131  0.9407  0.9942  0.7323
 5329TIP3    H137402   5.584   2.732   5.218  0.7596  0.5283  0.9004
 5329TIP3    H237403   5.551   2.613   5.131 -0.3969  1.7286 -0.3675
 5330TIP3   OH237404   4.608   5.830   5.318  0.0034 -0.2131  0.4790
 5330TIP3    H137405   4.655   5.749   5.297 -1.9383 -1.3620  0.3274
 5330TIP3    H237406   4.545   5.804   5.386  0.0054  1.4102  1.1419
 5331TIP3   OH237407   0.102   0.828   3.886 -0.1782 -0.2282  0.3051
 5331TIP3    H137408   0.050   0.751   3.863  0.5860 -0.5625 -0.3373
 5331TIP3    H237409   0.171   0.795   3.944  0.9727 -0.2900 -1.0552
 5332TIP3   OH237410   3.325   5.710   4.656 -0.4312 -0.1676  0.2971
 5332TIP3    H137411   3.319   5.802   4.683  2.3704  0.0820  0.3807
 5332TIP3    H237412   3.328   5.661   4.738 -0.3630 -0.1756  0.2901
 5333TIP3   OH237413   6.505   0.459  15.721  0.5484  0.4641 -0.6690
 5333TIP3    H137414   6.582   0.443  15.666  0.3343  0.4102 -0.9554
 5333TIP3    H237415   6.490   0.553  15.714 -0.4309  0.2388 -1.9921
 5334TIP3   OH237416   6.446   4.111  14.041  0.2330  0.3744  0.4187
 5334TIP3    H137417   6.536   4.080  14.032  0.5120  1.2262  0.2107
 5334TIP3    H237418   6.409   4.057  14.111  0.9685  0.1567  0.6439
 5335TIP3   OH237419   3.842   6.150  15.036 -0.0912  0.0621 -0.3997
 5335TIP3    H137420   3.908   6.170  14.969  0.6112 -0.7763  0.0327
 5335TIP3    H237421   3.826   6.234  15.079  0.7153  0.2732 -0.4935
 5336TIP3   OH237422   4.620   5.915   3.318  0.3955 -0.6844 -0.7500
 5336TIP3    H137423   4.691   5.938   3.379 -1.0655 -2.2159  1.7123
 5336TIP3    H237424   4.612   5.991   3.261  0.3285  2.0080  2.5094
 5337TIP3   OH237425   2.182   5.171  14.632  0.1063 -0.2488  0.1340
 5337TIP3    H137426   2.134   5.254  14.621  0.6645 -0.0253 -0.7036
 5337TIP3    H237427   2.181   5.131  14.545  0.3184 -0.8634  0.4105
 5338TIP3   OH237428   0.252   1.539   0.124 -0.4996 -0.1301 -0.0519
 5338TIP3    H137429   0.165   1.517   0.093 -0.2171 -1.0542 -0.2295
 5338TIP3    H237430   0.282   1.461   0.169 -0.3367  0.6975  1.3162
 5339TIP3   OH237431   1.219   1.182  16.028  0.2841 -0.2104  0.1454
 5339TIP3    H137432   1.262   1.250  15.976  1.0595 -0.7086  0.1261
 5339TIP3    H237433   1.165   1.135  15.965  0.1737  0.0403  0.0514
 5340TIP3   OH237434   5.171   0.094  15.229  0.3879 -0.4433 -0.0481
 5340TIP3    H137435   5.148   0.093  15.137 -1.2218 -0.0524  0.3286
 5340TIP3    H237436   5.232   0.167  15.238  1.2095 -0.9900 -0.9164
 5341TIP3   OH237437   1.348   0.762  15.961  0.1449 -0.5357 -0.0247
 5341TIP3    H137438   1.354   0.792  15.870 -0.8341 -1.1114 -0.2943
 5341TIP3    H237439   1.395   0.679  15.962 -0.3887 -0.8398 -0.1524
 5342TIP3   OH237440   2.983   2.521  14.752 -0.1426  0.1019 -0.0152
 5342TIP3    H137441   3.069   2.515  14.794 -1.4395  1.7080  3.2112
 5342TIP3    H237442   2.946   2.433  14.760  0.4137 -0.1075  0.3204
 5343TIP3   OH237443   5.671   5.342  15.540 -0.3666 -0.2041  0.6554
 5343TIP3    H137444   5.721   5.295  15.473 -0.5085  3.4544 -2.3780
 5343TIP3    H237445   5.580   5.312  15.528 -0.1643 -0.6346  0.1805
 5344TIP3   OH237446   0.819   3.172   0.207  0.6292 -0.4915 -0.3686
 5344TIP3    H137447   0.823   3.077   0.211 -3.8084 -0.8515  2.0974
 5344TIP3    H237448   0.754   3.191   0.139 -0.1882  0.5770  0.6624
 5345TIP3   OH237449   1.356   6.468  11.631  0.2420 -0.1998  0.4658
 5345TIP3    H137450   1.422   6.508  11.573 -0.4176 -1.2681 -1.1051
 5345TIP3    H237451   1.287   6.440  11.571 -1.1463 -0.0792  1.9669
 5346TIP3   OH237452   1.477   2.451  12.183 -0.5524  0.6867 -0.5032
 5346TIP3    H137453   1.452   2.382  12.122  3.1058  2.0932 -4.0547
 5346TIP3    H237454   1.545   2.411  12.237 -0.4506  0.7094 -0.6134
 5347TIP3   OH237455   4.138   3.340  12.462 -0.0356  0.4468 -0.0198
 5347TIP3    H137456   4.231   3.330  12.479 -0.0845 -0.7531 -0.3270
 5347TIP3    H237457   4.110   3.254  12.431 -1.5706  0.2555  1.6552
 5348TIP3   OH237458   5.347   2.017   5.709  0.3768  0.3442  0.4234
 5348TIP3    H137459   5.317   1.927   5.721  1.2689  0.1073  0.9783
 5348TIP3    H237460   5.439   2.016   5.738  0.8436  1.1055 -0.9181
 5349TIP3   OH237461   1.464   3.030   2.537 -0.4990 -0.1276  0.9156
 5349TIP3    H137462   1.441   2.944   2.574 -3.7625  0.0601 -0.2994
 5349TIP3    H237463   1.505   3.009   2.453  0.2696 -0.4968  1.3776
 5350TIP3   OH237464   2.110   0.516  13.877  0.0161 -0.2072  0.2681
 5350TIP3    H137465   2.158   0.514  13.795  3.2464  0.8104  1.9679
 5350TIP3    H237466   2.130   0.432  13.919  1.2928  0.6464  1.4524
 5351TIP3   OH237467   0.318   2.254   1.872  0.0943  0.1863 -0.4860
 5351TIP3    H137468   0.350   2.202   1.798 -0.9890 -0.3092 -0.6346
 5351TIP3    H237469   0.260   2.318   1.832 -1.1136 -0.5760 -0.0251
 5352TIP3   OH237470   6.481   6.745  13.851 -0.0596  0.5078  0.4276
 5352TIP3    H137471   6.493   6.788  13.936  0.8355  0.8161  0.1659
 5352TIP3    H237472   6.447   6.658  13.872 -1.1390  1.0523  1.0110
 5353TIP3   OH237473   0.259   2.742  10.891 -0.4309 -0.0298 -0.0334
 5353TIP3    H137474   0.178   2.725  10.843 -0.5427  1.6996 -0.5149
 5353TIP3    H237475   0.230   2.790  10.969  0.1416  0.9957 -0.4308
 5354TIP3   OH237476   4.185   0.770  14.789 -0.0288 -0.2358  0.2958
 5354TIP3    H137477   4.254   0.789  14.726 -0.1926 -0.1064  0.1581
 5354TIP3    H237478   4.173   0.675  14.783  1.3719 -0.5541  1.5810
 5355TIP3   OH237479   1.716   2.690  13.938  0.1239 -0.3595  0.1245
 5355TIP3    H137480   1.768   2.758  13.980  0.2001 -0.8298  0.7963
 5355TIP3    H237481   1.756   2.680  13.851  1.3219 -0.8838  0.7126
 5356TIP3   OH237482   3.709   2.822  17.121  0.4352 -0.3943  0.0585
 5356TIP3    H137483   3.774   2.843  17.054 -0.0147 -0.0614 -0.2847
 5356TIP3    H237484   3.654   2.755  17.079 -1.2824  1.4525 -0.8425
 5357TIP3   OH237485   1.582   5.044   5.974 -0.0501 -0.1859 -0.5871
 5357TIP3    H137486   1.626   4.974   6.023  0.7857  0.9107  0.2825
 5357TIP3    H237487   1.646   5.115   5.972 -0.8498  0.5261 -1.5340
 5358TIP3   OH237488   1.356   1.604  15.810  0.0780  0.4921 -0.1469
 5358TIP3    H137489   1.335   1.682  15.861 -0.2488  0.3476 -0.0542
 5358TIP3    H237490   1.307   1.534  15.853  0.9728  0.0854  0.2383
 5359TIP3   OH237491   0.131   0.935  12.747  0.1347 -0.3180  0.4929
 5359TIP3    H137492   0.039   0.921  12.723  0.3810 -0.6506 -0.3014
 5359TIP3    H237493   0.179   0.873  12.693  0.8392 -0.0514  0.8060
 5360TIP3   OH237494   2.439   2.479  12.205  0.7367  0.2830  0.1205
 5360TIP3    H137495   2.363   2.432  12.171  1.0184 -0.0343 -0.0730
 5360TIP3    H237496   2.507   2.465  12.140  0.9844  0.5117  0.3279
 5361TIP3   OH237497   1.771   1.126  12.520  0.2547  0.2692  0.0015
 5361TIP3    H137498   1.863   1.097  12.519 -0.3300 -1.7190 -0.0648
 5361TIP3    H237499   1.738   1.097  12.605 -0.3133  1.0752  0.0728
 5362TIP3   OH237500   0.266   4.168   3.366 -0.2463 -0.1933  0.1679
 5362TIP3    H137501   0.238   4.196   3.453 -1.0197 -0.3083 -0.0370
 5362TIP3    H237502   0.246   4.242   3.309 -2.6981 -1.2205 -0.4521
 5363TIP3   OH237503   1.720   0.131  14.103 -0.2856  0.6930 -0.2133
 5363TIP3    H137504   1.645   0.074  14.122 -0.1467  0.9594  1.3005
 5363TIP3    H237505   1.699   0.170  14.018 -1.7461  0.5544  0.0469
 5364TIP3   OH237506   0.973   4.517  12.852  0.2235  0.3033  0.2634
 5364TIP3    H137507   0.898   4.461  12.871 -0.6109  1.1684 -0.3461
 5364TIP3    H237508   0.995   4.557  12.936 -0.6980  0.8508  0.2598
 5365TIP3   OH237509   1.398   6.690  16.137 -0.3499  0.2959  0.2525
 5365TIP3    H137510   1.400   6.693  16.042 -0.1818  1.0993  0.2793
 5365TIP3    H237511   1.436   6.773  16.165  2.1832 -1.0456  1.0568
 5366TIP3   OH237512   6.221   3.904  12.300 -0.4677  0.3264 -0.0259
 5366TIP3    H137513   6.225   3.953  12.382 -0.1159 -0.9791  0.7711
 5366TIP3    H237514   6.309   3.909  12.264 -0.0193 -0.9485  0.8279
 5367TIP3   OH237515   6.537   3.630   3.175  0.1380  0.1314 -0.3736
 5367TIP3    H137516   6.462   3.572   3.161 -0.7095  1.5961 -2.2388
 5367TIP3    H237517   6.575   3.600   3.258 -1.8498 -1.3310  0.0736
 5368TIP3   OH237518   5.671   6.455  14.924 -0.2549  0.6303 -0.0858
 5368TIP3    H137519   5.682   6.452  14.829 -2.1240  0.7261 -0.3323
 5368TIP3    H237520   5.689   6.546  14.947 -0.0825  0.6745 -0.3878
 5369TIP3   OH237521   1.068   4.006   5.685  0.1783 -0.1591  0.2622
 5369TIP3    H137522   1.090   4.022   5.593 -0.0516 -0.1923  0.2017
 5369TIP3    H237523   0.989   3.952   5.682 -0.4605  0.7421  0.4867
 5370TIP3   OH237524   1.309   1.801  11.569 -0.8059  0.0144  0.0304
 5370TIP3    H137525   1.216   1.824  11.571 -1.4277 -1.9057 -2.1503
 5370TIP3    H237526   1.325   1.775  11.478  1.7511 -0.2169  0.4725
 5371TIP3   OH237527   0.185   1.594  11.792  0.1648  0.1343  0.2998
 5371TIP3    H137528   0.163   1.686  11.774  1.7684  0.3144 -0.9422
 5371TIP3    H237529   0.123   1.568  11.860 -0.0508  2.2669  1.0038
 5372TIP3   OH237530   2.581   2.177  15.690 -0.1010 -0.3315  0.0990
 5372TIP3    H137531   2.598   2.254  15.745  0.8025  0.6205 -1.4571
 5372TIP3    H237532   2.565   2.106  15.753  2.0111  0.4467  1.6177
 5373TIP3   OH237533   0.386   3.498  16.212 -0.3363  0.4068 -0.4717
 5373TIP3    H137534   0.446   3.443  16.161  0.0860 -0.3522  0.7883
 5373TIP3    H237535   0.433   3.581  16.224  1.4241 -0.8082  2.1279
 5374TIP3   OH237536   3.435   1.843  12.517  0.3224 -0.3674  0.5167
 5374TIP3    H137537   3.398   1.927  12.543  0.5592 -0.4090  1.0094
 5374TIP3    H237538   3.401   1.827  12.429 -2.2883 -1.2007  1.5463
 5375TIP3   OH237539   0.472   3.634   5.164  0.3700 -0.2911 -0.3786
 5375TIP3    H137540   0.407   3.609   5.099 -1.3155 -1.4482  1.6122
 5375TIP3    H237541   0.509   3.716   5.131 -0.4939 -0.7467 -2.6698
 5376TIP3   OH237542   0.432   1.385   3.083 -0.3739  0.1093 -0.5510
 5376TIP3    H137543   0.451   1.456   3.143  2.4160 -0.1841 -0.9290
 5376TIP3    H237544   0.517   1.361   3.046 -1.5008 -1.9811 -2.0683
 5377TIP3   OH237545   5.053   3.040  15.522  0.1406 -0.4396 -0.1050
 5377TIP3    H137546   5.123   3.069  15.464  1.2906  0.3568  1.5944
 5377TIP3    H237547   5.019   2.960  15.482  0.2965  0.5318 -2.2879
 5378TIP3   OH237548   1.487   2.554   4.418  0.3716 -0.3164 -0.1603
 5378TIP3    H137549   1.525   2.470   4.392 -1.3778 -0.6216 -1.9928
 5378TIP3    H237550   1.562   2.611   4.432  1.5518 -1.4304 -1.6203
 5379TIP3   OH237551   3.011   4.441   6.515 -0.1505  0.2823  0.0754
 5379TIP3    H137552   3.001   4.529   6.551 -0.0529  0.0122  0.7776
 5379TIP3    H237553   3.083   4.448   6.453 -1.5797  1.2038 -1.5686
 5380TIP3   OH237554   3.819   3.983  11.999 -0.3216  0.3315  0.4000
 5380TIP3    H137555   3.834   4.046  11.929 -0.9327 -0.7396 -0.7543
 5380TIP3    H237556   3.902   3.978  12.046  0.2926  0.6445 -0.6306
 5381TIP3   OH237557   1.941   6.672   1.581 -0.2322  0.4127  0.1345
 5381TIP3    H137558   2.035   6.669   1.564 -0.2977  1.4279 -0.4890
 5381TIP3    H237559   1.910   6.746   1.529 -1.6028 -0.7257 -0.7343
 5382TIP3   OH237560   5.771   1.262   5.463 -0.2351  0.5244 -0.1442
 5382TIP3    H137561   5.740   1.184   5.509  0.1276 -0.2806 -1.2188
 5382TIP3    H237562   5.866   1.256   5.468 -0.2032  0.7424 -0.4664
 5383TIP3   OH237563   1.094   1.858   1.289  0.1010 -0.2472  0.2336
 5383TIP3    H137564   1.161   1.791   1.281  1.0661  0.5560  1.2059
 5383TIP3    H237565   1.056   1.866   1.201 -0.1904 -2.1758  0.1411
 5384TIP3   OH237566   5.251   6.498  14.839  0.1992 -0.7513 -0.5570
 5384TIP3    H137567   5.231   6.581  14.795  0.0916 -1.8622 -2.6872
 5384TIP3    H237568   5.171   6.446  14.831 -0.4670 -0.4336  2.5382
 5385TIP3   OH237569   5.452   4.291  14.140  0.0956 -0.2075 -0.3470
 5385TIP3    H137570   5.368   4.256  14.171 -0.5248 -0.5043 -2.2714
 5385TIP3    H237571   5.463   4.254  14.053  1.8951  0.4135 -0.4213
 5386TIP3   OH237572   4.905   6.555   0.441 -0.0039 -0.0748 -0.4672
 5386TIP3    H137573   4.862   6.490   0.496  0.2790  1.4268  1.6725
 5386TIP3    H237574   4.864   6.638   0.466  0.3316  0.7169 -2.3831
 5387TIP3   OH237575   2.111   4.864   0.281 -0.3271 -0.4894 -0.1027
 5387TIP3    H137576   2.059   4.845   0.203  0.8891  0.8177 -1.2951
 5387TIP3    H237577   2.068   4.941   0.320 -0.1412 -0.3111 -0.2506
 5388TIP3   OH237578   4.847   2.390   3.092  0.0192 -0.4954  0.5142
 5388TIP3    H137579   4.897   2.326   3.041  1.1607  0.4468  0.3937
 5388TIP3    H237580   4.854   2.472   3.042 -0.1998  0.0596  1.3662
 5389TIP3   OH237581   2.230   3.627   0.817  0.2421 -1.0287 -0.7747
 5389TIP3    H137582   2.199   3.692   0.754  0.4159 -0.7824 -0.6083
 5389TIP3    H237583   2.300   3.581   0.772  1.5863  0.3290 -0.1586
 5390TIP3   OH237584   1.992   2.943   4.675 -0.7690  0.4315  0.3694
 5390TIP3    H137585   2.027   2.982   4.595 -1.7199 -1.2313 -0.9210
 5390TIP3    H237586   2.044   2.983   4.745  0.0975  1.9427 -1.0440
 5391TIP3   OH237587   3.358   4.687   2.036  0.8110  0.2539 -0.2538
 5391TIP3    H137588   3.443   4.705   1.995  0.7425  0.4086 -0.3314
 5391TIP3    H237589   3.323   4.774   2.054  2.0856  0.2836  2.7644
 5392TIP3   OH237590   1.873   4.769   3.947  0.7375 -0.9671 -0.7683
 5392TIP3    H137591   1.853   4.793   3.856 -0.2748 -0.0278 -0.3212
 5392TIP3    H237592   1.788   4.751   3.986  0.8903  0.9920  0.6190
 5393TIP3   OH237593   4.157   3.664  14.390 -0.0321 -1.2650  0.5894
 5393TIP3    H137594   4.129   3.646  14.480  2.6683  1.0785  2.0688
 5393TIP3    H237595   4.219   3.736  14.398  0.1421 -0.7677 -3.2397
 5394TIP3   OH237596   4.045   4.744  14.936  0.2672  0.5959  0.0212
 5394TIP3    H137597   4.117   4.741  14.999  0.5603  0.7778 -0.3006
 5394TIP3    H237598   3.968   4.766  14.988  0.6727  1.7432  0.1789
 5395TIP3   OH237599   4.727   0.206   1.097  0.0173  0.4111 -0.2144
 5395TIP3    H137600   4.663   0.267   1.061  0.0949  0.9199  0.4975
 5395TIP3    H237601   4.746   0.239   1.185 -0.9730 -1.4087  0.7400
 5396TIP3   OH237602   5.507   2.187  17.217  0.0128  0.5445  0.6427
 5396TIP3    H137603   5.534   2.097  17.236  2.4342  1.5285  2.5293
 5396TIP3    H237604   5.466   2.183  17.131  1.5511 -2.1103 -0.0700
 5397TIP3   OH237605   5.483   2.019  15.624  0.9027  0.8175 -0.8155
 5397TIP3    H137606   5.509   1.932  15.595 -0.6241  0.1103 -0.2183
 5397TIP3    H237607   5.501   2.020  15.718  1.3171  1.3124 -0.8940
 5398TIP3   OH237608   0.368   6.553   4.616 -0.0809 -0.1924  0.5538
 5398TIP3    H137609   0.390   6.636   4.574  0.6648 -0.0516  1.2094
 5398TIP3    H237610   0.421   6.488   4.569 -0.2035 -0.2161  0.4464
 5399TIP3   OH237611   1.651   0.694  14.907  0.0025  0.1313 -0.2447
 5399TIP3    H137612   1.580   0.733  14.957 -0.0765  0.3603 -0.5345
 5399TIP3    H237613   1.719   0.675  14.972  0.3538  1.4407 -0.1970
 5400TIP3   OH237614   4.553   3.929   2.769  0.1272 -0.0980  0.4594
 5400TIP3    H137615   4.462   3.914   2.744  0.3077 -0.2257 -0.1280
 5400TIP3    H237616   4.604   3.874   2.710  0.6695  1.1145 -0.2410
 5401TIP3   OH237617   3.620   1.289  14.590  0.2044 -0.2045 -0.3294
 5401TIP3    H137618   3.587   1.214  14.540 -0.6946  0.6453 -1.0514
 5401TIP3    H237619   3.690   1.253  14.644 -0.1087 -1.5344 -0.7759
 5402TIP3   OH237620   5.578   1.044   2.466 -0.2145  0.4213 -0.3473
 5402TIP3    H137621   5.522   1.117   2.441 -0.0142  0.8102  0.3008
 5402TIP3    H237622   5.624   1.020   2.385  0.3762  1.6011 -0.3852
 5403TIP3   OH237623   2.408   0.873   5.389  0.1620  0.1825 -0.2041
 5403TIP3    H137624   2.343   0.818   5.346  1.9637 -2.2381 -0.0100
 5403TIP3    H237625   2.489   0.823   5.384  1.4543  1.8980  1.9021
 5404TIP3   OH237626   0.958   1.393   1.987  0.5206 -0.2085 -0.0653
 5404TIP3    H137627   0.998   1.398   1.900 -0.6772  0.9427 -0.5980
 5404TIP3    H237628   0.943   1.300   2.002 -0.1546 -0.3610 -1.5329
 5405TIP3   OH237629   5.154   6.368  11.329 -0.0533  0.2828 -0.8072
 5405TIP3    H137630   5.225   6.431  11.346 -0.7705  1.0072 -0.4232
 5405TIP3    H237631   5.092   6.416  11.275 -0.4305 -0.2260 -0.8288
 5406TIP3   OH237632   6.214   1.407  16.802  0.1105 -0.4493  0.7193
 5406TIP3    H137633   6.191   1.478  16.742  1.5357 -0.3859  0.2109
 5406TIP3    H237634   6.134   1.391  16.852 -0.3471  1.2948  0.6217
 5407TIP3   OH237635   4.772   4.661  10.865  0.2588 -0.1768 -0.4377
 5407TIP3    H137636   4.778   4.727  10.935  0.8194  0.1279 -0.7631
 5407TIP3    H237637   4.809   4.582  10.904 -1.2539 -0.5686  0.2555
 5408TIP3   OH237638   5.571   4.534  15.058  0.4183 -0.1595  0.1271
 5408TIP3    H137639   5.615   4.449  15.067  0.4869 -0.2168 -0.6961
 5408TIP3    H237640   5.557   4.544  14.964  1.6650  1.3623  0.0537
 5409TIP3   OH237641   5.380   3.572   6.085  0.2643 -0.0316  0.0802
 5409TIP3    H137642   5.426   3.631   6.144  1.3837 -0.4035 -0.3907
 5409TIP3    H237643   5.408   3.485   6.112 -1.8264 -0.4358  1.1526
 5410TIP3   OH237644   0.821   5.139  16.133  0.3653  0.3049  0.5188
 5410TIP3    H137645   0.811   5.230  16.161 -2.1979  0.3399 -0.2657
 5410TIP3    H237646   0.877   5.100  16.199  0.1479  2.0507  1.8122
 5411TIP3   OH237647   4.246   1.550   0.810  0.0455 -0.4694  0.1914
 5411TIP3    H137648   4.273   1.544   0.718 -2.0111 -0.4242 -0.4646
 5411TIP3    H237649   4.320   1.592   0.854  0.5256  0.8216 -1.7195
 5412TIP3   OH237650   6.505   1.111  14.614  0.4822 -0.3790 -0.7640
 5412TIP3    H137651   6.541   1.023  14.605 -0.6752 -0.9043 -0.5109
 5412TIP3    H237652   6.568   1.168  14.570  1.2412 -1.3315 -0.9409
 5413TIP3   OH237653   1.970   0.902  17.046 -0.1270  0.0340 -0.2853
 5413TIP3    H137654   1.933   0.990  17.058  0.4144  0.1569  0.6090
 5413TIP3    H237655   1.937   0.852  17.120  2.6752  0.5826  1.5010
 5414TIP3   OH237656   6.288   6.710   1.744  0.1735 -0.1475 -0.5122
 5414TIP3    H137657   6.361   6.678   1.690  1.5092  1.1935  0.3887
 5414TIP3    H237658   6.209   6.684   1.697  1.1879  2.9340 -4.4657
 5415TIP3   OH237659   4.322   3.376  15.684 -0.1476  0.3561  0.1539
 5415TIP3    H137660   4.391   3.314  15.662 -0.5420  0.1161 -0.4182
 5415TIP3    H237661   4.338   3.451  15.626 -0.6218  0.1229 -0.2749
 5416TIP3   OH237662   5.429   2.220   4.460 -0.3404 -0.5776  0.6328
 5416TIP3    H137663   5.372   2.184   4.529  0.5530 -1.6357  0.8407
 5416TIP3    H237664   5.515   2.182   4.478  0.0249 -0.4434 -0.7719
 5417TIP3   OH237665   3.483   5.489   4.190  0.4180  0.2861  0.6162
 5417TIP3    H137666   3.462   5.416   4.249 -0.3007  1.3159  1.6816
 5417TIP3    H237667   3.563   5.526   4.226 -0.5679  1.5456  1.5990
 5418TIP3   OH237668   4.564   3.210  14.624 -0.4645  0.0597  0.0318
 5418TIP3    H137669   4.545   3.304  14.616 -0.8908  0.1325  1.4934
 5418TIP3    H237670   4.582   3.198  14.718 -0.2121 -1.2839 -0.1741
 5419TIP3   OH237671   6.369   1.288  16.373  0.0863  0.0591  0.4327
 5419TIP3    H137672   6.356   1.193  16.375  1.6973 -0.2047 -0.2318
 5419TIP3    H237673   6.416   1.305  16.292  2.0433  1.0864  1.6919
 5420TIP3   OH237674   4.990   2.317  17.054 -0.4576 -0.2454  0.2714
 5420TIP3    H137675   4.984   2.268  17.136  0.8223  0.2429  0.6817
 5420TIP3    H237676   5.082   2.340  17.046 -1.2185  3.9942  1.2550
 5421TIP3   OH237677   2.377   1.235  13.653  0.3129  0.5040 -0.2558
 5421TIP3    H137678   2.421   1.176  13.714 -0.7190  0.1954  0.2149
 5421TIP3    H237679   2.394   1.323  13.687 -1.1349  0.2944  1.1318
 5422TIP3   OH237680   3.670   4.826  12.937  0.9316  0.1605  0.4107
 5422TIP3    H137681   3.687   4.794  13.025 -0.0446  3.5340  1.9793
 5422TIP3    H237682   3.753   4.866  12.910  0.7950  0.4513  0.4225
 5423TIP3   OH237683   4.204   0.055  15.133 -0.4888  0.2597  0.1600
 5423TIP3    H137684   4.139   0.062  15.063 -0.4925  0.9014  0.2190
 5423TIP3    H237685   4.189   0.133  15.187 -0.0987  0.0725  0.5408
 5424TIP3   OH237686   4.898   5.397  14.327 -0.1967 -0.7382  0.7178
 5424TIP3    H137687   4.927   5.306  14.318  1.6737 -0.2224  1.1232
 5424TIP3    H237688   4.952   5.446  14.266 -2.4410 -0.0721 -0.8755
 5425TIP3   OH237689   1.838   0.445   3.801  0.4036  0.3589  0.9053
 5425TIP3    H137690   1.930   0.466   3.787  1.5389 -2.1879  3.4814
 5425TIP3    H237691   1.812   0.495   3.878 -0.4000  1.0176  0.2325
 5426TIP3   OH237692   2.400   4.323  15.675 -0.3085 -0.6933  0.0522
 5426TIP3    H137693   2.343   4.254  15.710  1.8272 -1.1916  2.9915
 5426TIP3    H237694   2.431   4.369  15.753  0.2536  2.1022 -1.6793
 5427TIP3   OH237695   5.715   4.382   1.853  0.0072 -0.2268  0.0801
 5427TIP3    H137696   5.694   4.458   1.908  0.3909 -1.1031  1.4901
 5427TIP3    H237697   5.653   4.386   1.780 -1.9708 -0.2116  1.7024
 5428TIP3   OH237698   6.124   4.342   0.718  0.5197  0.0308 -0.1802
 5428TIP3    H137699   6.084   4.364   0.633  1.0155  0.4591 -0.3112
 5428TIP3    H237700   6.071   4.389   0.782 -0.2721 -0.8323 -0.1812
 5429TIP3   OH237701   5.761   5.853   5.167  0.0204  0.0816  0.4264
 5429TIP3    H137702   5.784   5.876   5.077  1.8922 -0.5842  0.6975
 5429TIP3    H237703   5.674   5.815   5.160  0.7188 -1.3825 -1.3627
 5430TIP3   OH237704   5.494   5.715  12.725  0.2668 -0.2422 -0.1643
 5430TIP3    H137705   5.405   5.726  12.760  0.3151  0.1463 -0.1575
 5430TIP3    H237706   5.543   5.788  12.763  0.1835  0.5242 -1.4771
 5431TIP3   OH237707   2.502   5.554   1.690  0.0427  0.1906 -0.0262
 5431TIP3    H137708   2.478   5.646   1.696 -0.1702  0.1503 -0.2975
 5431TIP3    H237709   2.521   5.539   1.598 -1.2990 -0.3843 -0.2256
 5432TIP3   OH237710   1.494   3.640  16.534  0.2542  0.5076 -0.6119
 5432TIP3    H137711   1.483   3.671  16.623  1.8788  0.3666 -0.3252
 5432TIP3    H237712   1.558   3.700  16.495 -0.8831  0.9378 -1.8951
 5433TIP3   OH237713   2.837   0.691   6.471  0.4148 -0.4083 -0.4915
 5433TIP3    H137714   2.785   0.612   6.461 -0.3311  0.0224 -0.1357
 5433TIP3    H237715   2.876   0.684   6.558 -1.3697  0.5681  0.4495
 5434TIP3   OH237716   5.986   5.290   5.933 -0.2887  0.1210  0.1123
 5434TIP3    H137717   5.892   5.291   5.952 -1.0042 -0.7339 -2.8320
 5434TIP3    H237718   6.012   5.200   5.949 -0.2923  0.0498 -0.2597
 5435TIP3   OH237719   3.281   6.227  12.191 -0.6135  0.4081 -0.2342
 5435TIP3    H137720   3.366   6.271  12.200 -0.2326 -0.2299 -0.6050
 5435TIP3    H237721   3.256   6.204  12.280  0.9187 -1.7986 -0.2868
 5436TIP3   OH237722   1.782   4.040  16.502 -0.2494 -0.0053 -0.4977
 5436TIP3    H137723   1.833   4.060  16.581 -1.6343 -2.2063  1.0687
 5436TIP3    H237724   1.848   4.034  16.432  1.4001 -0.6601  1.0198
 5437TIP3   OH237725   1.439   5.127   5.764 -0.0849 -0.1798  0.4009
 5437TIP3    H137726   1.480   5.123   5.850 -1.0547 -0.3514  0.8727
 5437TIP3    H237727   1.504   5.170   5.708  1.4949 -2.1173  0.6536
 5438TIP3   OH237728   6.299   1.021  16.372 -0.1633 -0.5848 -0.2033
 5438TIP3    H137729   6.204   1.016  16.366 -0.1806  0.0984 -0.6160
 5438TIP3    H237730   6.320   0.971  16.451 -0.9626  0.1217  0.4834
 5439TIP3   OH237731   4.763   1.257   2.440  0.0916 -0.1488 -0.1155
 5439TIP3    H137732   4.828   1.318   2.474 -0.3453  0.1573  0.1836
 5439TIP3    H237733   4.794   1.171   2.467  1.6140 -0.2672 -1.9662
 5440TIP3   OH237734   3.820   2.086   4.326 -0.3939  0.6021  0.3403
 5440TIP3    H137735   3.818   1.994   4.301 -0.9080  0.7818 -0.2766
 5440TIP3    H237736   3.875   2.128   4.259 -0.1238  0.7407  0.6441
 5441TIP3   OH237737   5.609   2.611   4.357  0.2005  0.3994 -0.0512
 5441TIP3    H137738   5.650   2.637   4.439 -0.1739  0.8951 -0.0176
 5441TIP3    H237739   5.516   2.599   4.379  0.3037 -0.6288 -0.1436
 5442TIP3   OH237740   2.683   1.487   0.308 -0.4540 -0.1965 -0.2253
 5442TIP3    H137741   2.713   1.447   0.390 -1.3747 -1.5920 -0.5330
 5442TIP3    H237742   2.756   1.542   0.280  1.1427 -2.1111 -0.0573
 5443TIP3   OH237743   1.505   6.662  14.148 -0.3761 -0.4266 -0.3178
 5443TIP3    H137744   1.546   6.575  14.146 -0.6390 -0.5679  0.1876
 5443TIP3    H237745   1.563   6.714  14.204 -0.7314 -0.5537  0.1792
 5444TIP3   OH237746   0.719   5.577  11.771 -0.0529 -0.0811  0.9309
 5444TIP3    H137747   0.702   5.508  11.708 -1.5338  1.4109 -0.4147
 5444TIP3    H237748   0.801   5.617  11.743 -0.9353  0.8716 -0.4056
 5445TIP3   OH237749   6.216   0.229  11.503 -0.5415 -0.7324  0.1870
 5445TIP3    H137750   6.257   0.247  11.419  0.0866 -1.8373  0.2319
 5445TIP3    H237751   6.237   0.305  11.557 -0.8237 -0.0848 -0.6099
 5446TIP3   OH237752   0.551   3.538   1.613  0.0029  0.1457 -0.5780
 5446TIP3    H137753   0.579   3.464   1.668  0.2349  0.8325  0.2515
 5446TIP3    H237754   0.633   3.580   1.587 -0.1544  1.2184  0.5356
 5447TIP3   OH237755   4.101   4.693  11.731  0.1419 -0.0899  0.5774
 5447TIP3    H137756   4.058   4.626  11.785  0.1544 -0.8604 -0.3562
 5447TIP3    H237757   4.064   4.775  11.763 -3.3706 -0.7534 -1.2197
 5448TIP3   OH237758   3.418   4.360   4.375  0.1065 -0.1325 -0.3733
 5448TIP3    H137759   3.329   4.386   4.352  0.4079 -0.9352 -2.8299
 5448TIP3    H237760   3.452   4.432   4.428 -1.3137  1.1763 -1.1614
 5449TIP3   OH237761   5.275   4.198   5.124 -0.4842 -0.0406  0.3299
 5449TIP3    H137762   5.316   4.224   5.042 -0.8014  0.8359  0.4399
 5449TIP3    H237763   5.202   4.259   5.135 -0.5159 -0.2214  1.2037
 5450TIP3   OH237764   3.128   2.810   3.144  0.0482 -0.5264 -0.3027
 5450TIP3    H137765   3.115   2.854   3.228 -0.6393  0.0264 -0.6913
 5450TIP3    H237766   3.054   2.749   3.138  0.5363 -1.1446 -0.1515
 5451TIP3   OH237767   5.615   2.688  13.287 -0.2233 -0.0605 -0.0869
 5451TIP3    H137768   5.694   2.652  13.327  0.2928 -0.6891 -1.5804
 5451TIP3    H237769   5.631   2.782  13.282  0.3005 -0.1446 -0.0836
 5452TIP3   OH237770   3.928   4.726  16.144  0.4401 -0.4867  0.6163
 5452TIP3    H137771   3.991   4.692  16.207  1.0699 -0.8918 -0.2050
 5452TIP3    H237772   3.882   4.649  16.111 -0.2932 -0.2219  0.9983
 5453TIP3   OH237773   4.746   0.774   6.562 -0.4725 -0.5436 -0.0395
 5453TIP3    H137774   4.652   0.769   6.578 -0.7731 -0.6678 -1.6607
 5453TIP3    H237775   4.757   0.852   6.507  0.2950 -0.7851 -0.2465
 5454TIP3   OH237776   0.313   1.894   3.385 -0.1007  0.0264 -0.0223
 5454TIP3    H137777   0.387   1.923   3.331 -0.1327 -0.0252 -0.0939
 5454TIP3    H237778   0.304   1.962   3.452  1.9222 -1.3723  1.8027
 5455TIP3   OH237779   6.360   0.405  15.086 -0.2544  0.1150 -0.0313
 5455TIP3    H137780   6.414   0.485  15.093 -0.5876  0.3025  0.4462
 5455TIP3    H237781   6.422   0.334  15.100 -0.0303  0.3072 -0.0284
 5456TIP3   OH237782   5.481   2.257   2.018 -0.3316  0.3465 -0.2362
 5456TIP3    H137783   5.562   2.234   2.065  0.6517 -0.0437 -2.0396
 5456TIP3    H237784   5.425   2.180   2.028  0.3269 -0.2017 -0.6387
 5457TIP3   OH237785   4.497   1.887  14.709  0.3864  0.0325 -0.1187
 5457TIP3    H137786   4.516   1.874  14.801 -1.1546  0.7169  0.3233
 5457TIP3    H237787   4.581   1.874  14.665  1.1415 -0.2889  1.3627
 5458TIP3   OH237788   6.358   2.858  13.812  0.6241 -0.2111 -0.1918
 5458TIP3    H137789   6.350   2.953  13.798 -2.1551 -0.3462 -0.1455
 5458TIP3    H237790   6.303   2.841  13.889  0.9839 -1.8653 -0.2783
 5459TIP3   OH237791   4.952   0.061  12.491 -0.6267  0.0201 -0.3785
 5459TIP3    H137792   5.026   0.117  12.516  0.2656 -1.3515  0.1593
 5459TIP3    H237793   4.982  -0.028  12.510 -2.0533 -0.6414 -1.1047
 5460TIP3   OH237794   4.906   1.482  11.433  0.5274  0.5224  0.3425
 5460TIP3    H137795   4.928   1.554  11.374  0.7213  0.3896  0.2524
 5460TIP3    H237796   4.990   1.452  11.468  0.6324 -0.7508 -0.8912
 5461TIP3   OH237797   6.777   2.807  14.303  0.0223  0.1928  0.6257
 5461TIP3    H137798   6.830   2.775  14.230  1.8454  0.3258  1.8354
 5461TIP3    H237799   6.830   2.792  14.381 -3.2399 -3.3321  2.5341
 5462TIP3   OH237800   5.406   0.986  13.249 -0.0978  0.1821 -0.2687
 5462TIP3    H137801   5.463   0.985  13.172  0.6817  0.6934  0.2928
 5462TIP3    H237802   5.323   0.950  13.217 -0.1407  1.3768 -1.6230
 5463TIP3   OH237803   4.599   2.456  11.271 -0.1575  0.3557  0.1095
 5463TIP3    H137804   4.676   2.512  11.282  2.0049 -2.4840  0.7074
 5463TIP3    H237805   4.605   2.425  11.181 -2.1409  2.0522 -0.6829
 5464TIP3   OH237806   4.289   1.649  13.225  0.1360  0.2388  0.3111
 5464TIP3    H137807   4.287   1.704  13.302 -3.5686  0.9371 -0.0979
 5464TIP3    H237808   4.365   1.679  13.175  0.3972  2.3571  1.8747
 5465TIP3   OH237809   5.077   4.173  14.613  0.2921  0.0254  0.0239
 5465TIP3    H137810   5.063   4.100  14.673  0.0150  0.4861  0.5345
 5465TIP3    H237811   5.048   4.140  14.528 -2.8987  0.5274  0.7942
 5466TIP3   OH237812   2.966   6.774   0.167  0.1928  0.6828  0.5679
 5466TIP3    H137813   2.965   6.697   0.223 -0.6487  0.1405 -0.1624
 5466TIP3    H237814   2.905   6.835   0.209 -0.2039  0.3964  0.4168
 5467TIP3   OH237815   3.733   1.116   4.271 -0.3089  0.5378  0.3599
 5467TIP3    H137816   3.790   1.051   4.314 -1.5348 -0.2543  0.8568
 5467TIP3    H237817   3.782   1.198   4.275  1.1132 -0.2661  0.0894
 5468TIP3   OH237818   1.758   5.883   4.355  0.4583  0.6744  0.4365
 5468TIP3    H137819   1.802   5.931   4.425  1.6512  0.4141 -0.1196
 5468TIP3    H237820   1.812   5.805   4.342 -1.5650 -1.0267  1.5240
 5469TIP3   OH237821   3.833   5.348  15.487 -0.4244  0.1531 -0.0045
 5469TIP3    H137822   3.858   5.440  15.475 -0.1313  0.0570 -0.1372
 5469TIP3    H237823   3.879   5.301  15.417  2.0662 -0.5485  1.9186
 5470TIP3   OH237824   0.522   5.180   2.512  0.6032 -0.2218 -0.3815
 5470TIP3    H137825   0.530   5.163   2.418  1.7628 -1.2156 -0.1302
 5470TIP3    H237826   0.585   5.250   2.529  0.3831 -0.0324 -0.3417
 5471TIP3   OH237827   1.771   4.303   0.836 -0.2644  0.5094 -0.0634
 5471TIP3    H137828   1.835   4.237   0.864 -1.3612 -0.2056  0.8695
 5471TIP3    H237829   1.806   4.338   0.754  1.7691  0.8002  0.8733
 5472TIP3   OH237830   6.378   1.931  14.783  0.3614  0.0807 -0.2157
 5472TIP3    H137831   6.431   1.944  14.862  4.3000  0.1427 -2.5871
 5472TIP3    H237832   6.355   2.019  14.755 -2.7072  0.0322  1.6317
 5473TIP3   OH237833   4.295   2.461   4.489 -0.7664 -0.3318  0.6568
 5473TIP3    H137834   4.219   2.509   4.523 -0.8199  0.6180 -0.7205
 5473TIP3    H237835   4.266   2.425   4.405  0.9220  2.0904 -1.1214
 5474TIP3   OH237836   3.397   1.050   1.700 -0.3393 -0.1647  0.3328
 5474TIP3    H137837   3.353   0.970   1.674 -1.3913 -0.3510  2.4937
 5474TIP3    H237838   3.491   1.028   1.699 -0.6024 -1.3490  0.6753
 5475TIP3   OH237839   4.405   4.960   4.412 -0.2434 -0.4555  0.5217
 5475TIP3    H137840   4.335   5.017   4.378 -1.6694 -1.7703  1.1391
 5475TIP3    H237841   4.369   4.872   4.406  1.6168 -1.2381  0.3276
 5476TIP3   OH237842   1.675   6.602   4.352 -0.7559  0.5207 -0.8650
 5476TIP3    H137843   1.747   6.578   4.294 -2.2612 -0.4411 -2.4521
 5476TIP3    H237844   1.622   6.663   4.301 -1.6343  0.3712 -0.1659
 5477TIP3   OH237845   6.253   4.643  11.167 -0.5068 -0.0137 -0.1333
 5477TIP3    H137846   6.289   4.724  11.131 -0.7432  0.3152  0.3614
 5477TIP3    H237847   6.319   4.577  11.149 -0.1185  0.3754 -0.1547
 5478TIP3   OH237848   1.005   3.821   6.843 -0.3088  0.2954  0.4169
 5478TIP3    H137849   0.985   3.740   6.890 -1.2302  0.4326  0.2924
 5478TIP3    H237850   0.934   3.829   6.779  0.3915  0.6175 -0.3313
 5479TIP3   OH237851   3.357   0.025  14.281  0.6805  0.4754  0.3601
 5479TIP3    H137852   3.331   0.006  14.371  4.9999  1.5857  2.1362
 5479TIP3    H237853   3.348   0.120  14.272 -0.7610  0.2597 -0.8476
 5480TIP3   OH237854   4.800   5.547  12.270  0.0041  0.0541  0.8167
 5480TIP3    H137855   4.707   5.534  12.254 -0.1963  2.3879 -0.3425
 5480TIP3    H237856   4.804   5.597  12.352  0.4156 -1.9048  2.0580
 5481TIP3   OH237857   4.121   6.747   1.861 -0.1053  0.3656 -0.1397
 5481TIP3    H137858   4.098   6.833   1.897 -0.5033  0.7510 -1.2755
 5481TIP3    H237859   4.217   6.744   1.868  0.1423  1.7994 -1.9357
 5482TIP3   OH237860   2.623   3.016  12.637  0.0156  0.0712 -0.3920
 5482TIP3    H137861   2.616   2.955  12.711  1.3905  0.7947  0.3847
 5482TIP3    H237862   2.673   2.968  12.571  0.7800  0.1959  0.0759
 5483TIP3   OH237863   4.266   3.625  17.049  0.5607 -0.0887  0.2287
 5483TIP3    H137864   4.351   3.603  17.010  0.7182 -1.3157  1.2048
 5483TIP3    H237865   4.204   3.616  16.976  1.1194 -0.3145 -0.2322
 5484TIP3   OH237866   4.222   6.338   5.618 -0.0623  0.0775 -0.4140
 5484TIP3    H137867   4.292   6.273   5.614  0.9597  0.9391  1.7729
 5484TIP3    H237868   4.234   6.381   5.703 -1.4194  2.3135 -1.2647
 5485TIP3   OH237869   2.765   4.141  15.476 -0.0454 -0.0873 -0.3816
 5485TIP3    H137870   2.850   4.171  15.443 -0.5056  1.8191  0.0189
 5485TIP3    H237871   2.779   4.131  15.571  0.0635 -1.1046 -0.4889
 5486TIP3   OH237872   4.411   6.050  12.152  0.4505 -0.3969  0.1250
 5486TIP3    H137873   4.387   6.141  12.135 -1.6447 -0.7217  0.9527
 5486TIP3    H237874   4.333   6.000  12.126  0.6863 -1.7136  1.7464
 5487TIP3   OH237875   5.854   3.204   4.315 -0.1539 -0.4225 -0.1463
 5487TIP3    H137876   5.892   3.137   4.373 -1.9354 -2.4222 -1.1225
 5487TIP3    H237877   5.768   3.222   4.353 -0.9042 -0.9543 -1.5233
 5488TIP3   OH237878   6.388   0.807  17.143 -0.4490  0.7947 -0.1332
 5488TIP3    H137879   6.421   0.837  17.227  0.6857 -0.2755 -0.1621
 5488TIP3    H237880   6.294   0.823  17.146 -0.1038  2.9084  0.3944
 5489TIP3   OH237881   5.243   6.261   0.252 -0.4278  0.2124 -0.4877
 5489TIP3    H137882   5.238   6.188   0.313  1.8312  2.0902  2.1803
 5489TIP3    H237883   5.331   6.258   0.217 -0.3405  1.5162 -0.4456
 5490TIP3   OH237884   4.985   4.756  15.019  0.0536  0.3281 -0.5526
 5490TIP3    H137885   5.068   4.733  14.976  0.2977  3.8950 -2.3709
 5490TIP3    H237886   4.928   4.782  14.947 -1.3023  1.6702  0.9506
 5491TIP3   OH237887   3.465   3.742  10.859  0.9386  0.1142  0.4468
 5491TIP3    H137888   3.390   3.761  10.804 -0.2487 -0.2200  1.8770
 5491TIP3    H237889   3.539   3.739  10.799  0.2047  2.6842 -0.7308
 5492TIP3   OH237890   1.117   0.457  16.975  0.6650  0.0239 -0.3897
 5492TIP3    H137891   1.094   0.548  16.954 -1.2531 -0.6835 -1.6207
 5492TIP3    H237892   1.128   0.414  16.890  0.4359 -1.1518  0.1516
 5493TIP3   OH237893   3.004   5.208  11.893 -0.4975  0.5265  0.1694
 5493TIP3    H137894   2.916   5.191  11.928 -0.5246 -1.6961 -0.7914
 5493TIP3    H237895   3.054   5.130  11.916  0.0859 -0.0810 -2.7041
 5494TIP3   OH237896   2.287   5.348  12.812 -0.5958 -0.0823 -0.4149
 5494TIP3    H137897   2.264   5.365  12.903  2.4299  1.3621  0.2307
 5494TIP3    H237898   2.304   5.254  12.809  1.8534  0.2130  1.3156
 5495TIP3   OH237899   5.824   3.696   4.660 -0.2418 -0.1426  0.1423
 5495TIP3    H137900   5.886   3.656   4.599  4.0758  1.9690  2.6075
 5495TIP3    H237901   5.822   3.789   4.635 -1.7394  0.0059  0.7221
 5496TIP3   OH237902   0.489   3.398  16.472 -0.1989  0.0965  0.3870
 5496TIP3    H137903   0.446   3.315  16.495 -1.2477  0.1532 -1.2525
 5496TIP3    H237904   0.435   3.435  16.403  1.5312  1.0390 -0.5251
 5497TIP3   OH237905   2.909   2.538  14.205 -0.6448 -0.2264  0.3641
 5497TIP3    H137906   2.942   2.459  14.248 -0.7741 -0.1334  0.6356
 5497TIP3    H237907   2.828   2.558  14.251 -0.6450  0.0301  0.2522
 5498TIP3   OH237908   1.886   5.568  13.895 -0.2171  0.0669  0.1844
 5498TIP3    H137909   1.874   5.478  13.865  0.3197  0.0482  0.0181
 5498TIP3    H237910   1.850   5.621  13.824  0.1783 -0.0031 -0.0776
 5499TIP3   OH237911   3.969   6.343  11.070 -0.2263  0.1405 -0.4159
 5499TIP3    H137912   3.884   6.316  11.036 -0.2890  0.0164 -0.1621
 5499TIP3    H237913   4.005   6.401  11.002 -0.1923 -0.3883 -0.8610
 5500TIP3   OH237914   2.171   6.357   0.141  0.1415 -0.3032 -0.0652
 5500TIP3    H137915   2.075   6.367   0.140 -0.1134 -2.0490  1.5286
 5500TIP3    H237916   2.199   6.383   0.053 -1.8495 -0.2095 -0.7230
 5501TIP3   OH237917   6.716   0.373  15.568  0.4493 -0.2188 -0.1180
 5501TIP3    H137918   6.747   0.349  15.481 -1.2004 -0.4702 -0.6731
 5501TIP3    H237919   6.720   0.292  15.618 -0.2116 -0.4822 -0.4771
 5502TIP3   OH237920   6.115   0.106  13.526  0.0362  0.1502  0.3732
 5502TIP3    H137921   6.076   0.177  13.577  2.2533  0.0065  2.4791
 5502TIP3    H237922   6.207   0.105  13.553  0.4350 -2.5176 -0.7568
 5503TIP3   OH237923   1.312   4.500  17.196  0.0153 -0.6880 -0.2711
 5503TIP3    H137924   1.243   4.546  17.148 -0.3520 -0.4762  0.4410
 5503TIP3    H237925   1.275   4.412  17.211  0.5899 -1.1364 -1.3586
 5504TIP3   OH237926   5.171   3.864   0.393  0.0111 -0.2885 -0.7184
 5504TIP3    H137927   5.205   3.775   0.381  0.2067 -0.3431  0.1914
 5504TIP3    H237928   5.081   3.852   0.424  0.1435 -0.1806 -0.2814
 5505TIP3   OH237929   6.390   6.772  13.595  0.3292  0.1785 -0.2942
 5505TIP3    H137930   6.440   6.839  13.549 -1.1172  2.3729  1.1254
 5505TIP3    H237931   6.453   6.729  13.653  0.7923  2.4313  0.9748
 5506TIP3   OH237932   2.687   5.120   2.628  0.0338 -0.2330 -0.8310
 5506TIP3    H137933   2.774   5.157   2.642 -0.5185  0.4046  1.3517
 5506TIP3    H237934   2.627   5.194   2.639 -0.7881 -0.3835 -3.6240
 5507TIP3   OH237935   0.878   3.527  14.104 -0.5749  0.0777 -0.0345
 5507TIP3    H137936   0.911   3.527  14.014  1.0411  1.6856  0.4974
 5507TIP3    H237937   0.839   3.614  14.115  1.1155  0.7338  1.3903
 5508TIP3   OH237938   0.790   5.402  10.561 -0.2218  0.9345 -0.2758
 5508TIP3    H137939   0.828   5.330  10.511  2.3956  0.9617  1.4798
 5508TIP3    H237940   0.839   5.480  10.532 -0.6888  1.4281  0.2422
 5509TIP3   OH237941   1.644   3.083  12.114  0.1649  0.4616  0.6224
 5509TIP3    H137942   1.563   3.047  12.079  0.2230  0.6755  0.2662
 5509TIP3    H237943   1.695   3.006  12.141  0.1250  0.2925  0.2282
 5510TIP3   OH237944   5.640   3.470  16.530  0.6616 -0.3101  0.1563
 5510TIP3    H137945   5.729   3.452  16.563  0.6171 -0.7725  0.0264
 5510TIP3    H237946   5.639   3.434  16.442  1.2274  2.1697 -0.9499
 5511TIP3   OH237947   0.893   1.174   5.230  0.0333 -0.1643  0.0037
 5511TIP3    H137948   0.851   1.118   5.164 -1.0120  0.2091  0.3316
 5511TIP3    H237949   0.968   1.123   5.261 -2.2069 -2.5049  2.0381
 5512TIP3   OH237950   5.939   1.940  14.433 -0.0113 -0.6725 -0.5811
 5512TIP3    H137951   6.007   1.956  14.368 -0.1754  1.1674 -0.3377
 5512TIP3    H237952   5.980   1.882  14.498  1.2200  0.1732 -0.5873
 5513TIP3   OH237953   4.781   6.089  11.981  0.4189 -0.1154  0.4892
 5513TIP3    H137954   4.730   6.169  11.973 -2.1837 -1.6534  0.8698
 5513TIP3    H237955   4.742   6.041  12.054  1.7331 -1.8626  0.1291
 5514TIP3   OH237956   5.873   5.202   2.277 -0.4832 -0.1309  0.2622
 5514TIP3    H137957   5.883   5.203   2.182  1.8474 -2.3944  0.3523
 5514TIP3    H237958   5.892   5.291   2.305  1.9590 -0.1057 -1.2291
 5515TIP3   OH237959   1.670   5.479   0.013 -0.0299 -0.3038 -0.2305
 5515TIP3    H137960   1.736   5.410   0.012 -0.5580 -0.8510  0.8853
 5515TIP3    H237961   1.587   5.432   0.021 -0.5069  0.4090 -0.8057
 5516TIP3   OH237962   0.304   6.705  17.195 -0.3706  1.1989 -0.1812
 5516TIP3    H137963   0.389   6.695  17.153 -0.6386 -1.3233 -0.2610
 5516TIP3    H237964   0.240   6.698  17.124 -0.7241 -0.6510  0.2487
 5517TIP3   OH237965   2.957   5.122   5.920  0.0998  0.2789 -0.2557
 5517TIP3    H137966   2.944   5.189   5.986 -0.1850  0.2813 -0.3160
 5517TIP3    H237967   2.900   5.148   5.847 -1.5807 -1.1038  0.4984
 5518TIP3   OH237968   2.229   1.391   2.368 -0.3813 -0.3049 -0.0667
 5518TIP3    H137969   2.280   1.330   2.421  1.0712  1.1748  0.3189
 5518TIP3    H237970   2.286   1.468   2.359 -1.3212  0.2068 -2.2340
 5519TIP3   OH237971   1.913   4.168  16.932  0.2306  0.2691 -0.9061
 5519TIP3    H137972   1.883   4.223  17.004  0.9062 -0.6547  0.1182
 5519TIP3    H237973   1.863   4.198  16.856 -1.7772  0.1281  0.2968
 5520TIP3   OH237974   6.533   4.111  12.535  0.0384 -0.2777  0.7420
 5520TIP3    H137975   6.441   4.086  12.547 -0.5553  1.6213  0.4989
 5520TIP3    H237976   6.548   4.101  12.441 -0.6763  1.6854  0.3870
 5521TIP3   OH237977   4.318   5.794   4.429 -0.1105  0.1038 -0.3016
 5521TIP3    H137978   4.343   5.702   4.417  0.6027  0.1871  0.4298
 5521TIP3    H237979   4.378   5.826   4.497 -1.7508  0.5102  1.0291
 5522TIP3   OH237980   6.018   4.350  14.785 -0.1021  0.3225  0.4036
 5522TIP3    H137981   6.094   4.385  14.832  0.1569  0.4866 -0.1371
 5522TIP3    H237982   5.961   4.426  14.772 -0.5955  0.1156  1.2315
 5523TIP3   OH237983   0.943   4.562   3.001 -0.6678  0.0970 -0.4910
 5523TIP3    H137984   1.033   4.586   3.026  0.5028 -2.4019 -1.9222
 5523TIP3    H237985   0.943   4.564   2.905 -2.4182  0.8559 -0.5108
 5524TIP3   OH237986   2.916   6.180   4.353 -0.0559 -0.1417 -0.7145
 5524TIP3    H137987   2.837   6.196   4.403  0.7824 -0.9509  0.9268
 5524TIP3    H237988   2.917   6.085   4.338  1.7656 -0.5245  1.3934
 5525TIP3   OH237989   3.327   0.721  14.561  0.2244 -0.5018  0.3886
 5525TIP3    H137990   3.256   0.662  14.587 -1.6969  1.8543  0.8128
 5525TIP3    H237991   3.308   0.742  14.470  0.5776 -0.1281  0.3995
 5526TIP3   OH237992   0.566   0.269   3.443  0.0120  0.5370 -0.0903
 5526TIP3    H137993   0.552   0.207   3.515 -0.9857  0.9451  0.0821
 5526TIP3    H237994   0.607   0.216   3.375 -2.7311 -0.9292 -0.7682
 5527TIP3   OH237995   2.435   3.791   4.801  0.5769  0.3728 -0.4143
 5527TIP3    H137996   2.450   3.724   4.868 -0.3259 -1.3248 -1.8222
 5527TIP3    H237997   2.441   3.744   4.718  0.9812  2.2734 -1.5343
 5528TIP3   OH237998   0.884   6.548   0.087  0.4782 -0.6287  0.5157
 5528TIP3    H137999   0.932   6.590   0.016 -0.2320  1.7435  1.3267
 5528TIP3    H238000   0.948   6.490   0.128  1.8119  0.2697 -0.2112
 5529TIP3   OH238001   3.536   1.621  14.348  0.1417 -0.6236  0.3889
 5529TIP3    H138002   3.503   1.564  14.278 -1.5533 -0.8650  1.3342
 5529TIP3    H238003   3.563   1.701  14.303 -2.1491 -0.2436 -0.4417
 5530TIP3   OH238004   2.648   5.618   4.017 -0.2248 -0.5480  0.2328
 5530TIP3    H138005   2.617   5.573   4.095 -1.0481  0.8516  0.7560
 5530TIP3    H238006   2.609   5.569   3.944  0.0578 -1.5012  0.7089
 5531TIP3   OH238007   3.513   4.783  13.708  0.0589 -0.1410  0.4564
 5531TIP3    H138008   3.526   4.691  13.684 -0.1491 -0.1176  0.2493
 5531TIP3    H238009   3.509   4.783  13.803  0.8619 -0.2436  0.4982
 5532TIP3   OH238010   3.839   5.511  16.076  0.1552  0.1413  0.3596
 5532TIP3    H138011   3.875   5.573  16.013  0.3736 -0.5115 -0.1668
 5532TIP3    H238012   3.795   5.566  16.141 -1.6437  0.7956 -1.3177
 5533TIP3   OH238013   6.247   6.031   5.526  0.2290  0.0201 -0.0232
 5533TIP3    H138014   6.191   5.974   5.579  1.2824 -0.0635  1.0468
 5533TIP3    H238015   6.198   6.112   5.519 -0.2767 -0.2326  0.4311
 5534TIP3   OH238016   3.340   6.286  13.097  0.3448 -0.3603  0.3853
 5534TIP3    H138017   3.353   6.378  13.122  1.6139 -0.9926  2.2554
 5534TIP3    H238018   3.411   6.239  13.141 -0.7565 -2.3663  0.1227
 5535TIP3   OH238019   6.345   5.362   2.841 -0.4672  0.1719  0.0289
 5535TIP3    H138020   6.438   5.344   2.832 -0.4948 -0.1660  0.3652
 5535TIP3    H238021   6.322   5.413   2.764 -0.0153  0.2109 -0.0792
 5536TIP3   OH238022   1.712   1.655   6.061  0.5327 -0.3262 -0.0792
 5536TIP3    H138023   1.724   1.749   6.056 -1.8120 -0.0187 -1.2026
 5536TIP3    H238024   1.801   1.619   6.060  1.4297  1.7796 -1.5546
 5537TIP3   OH238025   1.646   1.796   0.736 -0.2680 -0.0149 -0.1571
 5537TIP3    H138026   1.655   1.890   0.726  0.8416 -0.2230 -1.4013
 5537TIP3    H238027   1.626   1.763   0.648 -1.6797 -0.8527  0.4417
 5538TIP3   OH238028   5.593   6.562  17.031 -0.1028 -0.3879 -0.2531
 5538TIP3    H138029   5.503   6.596  17.037  0.3635  1.0736 -1.0245
 5538TIP3    H238030   5.583   6.468  17.042 -1.5318 -0.0934  1.4532
 5539TIP3   OH238031   5.234   2.657   6.745 -0.1311 -0.3432 -0.2270
 5539TIP3    H138032   5.314   2.607   6.730  0.4954  0.6023 -0.0984
 5539TIP3    H238033   5.248   2.739   6.698 -1.7045 -0.7884 -1.6114
 5540TIP3   OH238034   6.491   5.374   0.893  0.7620 -0.2059  0.0911
 5540TIP3    H138035   6.435   5.440   0.934 -1.0227 -0.5001 -1.7248
 5540TIP3    H238036   6.512   5.410   0.807  1.3117 -1.2212 -0.2127
 5541TIP3   OH238037   5.870   5.237   0.791 -0.3478  0.1656  0.1333
 5541TIP3    H138038   5.962   5.260   0.784  0.4874 -3.2074 -1.6260
 5541TIP3    H238039   5.856   5.222   0.885  0.2196  2.7325  0.7159
 5542TIP3   OH238040   4.738   0.716   0.772 -0.0578  0.6530  0.2084
 5542TIP3    H138041   4.674   0.786   0.760  0.7113  1.4148  0.4182
 5542TIP3    H238042   4.814   0.745   0.721  0.3968  0.1320  0.5783
 5543TIP3   OH238043   1.894   5.254  11.713  0.2438  0.5315  0.0020
 5543TIP3    H138044   1.903   5.187  11.780 -2.6039 -0.2290 -0.2503
 5543TIP3    H238045   1.966   5.237  11.652 -0.1597 -2.0945  0.1372
 5544TIP3   OH238046   0.329   3.177   3.729 -0.0367 -0.2867  0.0096
 5544TIP3    H138047   0.304   3.232   3.655 -1.6813 -1.9224 -0.7361
 5544TIP3    H238048   0.341   3.238   3.802 -0.8517  1.1288 -1.0092
 5545TIP3   OH238049   3.885   4.019  11.184 -0.1737  0.5490 -0.1171
 5545TIP3    H138050   3.831   3.941  11.176  0.9456 -0.3334  0.6415
 5545TIP3    H238051   3.873   4.047  11.275 -1.1289  1.7044 -0.5749
 5546TIP3   OH238052   2.945   6.600   4.459 -0.4361 -0.2027 -0.3810
 5546TIP3    H138053   3.008   6.671   4.472 -0.6130 -0.1294  0.1208
 5546TIP3    H238054   2.997   6.520   4.466 -0.4460 -0.1512  0.3593
 5547TIP3   OH238055   0.230   2.688   0.873 -0.0529  0.0091  0.8514
 5547TIP3    H138056   0.247   2.719   0.962  0.2796  0.4944  0.6257
 5547TIP3    H238057   0.221   2.593   0.882  1.4198 -0.1269  1.2065
 5548TIP3   OH238058   5.365   3.815  15.004  0.2397  0.1227 -0.2697
 5548TIP3    H138059   5.437   3.837  14.944  0.2088  0.8470 -0.0507
 5548TIP3    H238060   5.401   3.831  15.092 -0.0702  0.1347 -0.1429
 5549TIP3   OH238061   4.214   0.110   1.307 -0.3620  0.1171  0.1910
 5549TIP3    H138062   4.304   0.079   1.311 -0.5242 -0.1961  1.9716
 5549TIP3    H238063   4.210   0.160   1.225  0.8515 -1.5729 -0.9647
 5550TIP3   OH238064   3.223   3.956  10.936  0.0522 -0.1391  0.3900
 5550TIP3    H138065   3.160   3.903  10.984  0.9177 -1.1197  0.4868
 5550TIP3    H238066   3.282   3.892  10.895  1.5762  0.7381  1.1145
 5551TIP3   OH238067   0.807   2.336  11.259 -0.5192  1.0267 -0.1288
 5551TIP3    H138068   0.809   2.297  11.172  1.5139  2.8009 -0.9739
 5551TIP3    H238069   0.795   2.430  11.243 -0.7480  1.3182  1.5469
 5552TIP3   OH238070   3.112   2.805  14.203  0.2697 -0.1025 -0.5328
 5552TIP3    H138071   3.171   2.735  14.176 -1.5080 -2.0528  0.2774
 5552TIP3    H238072   3.058   2.765  14.272 -2.4749  1.2860 -1.7250
 5553TIP3   OH238073   4.429   4.117  15.336  0.5558  0.7483 -0.5091
 5553TIP3    H138074   4.492   4.181  15.371  0.8344  0.5255 -0.5999
 5553TIP3    H238075   4.358   4.116  15.399  2.5436 -2.1449  1.9595
 5554TIP3   OH238076   6.004   2.568   2.107 -0.4244  0.5196  0.1737
 5554TIP3    H138077   6.065   2.637   2.133  0.7293 -0.2646 -0.3696
 5554TIP3    H238078   6.058   2.504   2.062 -1.2409 -1.2805  1.6044
 5555TIP3   OH238079   3.874   0.694   5.643  0.5028 -0.3288  0.3341
 5555TIP3    H138080   3.805   0.662   5.701 -0.4535  1.0936  0.0498
 5555TIP3    H238081   3.842   0.676   5.555  0.3297  0.6090  0.1922
 5556TIP3   OH238082   4.604   1.011  16.529 -0.0880 -0.3894 -0.1366
 5556TIP3    H138083   4.598   1.000  16.434 -0.4263 -0.5279 -0.0994
 5556TIP3    H238084   4.513   1.005  16.560 -0.2228  1.4848 -0.0097
 5557TIP3   OH238085   3.067   1.845   2.175  0.2146 -0.4173 -0.1360
 5557TIP3    H138086   3.119   1.923   2.154 -0.4901  0.0753 -0.0784
 5557TIP3    H238087   3.038   1.858   2.265  0.5720 -1.0219  0.0694
 5558TIP3   OH238088   6.280   3.018  15.014 -0.6848  0.8714 -0.2721
 5558TIP3    H138089   6.341   2.989  14.946 -0.0234 -0.1222  0.7075
 5558TIP3    H238090   6.271   3.112  15.000  2.3335  1.3759  0.4986
 5559TIP3   OH238091   0.594   3.231   4.798  0.3667 -0.0426 -0.1070
 5559TIP3    H138092   0.517   3.257   4.746 -0.6671 -0.9488  0.9206
 5559TIP3    H238093   0.641   3.170   4.741 -2.3493 -3.4533  0.9524
 5560TIP3   OH238094   3.162   4.463   3.310 -0.0433  0.2243 -0.4408
 5560TIP3    H138095   3.142   4.510   3.391 -0.1231  0.1576 -0.4215
 5560TIP3    H238096   3.257   4.468   3.302  0.2450 -1.8154  0.9070
 5561TIP3   OH238097   5.114   4.825  15.978 -0.0150  0.3211  0.2013
 5561TIP3    H138098   5.072   4.818  16.064 -0.6558  0.5428 -0.0951
 5561TIP3    H238099   5.183   4.758  15.981 -0.6328 -0.3223  0.5480
 5562TIP3   OH238100   6.082   2.415  15.314  0.0220  0.4059  0.0066
 5562TIP3    H138101   6.110   2.397  15.404 -0.4691 -0.6763 -0.0403
 5562TIP3    H238102   6.155   2.463  15.276  0.1096  1.1501  1.0702
 5563TIP3   OH238103   6.196   4.833   3.945 -0.2044 -0.8785  0.2601
 5563TIP3    H138104   6.225   4.812   3.856 -1.1315 -1.0555 -0.0052
 5563TIP3    H238105   6.209   4.752   3.994  0.8396 -0.6207  0.4371
 5564TIP3   OH238106   3.434   6.479  11.070 -0.3418 -0.4051  0.2087
 5564TIP3    H138107   3.355   6.517  11.109  1.3179  1.9828  1.5038
 5564TIP3    H238108   3.451   6.401  11.122 -0.8794  0.0536  1.0914
 5565TIP3   OH238109   5.704   0.622   0.286  0.0381  0.0768  0.4038
 5565TIP3    H138110   5.614   0.606   0.257 -0.3464 -0.5225  1.8587
 5565TIP3    H238111   5.729   0.704   0.243 -0.6218 -0.5574 -1.2773
 5566TIP3   OH238112   6.753   0.681  11.964  0.0814  0.1807  0.1638
 5566TIP3    H138113   6.800   0.683  12.047  1.6326 -0.7187 -0.6466
 5566TIP3    H238114   6.821   0.674  11.897 -1.1594 -0.1571 -1.1320
 5567TIP3   OH238115   0.513   3.925  15.367 -0.3200  0.6377  0.2464
 5567TIP3    H138116   0.586   3.972  15.326 -0.4739  0.5187 -0.1689
 5567TIP3    H238117   0.525   3.939  15.461  0.6355  0.0398  0.2219
 5568TIP3   OH238118   0.363   0.250  14.042  0.3611 -0.0898  0.7061
 5568TIP3    H138119   0.315   0.183  13.993  1.9890 -1.5790  1.0160
 5568TIP3    H238120   0.373   0.213  14.129  2.0522  0.1115  0.6436
 5569TIP3   OH238121   0.017   1.352   2.645 -0.3322  0.4209  0.1804
 5569TIP3    H138122   0.097   1.397   2.675 -0.7210  1.3133 -0.0913
 5569TIP3    H238123   0.041   1.315   2.560  0.8302 -2.2669  1.5524
 5570TIP3   OH238124   5.419   1.517  17.041  0.0919 -0.1453  0.3410
 5570TIP3    H138125   5.359   1.521  16.967 -0.9965  1.5426  1.2439
 5570TIP3    H238126   5.498   1.562  17.011 -0.0746 -0.0834 -0.0071
 5571TIP3   OH238127   5.834   6.663   5.468 -0.1726  0.0590 -0.1605
 5571TIP3    H138128   5.794   6.718   5.534 -0.5023  0.5767 -0.7777
 5571TIP3    H238129   5.761   6.613   5.431  0.0390 -0.3817  0.0000
 5572TIP3   OH238130   4.005   5.064  13.278  0.1637 -0.0077  0.1150
 5572TIP3    H138131   3.981   5.068  13.185  0.5470 -0.0501  0.0108
 5572TIP3    H238132   4.022   4.971  13.294 -0.7883 -0.1348  0.4641
 5573TIP3   OH238133   0.837   2.341   2.847  0.1275  0.3344 -0.0809
 5573TIP3    H138134   0.816   2.357   2.755  1.8434 -1.4908 -0.8686
 5573TIP3    H238135   0.841   2.246   2.854 -1.4535  0.3709  2.2955
 5574TIP3   OH238136   2.620   4.097  16.354  0.3484 -0.0136  0.2822
 5574TIP3    H138137   2.596   4.022  16.408  1.6704 -1.2396 -0.7330
 5574TIP3    H238138   2.537   4.132  16.322 -0.2939 -1.0287  0.7950
 5575TIP3   OH238139   3.864   6.365   1.902  0.2520 -0.4980 -0.5580
 5575TIP3    H138140   3.840   6.358   1.995 -0.6735  0.1149 -0.7371
 5575TIP3    H238141   3.946   6.414   1.902 -0.3688  0.5826 -0.1184
 5576TIP3   OH238142   4.301   0.688  12.309 -0.2004 -0.1668 -0.2601
 5576TIP3    H138143   4.309   0.782  12.326 -0.2594 -0.1122 -0.5264
 5576TIP3    H238144   4.361   0.671  12.236 -0.1057 -0.3572 -0.1394
 5577TIP3   OH238145   3.110   1.178   0.435 -0.3102  0.3033 -0.5904
 5577TIP3    H138146   3.181   1.150   0.378 -0.9337  0.9877 -1.7292
 5577TIP3    H238147   3.057   1.236   0.381 -1.0541  0.7839  0.6145
 5578TIP3   OH238148   2.193   2.392   4.578  0.0724  0.0091  0.8236
 5578TIP3    H138149   2.221   2.456   4.512  0.2194 -0.5400  0.3408
 5578TIP3    H238150   2.243   2.313   4.557 -1.5085 -0.8745  0.2165
 5579TIP3   OH238151   4.647   1.743   1.417  0.1193  0.2944 -0.3144
 5579TIP3    H138152   4.553   1.745   1.436  0.3701  0.0335  1.0480
 5579TIP3    H238153   4.688   1.733   1.502  1.5254  3.3199 -0.5155
 5580TIP3   OH238154   4.043   3.906  12.164 -0.3317 -0.1925  0.3850
 5580TIP3    H138155   4.110   3.900  12.096 -0.1940  1.7701  0.3147
 5580TIP3    H238156   4.046   3.821  12.208  1.2101 -0.6351 -0.5120
 5581TIP3   OH238157   1.350   6.278  10.736 -0.6355  0.3351 -0.2496
 5581TIP3    H138158   1.421   6.310  10.680  1.0105 -1.8315  0.4713
 5581TIP3    H238159   1.270   6.311  10.695  0.6738  1.3797 -2.1067
 5582TIP3   OH238160   6.184   3.217  14.811 -0.0048  0.1656 -0.1961
 5582TIP3    H138161   6.142   3.155  14.751 -0.9309  1.5375 -1.0310
 5582TIP3    H238162   6.250   3.261  14.757  1.7232 -1.1046  0.7884
 5583TIP3   OH238163   0.228   5.651   3.484 -0.0715  0.4985 -0.6498
 5583TIP3    H138164   0.324   5.650   3.482 -0.0163  0.8691  0.8415
 5583TIP3    H238165   0.205   5.727   3.538 -1.1705 -0.3856  0.1756
 5584TIP3   OH238166   0.480   4.381  12.603  0.3902 -0.6855 -0.5528
 5584TIP3    H138167   0.429   4.312  12.647  0.9984 -0.2888  0.8193
 5584TIP3    H238168   0.477   4.357  12.511  0.4584 -2.4893 -0.1254
 5585TIP3   OH238169   0.781   3.668   2.571  0.1195 -0.6094 -0.3522
 5585TIP3    H138170   0.728   3.614   2.629  0.0607 -0.4872 -0.2912
 5585TIP3    H238171   0.864   3.679   2.617  0.3087 -1.0587 -0.5877
 5586TIP3   OH238172   6.467   2.658   5.724 -0.4368 -0.0995 -0.4369
 5586TIP3    H138173   6.415   2.738   5.711 -0.3773  0.0716  0.3684
 5586TIP3    H238174   6.543   2.687   5.775  0.2227 -0.4379 -1.2075
 5587TIP3   OH238175   0.294   0.710   4.040  0.5636 -0.5943  0.4393
 5587TIP3    H138176   0.307   0.615   4.036 -1.6832 -0.9280 -1.0037
 5587TIP3    H238177   0.297   0.731   4.133 -0.7779 -2.4237  0.9538
 5588TIP3   OH238178   3.285   3.319   1.456 -0.4736  0.4666  0.1787
 5588TIP3    H138179   3.270   3.413   1.457 -2.1421  0.2318  0.0432
 5588TIP3    H238180   3.277   3.294   1.363 -0.7909  0.0887  0.3053
 5589TIP3   OH238181   2.181   3.507   1.646  0.5570  0.5674 -0.2636
 5589TIP3    H138182   2.182   3.592   1.603  0.2026  1.2192  0.9472
 5589TIP3    H238183   2.089   3.488   1.661  0.6529  0.1712 -0.1501
 5590TIP3   OH238184   4.546   0.657   1.540 -0.1160  0.1009 -0.6424
 5590TIP3    H138185   4.468   0.703   1.508  0.5357  1.6365 -0.1555
 5590TIP3    H238186   4.607   0.728   1.562  0.4727 -0.9639  1.3839
 5591TIP3   OH238187   5.365   5.800   2.752  0.5219 -0.1215  0.1128
 5591TIP3    H138188   5.374   5.894   2.740  1.6080 -0.3972 -1.7107
 5591TIP3    H238189   5.376   5.786   2.846  0.2674  1.5598  0.4164
 5592TIP3   OH238190   2.379   0.185  16.147  0.2897 -0.3514  0.4444
 5592TIP3    H138191   2.368   0.274  16.179  1.1713 -0.0738  0.0214
 5592TIP3    H238192   2.398   0.133  16.225 -0.7895 -0.2740  0.7598
 5593TIP3   OH238193   1.971   5.966  13.814  0.2001  0.3296 -0.0689
 5593TIP3    H138194   2.023   6.046  13.814 -0.3238  0.6942  1.2388
 5593TIP3    H238195   1.947   5.953  13.906  0.3059 -1.3527 -0.2498
 5594TIP3   OH238196   0.005   0.443   6.434  0.2002 -0.2314  0.1985
 5594TIP3    H138197   0.080   0.406   6.481 -0.3145  0.5242  1.6771
 5594TIP3    H238198  -0.019   0.521   6.484 -0.4194  0.6021 -1.3180
 5595TIP3   OH238199   2.858   6.402   1.508 -0.6611  0.3693  0.0310
 5595TIP3    H138200   2.869   6.307   1.507 -0.9985  0.3109  0.8471
 5595TIP3    H238201   2.765   6.415   1.530 -0.4278  0.8872  0.7472
 5596TIP3   OH238202   3.986   3.310  16.096 -0.2212 -0.1461 -0.0450
 5596TIP3    H138203   3.892   3.310  16.078 -0.6773  0.5801  2.1040
 5596TIP3    H238204   4.026   3.332  16.011 -2.0328  0.6511 -0.7446
 5597TIP3   OH238205   0.881   2.672   6.329  0.1634  0.5044  0.4175
 5597TIP3    H138206   0.790   2.665   6.301  0.8050  1.5283 -2.3343
 5597TIP3    H238207   0.913   2.582   6.333 -0.2458  0.2216 -1.5672
 5598TIP3   OH238208   2.413   2.180   4.648 -0.3136 -0.5374 -0.1232
 5598TIP3    H138209   2.483   2.202   4.586 -1.2755 -1.7486 -1.7284
 5598TIP3    H238210   2.443   2.099   4.690 -0.3882 -0.6123 -0.2142
 5599TIP3   OH238211   2.457   3.890  11.336  0.9393 -0.2533  0.5556
 5599TIP3    H138212   2.440   3.818  11.275  2.2052 -0.4897  0.4472
 5599TIP3    H238213   2.400   3.872  11.410  0.4106 -0.7439  0.0484
 5600TIP3   OH238214   4.918   5.651   3.079 -0.6575 -0.3947 -0.2694
 5600TIP3    H138215   4.931   5.677   3.170  0.0869 -0.9896 -0.1896
 5600TIP3    H238216   4.833   5.687   3.055 -0.0529  1.3617  0.0794
 5601TIP3   OH238217   1.085   3.967   0.263  0.1068 -0.0826 -0.4348
 5601TIP3    H138218   1.098   4.062   0.271  1.1538 -0.1228 -1.4845
 5601TIP3    H238219   1.014   3.958   0.200 -1.2087  0.0020  0.9535
 5602TIP3   OH238220   2.007   5.789   2.251  0.3207 -0.0932 -0.0855
 5602TIP3    H138221   2.054   5.865   2.216  0.2036  1.0584  2.0338
 5602TIP3    H238222   2.073   5.740   2.300  0.3928 -1.4055 -1.4369
 5603TIP3   OH238223   0.670   5.788   0.497  0.3900  0.7157 -0.4687
 5603TIP3    H138224   0.662   5.711   0.442 -0.8382 -0.1813  0.8682
 5603TIP3    H238225   0.642   5.861   0.442 -0.8523 -0.1577 -1.0391
 5604TIP3   OH238226   3.791   4.380   5.376  0.4022 -0.0698  0.0273
 5604TIP3    H138227   3.869   4.365   5.322  0.5870 -1.5631  0.6553
 5604TIP3    H238228   3.825   4.385   5.466 -0.1361  0.1367  0.2226
 5605TIP3   OH238229   4.166   3.827  11.058  0.5539  0.0043  0.0719
 5605TIP3    H138230   4.171   3.894  10.989  1.2359  2.3010  2.2159
 5605TIP3    H238231   4.255   3.793  11.066  0.8351  0.8907  0.8549
 5606TIP3   OH238232   6.688   0.659  16.202 -0.3292 -0.5797 -0.0534
 5606TIP3    H138233   6.783   0.671  16.198 -0.3395 -0.5712 -0.2784
 5606TIP3    H238234   6.669   0.650  16.295 -0.1863  0.0874  0.0484
 5607TIP3   OH238235   3.737   0.792   2.303  0.2327  0.2708  0.0163
 5607TIP3    H138236   3.676   0.866   2.292 -1.3852 -0.9538  0.3579
 5607TIP3    H238237   3.686   0.727   2.352  2.0647 -0.5443  0.9195
 5608TIP3   OH238238   6.697   0.013   1.762  0.4239 -0.4879 -0.4525
 5608TIP3    H138239   6.714   0.101   1.796 -0.0049 -0.3773 -0.5132
 5608TIP3    H238240   6.630  -0.023   1.821  0.0330 -0.4809 -0.8938
 5609TIP3   OH238241   1.524   2.042   3.186  0.5875  0.3799 -0.2536
 5609TIP3    H138242   1.565   2.126   3.164  1.5156 -0.4529 -1.9015
 5609TIP3    H238243   1.470   2.022   3.110  0.0638 -0.3320  0.3004
 5610TIP3   OH238244   3.485   6.177   5.676 -0.2608 -0.4940  0.4927
 5610TIP3    H138245   3.392   6.193   5.657 -0.1250 -1.2260 -0.9937
 5610TIP3    H238246   3.502   6.091   5.636  1.3170  0.1296 -0.2579
 5611TIP3   OH238247   6.371   3.975   2.334  0.0352  0.2223 -0.0194
 5611TIP3    H138248   6.377   3.925   2.253  0.7056  1.7059 -0.9133
 5611TIP3    H238249   6.331   4.058   2.309 -0.1941  0.5252  1.2564
 5612TIP3   OH238250   3.841   4.257  14.243 -0.4024 -0.4410 -0.1420
 5612TIP3    H138251   3.808   4.291  14.327 -1.2490 -1.1541 -0.1748
 5612TIP3    H238252   3.780   4.292  14.178 -0.5907 -1.0490 -0.2976
 5613TIP3   OH238253   0.446   0.638  12.401  0.1581  0.1379  0.2976
 5613TIP3    H138254   0.474   0.706  12.340  3.4968  1.1317  2.6685
 5613TIP3    H238255   0.512   0.569  12.391 -1.0833 -1.1268  0.5396
 5614TIP3   OH238256   2.838   2.266  12.793 -0.3470  0.0097 -0.4862
 5614TIP3    H138257   2.888   2.268  12.712  0.7842 -3.0821 -0.0296
 5614TIP3    H238258   2.747   2.256  12.765 -0.2486  1.3236 -1.3314
 5615TIP3   OH238259   5.033   6.542   4.658 -0.9518  0.1717  0.3874
 5615TIP3    H138260   5.080   6.559   4.576 -0.6708 -0.7527  0.3523
 5615TIP3    H238261   5.094   6.567   4.727 -0.9690  0.3819  0.3297
 5616TIP3   OH238262   0.233   5.575   6.546  0.1778  0.3010 -0.0620
 5616TIP3    H138263   0.307   5.600   6.491  1.6688 -2.0518  0.7230
 5616TIP3    H238264   0.258   5.603   6.634  0.3634 -0.8747  0.2739
 5617TIP3   OH238265   5.828   0.962  12.885 -0.1702  0.5568 -0.2444
 5617TIP3    H138266   5.804   0.983  12.975 -1.2453 -0.2810 -0.3209
 5617TIP3    H238267   5.758   0.998  12.832  0.8492  1.7495 -0.8521
 5618TIP3   OH238268   3.339   1.530   5.510 -0.3545  0.2588 -0.3373
 5618TIP3    H138269   3.313   1.615   5.545 -1.3966 -0.2175  0.0768
 5618TIP3    H238270   3.393   1.491   5.579 -0.9991  0.0263  0.0408
 5619TIP3   OH238271   6.530   1.852   1.675 -0.2639 -0.0681 -0.1338
 5619TIP3    H138272   6.610   1.900   1.650 -0.4886  0.9558  1.0339
 5619TIP3    H238273   6.459   1.900   1.633 -0.5250  0.8945  1.3428
 5620TIP3   OH238274   1.124   3.911  13.830 -0.2786  0.4408  0.5541
 5620TIP3    H138275   1.157   3.970  13.898 -1.0864  1.8138 -0.2048
 5620TIP3    H238276   1.187   3.919  13.759 -0.1609  0.0622  0.6178
 5621TIP3   OH238277   5.291   6.644   0.502  0.1423 -0.0741  0.2555
 5621TIP3    H138278   5.361   6.579   0.505  0.8696  0.6045 -0.8975
 5621TIP3    H238279   5.306   6.699   0.580  0.7440 -0.1008  0.1675
 5622TIP3   OH238280   3.562   6.368  14.416  0.0481  0.6553  0.0126
 5622TIP3    H138281   3.492   6.308  14.391  1.5258 -1.6876  1.1866
 5622TIP3    H238282   3.643   6.317  14.406  1.2510  1.8423  2.6758
 5623TIP3   OH238283   5.188   2.994  15.775 -0.0331 -0.4353  0.6665
 5623TIP3    H138284   5.220   2.906  15.753  0.1573 -0.2052  0.0082
 5623TIP3    H238285   5.130   3.017  15.703 -0.0656 -0.0034  0.8286
 5624TIP3   OH238286   1.404   3.929  11.840 -0.1796  0.1466 -0.4953
 5624TIP3    H138287   1.358   3.851  11.812 -0.0391 -0.4401  0.8434
 5624TIP3    H238288   1.393   3.931  11.935 -1.0091  2.2835 -0.5697
 5625TIP3   OH238289   0.309   4.522   3.294  0.1528  0.8700 -0.1016
 5625TIP3    H138290   0.395   4.527   3.253 -0.1996  2.0768 -0.7283
 5625TIP3    H238291   0.328   4.519   3.388  0.8713  1.4308 -0.2202
 5626TIP3   OH238292   1.651   5.156  17.180  0.8018 -0.2529  0.3667
 5626TIP3    H138293   1.600   5.113  17.248 -1.5961  0.4066 -0.8888
 5626TIP3    H238294   1.683   5.085  17.125  0.7115 -0.6475  0.8181
 5627TIP3   OH238295   5.282   0.743   1.626  0.3430  0.2640  0.1395
 5627TIP3    H138296   5.273   0.677   1.695 -1.8488 -1.0919 -1.3170
 5627TIP3    H238297   5.376   0.761   1.623  0.6173 -0.3248  2.7930
 5628TIP3   OH238298   1.301   5.911   3.177 -0.4336  0.2064 -0.0365
 5628TIP3    H138299   1.229   5.869   3.131 -0.0398  0.1108 -0.5785
 5628TIP3    H238300   1.336   5.843   3.235  0.5426 -0.4108 -1.2975
 5629TIP3   OH238301   5.336   6.356   2.490  0.1499 -0.3529  0.1689
 5629TIP3    H138302   5.287   6.431   2.457 -0.9249 -0.6786  0.9612
 5629TIP3    H238303   5.428   6.380   2.477 -0.1893  0.4822 -0.9035
 5630TIP3   OH238304   1.804   6.745   2.620 -0.3204 -0.1418  0.6947
 5630TIP3    H138305   1.842   6.766   2.705  0.6946 -0.2008  0.2752
 5630TIP3    H238306   1.719   6.707   2.640 -0.4196  0.5651  1.6393
 5631TIP3   OH238307   2.334   4.307  11.719 -0.0523  0.0504 -0.1090
 5631TIP3    H138308   2.405   4.266  11.669 -0.2809 -0.0003 -0.3956
 5631TIP3    H238309   2.316   4.389  11.672  0.2659  0.3852  0.3441
 5632TIP3   OH238310   1.438   0.563  11.005 -0.0906  0.2914 -0.0214
 5632TIP3    H138311   1.453   0.644  10.956 -0.2114  0.1629 -0.2725
 5632TIP3    H238312   1.460   0.585  11.095  2.0781 -0.0141 -0.4257
 5633TIP3   OH238313   3.307   3.812   4.957  0.3960 -0.3575  0.0636
 5633TIP3    H138314   3.392   3.805   4.914 -0.2538 -0.8375 -1.1948
 5633TIP3    H238315   3.323   3.783   5.046  1.1031 -2.7344 -0.7642
 5634TIP3   OH238316   4.251   4.234   0.032  0.2169  0.0152 -0.2842
 5634TIP3    H138317   4.253   4.180  -0.047 -0.3304  0.9013 -0.9176
 5634TIP3    H238318   4.181   4.297   0.016  0.5673  0.6458  0.6189
 5635TIP3   OH238319   6.399   0.919   1.623  0.6183 -0.4185  0.1483
 5635TIP3    H138320   6.384   0.988   1.558 -1.9305 -0.0101  1.0486
 5635TIP3    H238321   6.358   0.841   1.584  1.6575 -0.9230  0.0363
 5636TIP3   OH238322   2.846   4.729   2.457  0.0822 -0.7723  0.4790
 5636TIP3    H138323   2.767   4.782   2.463  0.2079 -0.7645  2.9416
 5636TIP3    H238324   2.814   4.640   2.442 -0.2788 -0.5246 -0.2863
 5637TIP3   OH238325   0.234   0.688   6.393  0.2159  0.7701 -0.0907
 5637TIP3    H138326   0.155   0.644   6.425  0.8024 -0.5436 -0.4036
 5637TIP3    H238327   0.214   0.781   6.403 -1.6380  0.5017 -0.7704
 5638TIP3   OH238328   6.661   2.962  16.905 -0.5987 -0.1724 -0.2946
 5638TIP3    H138329   6.724   2.893  16.925 -1.4636 -0.3755  2.0338
 5638TIP3    H238330   6.580   2.916  16.884 -0.2866  0.1090 -2.2958
 5639TIP3   OH238331   5.575   2.920   5.611 -0.0848  0.6704  0.2081
 5639TIP3    H138332   5.622   2.968   5.679  0.1931  0.9332 -0.1670
 5639TIP3    H238333   5.483   2.934   5.632 -0.0483 -1.0261  1.7934
 5640TIP3   OH238334   2.900   4.906  12.136  0.1511 -0.1621 -0.4898
 5640TIP3    H138335   2.876   4.818  12.106  0.2370  0.0544 -1.2216
 5640TIP3    H238336   2.990   4.917  12.106  0.4321 -0.1485  0.3536
 5641TIP3   OH238337   5.965   1.539  12.782 -0.0790  0.2198 -0.1101
 5641TIP3    H138338   5.977   1.448  12.807 -1.0250  0.3969  1.1023
 5641TIP3    H238339   5.885   1.566  12.828 -0.0283  1.5473 -0.7508
 5642TIP3   OH238340   1.653   4.897  12.187  0.5887 -0.4845 -0.4556
 5642TIP3    H138341   1.619   4.807  12.190  0.2092 -0.3109  0.7202
 5642TIP3    H238342   1.739   4.892  12.228  0.5925 -0.3205 -0.4420
 5643TIP3   OH238343   6.057   6.713  12.597 -0.9094  0.2161  0.0646
 5643TIP3    H138344   6.074   6.635  12.649 -1.5643 -0.0581 -0.1166
 5643TIP3    H238345   5.985   6.688  12.539 -0.8313  0.8163 -0.3033
 5644TIP3   OH238346   2.749   0.675  15.672 -0.4117  0.3342 -0.2997
 5644TIP3    H138347   2.662   0.669  15.632 -0.0559  1.1112 -1.2347
 5644TIP3    H238348   2.766   0.586  15.705 -1.3476  0.0458 -0.5460
 5645TIP3   OH238349   0.662   0.972   0.727  0.6450  0.2378  0.1052
 5645TIP3    H138350   0.697   0.918   0.798  0.5207  0.5064  0.3724
 5645TIP3    H238351   0.728   0.966   0.658  0.7751 -0.0114  0.2493
 5646TIP3   OH238352   2.551   2.908  12.893  0.3209 -0.5855 -1.1662
 5646TIP3    H138353   2.549   2.892  12.988  2.1165  0.4756 -0.9025
 5646TIP3    H238354   2.511   2.994  12.882  0.2150 -0.6578 -1.3456
 5647TIP3   OH238355   5.679   2.056   3.197  0.5054 -0.6285 -0.4024
 5647TIP3    H138356   5.622   2.115   3.246  1.7889 -1.6980  2.6209
 5647TIP3    H238357   5.619   2.007   3.140 -0.8988  1.6143 -0.9688
 5648TIP3   OH238358   6.350   1.894  14.016 -0.0176  0.5317  0.3179
 5648TIP3    H138359   6.334   1.800  14.028 -0.0606  0.7975  2.8782
 5648TIP3    H238360   6.272   1.925  13.971  0.5024 -0.8040 -1.6450
 5649TIP3   OH238361   4.848   6.112  13.209 -0.2794  0.4713 -0.0347
 5649TIP3    H138362   4.906   6.096  13.134 -1.1029  1.1969 -0.8519
 5649TIP3    H238363   4.907   6.133  13.281  0.5321 -0.2682 -0.4673
 5650TIP3   OH238364   2.466   5.412   2.457 -0.0226 -0.7277 -0.5835
 5650TIP3    H138365   2.484   5.419   2.551 -0.4153 -0.9624 -0.4906
 5650TIP3    H238366   2.467   5.503   2.426 -1.4048 -0.5071 -0.0602
 5651TIP3   OH238367   5.330   5.421   2.966  0.4391  0.1235  0.0420
 5651TIP3    H138368   5.371   5.454   2.886 -1.1916  2.5406  0.0875
 5651TIP3    H238369   5.241   5.397   2.939  0.5140 -1.0287  0.7510
 5652TIP3   OH238370   0.861   5.996  13.093 -0.3563 -0.0285  1.1283
 5652TIP3    H138371   0.924   6.068  13.091  1.1765 -1.2864 -1.1239
 5652TIP3    H238372   0.793   6.022  13.032  0.5685 -0.7039 -0.2540
 5653TIP3   OH238373   1.777   5.019   0.698 -0.2304  0.1992 -0.7141
 5653TIP3    H138374   1.865   5.036   0.730  1.5199 -1.3237 -4.2122
 5653TIP3    H238375   1.729   4.987   0.774  2.1147  1.2658  1.3487
 5654TIP3   OH238376   5.596   5.784  12.477 -0.2027  0.1439 -0.1129
 5654TIP3    H138377   5.548   5.731  12.413 -1.5112  0.8570  0.2605
 5654TIP3    H238378   5.552   5.768  12.560  0.2707  0.7353  0.2641
 5655TIP3   OH238379   6.395   6.239  16.450  0.0888 -0.0015 -0.2877
 5655TIP3    H138380   6.391   6.147  16.479  0.2175  0.5313  1.5800
 5655TIP3    H238381   6.331   6.283  16.506 -2.3127  0.6003 -3.2493
 5656TIP3   OH238382   5.189   0.052  14.166  0.0177 -0.1763 -0.5960
 5656TIP3    H138383   5.138  -0.021  14.131  1.2290 -0.1908 -2.4252
 5656TIP3    H238384   5.240   0.085  14.092  0.0583  2.0849  0.3431
 5657TIP3   OH238385   3.287   4.690   2.816  0.4455  0.2017  0.2468
 5657TIP3    H138386   3.213   4.747   2.799 -0.6166 -0.9290  0.9332
 5657TIP3    H238387   3.343   4.740   2.875 -1.1544  0.0435  1.9713
 5658TIP3   OH238388   3.078   4.442   1.316 -0.4474 -0.3762 -0.5223
 5658TIP3    H138389   3.145   4.379   1.292  1.4480  2.0766 -2.1482
 5658TIP3    H238390   3.033   4.463   1.234 -0.7274  0.6989 -0.1187
 5659TIP3   OH238391   2.634   0.730  13.077  0.6486 -0.0850 -0.2311
 5659TIP3    H138392   2.684   0.744  12.996  1.0015 -2.1301 -0.4240
 5659TIP3    H238393   2.699   0.699  13.139 -0.0516 -0.9697  0.0763
 5660TIP3   OH238394   5.082   0.770  10.444 -0.2287  0.3124  0.3409
 5660TIP3    H138395   4.989   0.781  10.425 -0.1808 -1.6859 -1.4661
 5660TIP3    H238396   5.097   0.676  10.439  2.0535  0.6411 -0.3160
 5661TIP3   OH238397   3.742   3.194  17.090  0.1939 -0.5048 -0.1512
 5661TIP3    H138398   3.650   3.210  17.112  0.7783  2.8219  0.4386
 5661TIP3    H238399   3.749   3.099  17.083 -2.9566 -0.9583  1.1752
 5662TIP3   OH238400   6.632   1.331  14.496  0.0043  0.1534 -0.5758
 5662TIP3    H138401   6.594   1.399  14.551 -1.1540  0.0551 -1.2367
 5662TIP3    H238402   6.713   1.370  14.463  0.4960  0.3788  0.8089
 5663TIP3   OH238403   0.086   1.459   5.825  0.0384 -0.4497 -0.1209
 5663TIP3    H138404   0.042   1.526   5.877  0.2674  0.2715 -0.8341
 5663TIP3    H238405   0.028   1.383   5.827 -1.1502  0.4192 -0.8989
 5664TIP3   OH238406   3.632   3.526  15.659  0.0771 -0.1470 -0.0235
 5664TIP3    H138407   3.640   3.621  15.670 -0.2594 -0.0411 -0.6546
 5664TIP3    H238408   3.540   3.508  15.677  0.1592 -0.3622  0.1728
 5665TIP3   OH238409   1.426   1.442   0.259  0.3276  0.3055  0.3195
 5665TIP3    H138410   1.421   1.392   0.341  0.9504 -0.6371 -0.1979
 5665TIP3    H238411   1.516   1.431   0.230  0.1588  0.7890 -0.4021
 5666TIP3   OH238412   2.418   2.156   6.331 -0.3395  0.3065 -0.6516
 5666TIP3    H138413   2.372   2.092   6.385 -2.6222  0.6340 -2.0965
 5666TIP3    H238414   2.509   2.125   6.330 -1.0955 -2.1475 -0.2418
 5667TIP3   OH238415   2.342   6.326  16.203 -0.7388  0.4278 -0.8146
 5667TIP3    H138416   2.313   6.327  16.112 -0.4598 -1.2473 -0.9542
 5667TIP3    H238417   2.374   6.415  16.219  2.3513 -0.0326 -3.4145
 5668TIP3   OH238418   3.442   5.099   3.193 -0.2866 -0.4907 -0.3553
 5668TIP3    H138419   3.521   5.048   3.214 -0.7143 -1.6788 -1.4711
 5668TIP3    H238420   3.469   5.154   3.119 -0.5453 -1.0580 -0.8808
 5669TIP3   OH238421   5.531   2.909  16.972 -0.3485  0.0330 -0.4891
 5669TIP3    H138422   5.499   2.885  17.059 -0.6924  3.3791  0.4364
 5669TIP3    H238423   5.451   2.922  16.920 -0.1455 -2.2929 -1.5177
 5670TIP3   OH238424   5.305   2.788  13.214  0.0094 -0.3535  0.2382
 5670TIP3    H138425   5.292   2.772  13.120  0.0494 -1.8978  0.4698
 5670TIP3    H238426   5.373   2.726  13.239  1.0527  1.0612  1.0107
 5671TIP3   OH238427   5.738   3.271   1.464  0.1544  0.2857 -0.4408
 5671TIP3    H138428   5.806   3.335   1.445 -0.2138  1.1230  0.9196
 5671TIP3    H238429   5.784   3.200   1.509  0.1455  0.8623  0.5002
 5672TIP3   OH238430   5.590   0.873  17.138  0.2732  0.0034 -0.1541
 5672TIP3    H138431   5.539   0.953  17.132 -0.9466 -0.5075  2.3003
 5672TIP3    H238432   5.532   0.810  17.182  1.1169 -2.3207 -2.1049
 5673TIP3   OH238433   1.651   6.264   5.502 -0.1475  0.1226 -0.1654
 5673TIP3    H138434   1.643   6.304   5.589 -2.1293 -0.8877  0.1865
 5673TIP3    H238435   1.610   6.178   5.512  0.5180 -0.4235 -1.8629
 5674TIP3   OH238436   6.686   5.687   2.844 -0.0854 -0.3170 -0.0543
 5674TIP3    H138437   6.781   5.680   2.851  0.3562  0.4824 -3.4884
 5674TIP3    H238438   6.658   5.602   2.811 -0.3403 -0.0170 -0.6135
 5675TIP3   OH238439   6.185   0.718  14.413 -0.1843 -0.5584 -0.6178
 5675TIP3    H138440   6.126   0.688  14.482  0.6183 -1.4751 -0.3075
 5675TIP3    H238441   6.264   0.745  14.460 -0.7922  1.9316 -0.8919
 5676TIP3   OH238442   2.296   0.287  12.371 -0.6757  0.5683 -0.0513
 5676TIP3    H138443   2.240   0.326  12.304 -0.3985 -1.2111 -1.3884
 5676TIP3    H238444   2.359   0.356  12.392 -0.5584  1.0859 -1.8982
 5677TIP3   OH238445   5.739   1.590  12.966  0.1973  0.0516  0.5508
 5677TIP3    H138446   5.752   1.561  13.056 -0.5888  0.7863  0.9137
 5677TIP3    H238447   5.646   1.612  12.961  0.6657  2.1373  0.1915
 5678TIP3   OH238448   3.370   3.519   0.517 -0.6660 -0.6662 -0.3400
 5678TIP3    H138449   3.411   3.483   0.596 -1.2622  0.7201  0.6578
 5678TIP3    H238450   3.433   3.503   0.447  1.2790  0.7303  0.9981
 5679TIP3   OH238451   5.598   3.374  10.539 -0.1609 -0.2939  0.5367
 5679TIP3    H138452   5.595   3.374  10.443 -1.1567  2.0358  0.5022
 5679TIP3    H238453   5.691   3.383  10.560 -0.0132  0.0924 -0.2446
 5680TIP3   OH238454   5.588   0.717   5.233  1.0182  0.1491 -0.0820
 5680TIP3    H138455   5.578   0.796   5.286 -0.0250 -0.0389  0.0309
 5680TIP3    H238456   5.612   0.749   5.146 -0.9364  0.7230 -0.4523
 5681TIP3   OH238457   3.264   2.854   1.724  0.1204  0.6537 -0.2734
 5681TIP3    H138458   3.264   2.867   1.819 -0.8346  1.5300 -0.3703
 5681TIP3    H238459   3.173   2.837   1.702  0.4374 -0.2336 -0.9646
 5682TIP3   OH238460   3.624   4.713  15.723 -0.6340  0.6085  0.4995
 5682TIP3    H138461   3.594   4.763  15.798 -1.0778 -3.2783  3.1935
 5682TIP3    H238462   3.545   4.675  15.685 -0.0961 -1.9106  1.6673
 5683TIP3   OH238463   3.875   1.638   5.345 -0.0648 -0.1140  0.2023
 5683TIP3    H138464   3.881   1.730   5.370 -0.6249 -0.3895  1.4086
 5683TIP3    H238465   3.781   1.624   5.333  0.1040 -0.2596 -1.0886
 5684TIP3   OH238466   1.995   4.513  12.070  0.1022 -0.5905 -0.1447
 5684TIP3    H138467   2.066   4.574  12.090  0.2879 -1.0798  0.7407
 5684TIP3    H238468   1.981   4.523  11.976  1.5368 -0.6963 -0.3895
 5685TIP3   OH238469   6.449   5.932  12.169  0.1592  0.3374  0.0672
 5685TIP3    H138470   6.538   5.966  12.156  0.7267 -1.0262  0.2424
 5685TIP3    H238471   6.441   5.919  12.263 -0.5274  1.2051  0.1389
 5686TIP3   OH238472   3.883   0.942   1.468  0.1064 -0.1934 -0.5124
 5686TIP3    H138473   3.932   1.024   1.462  0.0017 -0.0095  0.8736
 5686TIP3    H238474   3.835   0.937   1.386  0.6247  0.7971 -0.8967
 5687TIP3   OH238475   3.244   0.899  16.814 -0.2334 -0.4466 -0.2550
 5687TIP3    H138476   3.175   0.960  16.789 -1.1455 -1.3420  0.0006
 5687TIP3    H238477   3.240   0.830  16.747 -0.5119 -1.1974  0.5137
 5688TIP3   OH238478   0.107   1.109  16.972 -0.6595 -0.3725 -0.1937
 5688TIP3    H138479   0.058   1.109  17.054  0.9024 -0.4686  0.7875
 5688TIP3    H238480   0.095   1.197  16.936 -1.8960 -0.5338 -0.2231
 5689TIP3   OH238481   1.112   5.671   6.790 -0.0136 -0.1019  0.4635
 5689TIP3    H138482   1.033   5.637   6.831  0.5182 -0.2189  1.4085
 5689TIP3    H238483   1.084   5.694   6.701 -0.7806 -1.4561  0.3178
 5690TIP3   OH238484   0.890   4.492   5.389 -0.1261 -0.2209 -0.3846
 5690TIP3    H138485   0.891   4.401   5.419 -0.6747 -0.3713 -0.8211
 5690TIP3    H238486   0.873   4.543   5.469  1.0766 -0.4200  0.0282
 5691TIP3   OH238487   5.351   6.069   2.731  0.0614 -0.0369  0.1280
 5691TIP3    H138488   5.291   6.139   2.757  0.6213  0.1157  1.0460
 5691TIP3    H238489   5.347   6.069   2.635  0.4785  1.6533  0.0668
 5692TIP3   OH238490   6.136   6.284   1.286  0.3658  0.4306 -0.0045
 5692TIP3    H138491   6.204   6.218   1.302 -1.2145 -1.8038 -1.8111
 5692TIP3    H238492   6.055   6.243   1.316 -0.4104  2.4951  0.8773
 5693TIP3   OH238493   5.490   1.427  13.988  0.1445  0.0140  0.0634
 5693TIP3    H138494   5.563   1.435  14.049  0.6254 -0.4157 -0.4355
 5693TIP3    H238495   5.438   1.505  14.002 -0.9833 -1.0793  2.5908
 5694TIP3   OH238496   4.871   4.231   2.967 -0.0730 -0.7579  0.1395
 5694TIP3    H138497   4.893   4.155   3.020  0.4370 -0.3731  0.4952
 5694TIP3    H238498   4.892   4.205   2.877  0.7080 -0.8290  0.3310
 5695TIP3   OH238499   5.186   4.710   0.668  0.1665  0.1887 -0.1034
 5695TIP3    H138500   5.257   4.647   0.681 -0.8128 -1.4949 -2.2203
 5695TIP3    H238501   5.107   4.656   0.666 -0.9310  1.7372 -0.0819
 5696TIP3   OH238502   3.510   3.950   1.974  0.0371  0.8091 -0.0557
 5696TIP3    H138503   3.506   3.989   1.887  0.1756  1.8215  0.3807
 5696TIP3    H238504   3.515   3.855   1.958  3.0249  1.0906 -1.2364
 5697TIP3   OH238505   3.754   3.251  16.483  0.5018 -0.2124  0.2685
 5697TIP3    H138506   3.827   3.231  16.425  0.6538 -0.9414  0.6947
 5697TIP3    H238507   3.790   3.312  16.547  0.4696  0.1941 -0.0972
 5698TIP3   OH238508   6.208   5.403  16.280 -0.0800  0.0542  0.0389
 5698TIP3    H138509   6.302   5.421  16.291  0.2011 -0.8159 -0.7540
 5698TIP3    H238510   6.194   5.319  16.325 -0.4969  0.2292  0.2364
 5699TIP3   OH238511   0.664   4.892   4.682 -0.5428  0.4540  0.1422
 5699TIP3    H138512   0.721   4.945   4.737 -0.3158 -0.0406  0.3971
 5699TIP3    H238513   0.692   4.802   4.699 -0.1719  0.3121 -1.1013
 5700TIP3   OH238514   2.843   6.774   1.308  0.1371 -0.4267  0.4753
 5700TIP3    H138515   2.874   6.855   1.349 -2.5207  0.8404  0.2426
 5700TIP3    H238516   2.787   6.734   1.374 -0.9727 -0.4664 -0.4513
 5701TIP3   OH238517   6.486   3.695   4.601 -0.3107 -0.3318  0.0741
 5701TIP3    H138518   6.489   3.758   4.528  0.3813 -0.1272  0.2685
 5701TIP3    H238519   6.429   3.736   4.665  0.5373  0.3515  0.4131
 5702TIP3   OH238520   2.507   5.106  12.816  0.2115  0.0628  0.2859
 5702TIP3    H138521   2.440   5.058  12.767 -1.1009  2.6256 -0.6617
 5702TIP3    H238522   2.571   5.133  12.751 -0.8999  2.4465  0.0730
 5703TIP3   OH238523   6.739   2.716  12.663  0.1093  0.1098 -0.2975
 5703TIP3    H138524   6.797   2.790  12.681 -0.8257  0.9844 -0.7083
 5703TIP3    H238525   6.723   2.676  12.748  1.6668 -0.4462 -0.2382
 5704TIP3   OH238526   6.182   4.264   0.988 -0.5120 -0.1082  0.0113
 5704TIP3    H138527   6.216   4.322   0.919 -0.2441 -0.1310  0.1244
 5704TIP3    H238528   6.248   4.269   1.057 -1.7384  1.5402  1.1465
 5705TIP3   OH238529   4.014   2.533   4.440  0.8141 -0.1149  0.1167
 5705TIP3    H138530   3.970   2.555   4.522  1.6098  1.1724  0.2299
 5705TIP3    H238531   3.945   2.496   4.385 -0.0975  0.5498  0.7770
 5706TIP3   OH238532   2.778   2.562   3.668 -0.3369  1.0788  0.4892
 5706TIP3    H138533   2.741   2.480   3.700  1.8546 -0.0623  0.2826
 5706TIP3    H238534   2.703   2.610   3.634 -1.4240 -2.1526 -2.2585
 5707TIP3   OH238535   5.033   0.107  11.814 -0.2634  0.1928  0.1421
 5707TIP3    H138536   5.129   0.108  11.816 -0.1829  0.1192 -1.6905
 5707TIP3    H238537   5.009   0.020  11.846  0.2924  0.1220  0.3743
 5708TIP3   OH238538   4.328   2.740  13.929  0.1952 -0.0598 -0.2353
 5708TIP3    H138539   4.287   2.654  13.938  0.2605  0.0100  0.8203
 5708TIP3    H238540   4.330   2.756  13.834  1.1764 -1.7056 -0.5294
 5709TIP3   OH238541   3.369   4.520  13.474 -0.8934  0.4991  0.6587
 5709TIP3    H138542   3.341   4.448  13.417  2.0730 -0.1178 -0.1998
 5709TIP3    H238543   3.319   4.596  13.443 -2.0924 -0.6057 -0.2338
 5710TIP3   OH238544   3.550   6.753  17.037 -0.0578  0.0520  0.2318
 5710TIP3    H138545   3.616   6.817  17.007 -0.8922  0.9882  0.3453
 5710TIP3    H238546   3.514   6.792  17.116  0.0608 -1.0187  0.8282
 5711TIP3   OH238547   2.844   1.771  16.749  0.0963  0.0694  0.4154
 5711TIP3    H138548   2.795   1.736  16.674  0.6752  1.0054 -0.4164
 5711TIP3    H238549   2.889   1.848  16.715  0.1654  0.6704  1.7968
 5712TIP3   OH238550   2.559   0.450   5.158  0.3433  0.2368 -0.2029
 5712TIP3    H138551   2.522   0.372   5.198  1.7838  0.8227  2.5238
 5712TIP3    H238552   2.653   0.432   5.153  0.4770  1.1086 -1.2656
 5713TIP3   OH238553   2.632   1.432   5.558  0.0551  0.1714  0.4813
 5713TIP3    H138554   2.543   1.395   5.566  0.7379 -1.4437  1.0366
 5713TIP3    H238555   2.624   1.520   5.594 -0.9416 -0.5963  2.3038
 5714TIP3   OH238556   1.892   4.514   5.232  0.0504 -0.3377  0.3225
 5714TIP3    H138557   1.823   4.581   5.229 -1.4832 -1.8440  0.5695
 5714TIP3    H238558   1.850   4.434   5.200  1.3419 -1.5857  1.5778
 5715TIP3   OH238559   3.433   3.345   3.793 -0.5588  0.2492  0.1328
 5715TIP3    H138560   3.340   3.321   3.798 -0.1809 -1.4622 -0.5320
 5715TIP3    H238561   3.472   3.307   3.872 -0.1429 -0.4763 -0.4082
 5716TIP3   OH238562   1.799   3.481  12.094  0.7566  0.3965  0.0193
 5716TIP3    H138563   1.798   3.408  12.032 -2.6265 -0.6747  1.1278
 5716TIP3    H238564   1.781   3.441  12.179 -2.2930  2.4733  0.5103
 5717TIP3   OH238565   2.641   4.454  12.344  0.2028  0.8858 -0.0153
 5717TIP3    H138566   2.674   4.542  12.360 -2.3540  1.6065  1.9518
 5717TIP3    H238567   2.687   4.399  12.407  1.0579  0.9698 -0.5506
 5718TIP3   OH238568   6.295   0.977  13.445 -0.4325  0.8561 -0.2929
 5718TIP3    H138569   6.214   0.928  13.431 -0.1106  0.1581  0.2421
 5718TIP3    H238570   6.347   0.959  13.366  0.0147 -0.3514  0.2502
 5719TIP3   OH238571   4.259   6.605  11.960 -0.6602  0.1867 -0.7308
 5719TIP3    H138572   4.258   6.612  12.056 -0.7447 -1.3389 -0.6053
 5719TIP3    H238573   4.251   6.696  11.930 -0.0489  0.7507  0.6989
 5720TIP3   OH238574   1.259   4.353  14.063 -0.1859  0.1034 -0.4581
 5720TIP3    H138575   1.259   4.413  13.988 -1.7565  0.2964 -0.3237
 5720TIP3    H238576   1.229   4.407  14.137 -0.4935 -0.5586 -0.0933
 5721TIP3   OH238577   1.678   0.940  13.446 -0.0052 -0.1069 -0.5025
 5721TIP3    H138578   1.722   0.971  13.525  0.6109 -2.0852  0.0089
 5721TIP3    H238579   1.690   1.010  13.382 -1.0338  1.8202  1.2932
 5722TIP3   OH238580   0.997   5.918   5.108  0.5670 -0.0158 -0.2460
 5722TIP3    H138581   1.034   5.999   5.073  1.7129 -1.3604 -2.3930
 5722TIP3    H238582   1.074   5.864   5.128 -0.1589 -0.4435  1.6166
 5723TIP3   OH238583   3.809   4.528  15.808  0.2976  0.4121  0.3984
 5723TIP3    H138584   3.816   4.568  15.895 -2.3121  0.9282  0.4571
 5723TIP3    H238585   3.778   4.599  15.751 -1.5784 -0.7632 -0.1218
 5724TIP3   OH238586   6.069   1.140   1.351 -0.3568 -0.4285  0.2658
 5724TIP3    H138587   6.107   1.171   1.269 -0.9359  0.3091  0.2631
 5724TIP3    H238588   6.126   1.177   1.419 -0.4758 -0.1685  0.2270
 5725TIP3   OH238589   5.182   3.321  12.704 -0.3380  0.5917 -0.1151
 5725TIP3    H138590   5.160   3.318  12.611 -0.2634 -0.3960 -0.1035
 5725TIP3    H238591   5.104   3.357  12.746 -2.0559 -2.7785 -0.0817
 5726TIP3   OH238592   6.031   1.836  16.196 -0.1198  0.3687 -0.2700
 5726TIP3    H138593   5.999   1.778  16.265  0.3299  0.5253  0.0722
 5726TIP3    H238594   6.004   1.793  16.115 -2.6279  1.3038 -0.0110
 5727TIP3   OH238595   2.941   4.631  15.273  0.2763  0.4257  0.4616
 5727TIP3    H138596   2.866   4.572  15.261 -0.0093  1.0047 -0.6907
 5727TIP3    H238597   2.906   4.704  15.324 -0.0875  0.9521 -0.5308
 5728TIP3   OH238598   1.508   4.280  14.229 -0.4129 -0.1013 -0.2488
 5728TIP3    H138599   1.456   4.217  14.279  0.8696 -3.2108 -2.5200
 5728TIP3    H238600   1.470   4.278  14.141  1.8321 -0.4497 -1.2744
 5729TIP3   OH238601   1.972   4.186  14.010  0.5845  0.1658 -0.8230
 5729TIP3    H138602   1.910   4.133  13.960 -0.4477  1.0241 -0.5076
 5729TIP3    H238603   1.934   4.190  14.098  0.1204  2.1772 -1.0673
 5730TIP3   OH238604   3.715   3.154  13.053 -0.1874 -0.4605 -0.5466
 5730TIP3    H138605   3.758   3.096  13.115  0.3979  1.2238  0.7182
 5730TIP3    H238606   3.773   3.155  12.977  0.7028 -0.2352  0.1080
 5731TIP3   OH238607   4.263   4.185  13.410 -0.0295 -0.1433  0.0836
 5731TIP3    H138608   4.181   4.138  13.414 -0.8646  1.1123 -1.1944
 5731TIP3    H238609   4.266   4.222  13.322  1.8979 -0.1281  0.0959
 5732TIP3   OH238610   4.698   0.134   3.679 -0.1683 -0.4006  0.3527
 5732TIP3    H138611   4.717   0.198   3.611 -0.2365 -1.0143 -0.2561
 5732TIP3    H238612   4.643   0.069   3.635 -0.5700 -0.5771  1.1099
 5733TIP3   OH238613   6.537   0.178  12.529  0.1613  0.6591  0.0052
 5733TIP3    H138614   6.442   0.174  12.523  0.1145 -4.0923  0.3967
 5733TIP3    H238615   6.568   0.175  12.438 -0.1352 -0.4428 -0.0723
 5734TIP3   OH238616   1.318   3.854  14.482 -0.2571 -0.3688  0.2317
 5734TIP3    H138617   1.329   3.765  14.516 -1.7655 -0.1355  1.4691
 5734TIP3    H238618   1.357   3.910  14.549  0.5616 -0.0667 -0.4773
 5735TIP3   OH238619   5.575   4.999   4.994  0.5209  0.0505 -0.7422
 5735TIP3    H138620   5.597   5.086   5.026  0.3744 -0.3030  0.3776
 5735TIP3    H238621   5.481   4.990   5.008  0.8361 -0.9811  0.9880
 5736TIP3   OH238622   3.815   0.382  12.653  0.1188  0.3103  0.0966
 5736TIP3    H138623   3.895   0.422  12.687  0.4247 -1.4103  1.5626
 5736TIP3    H238624   3.746   0.410  12.713 -0.0831  0.4609 -0.2014
 5737TIP3   OH238625   0.902   1.991   1.929 -0.3578 -0.2378  0.2351
 5737TIP3    H138626   0.941   2.041   2.000 -0.0902 -1.1953  0.7824
 5737TIP3    H238627   0.910   1.900   1.957 -2.3641 -0.5152  0.0614
 5738TIP3   OH238628   6.698   0.101  17.066  0.5052  0.0549  0.0983
 5738TIP3    H138629   6.710   0.151  17.146  0.0428  0.8506 -0.3114
 5738TIP3    H238630   6.774   0.124  17.012 -0.1039  0.9579 -0.4025
 5739TIP3   OH238631   3.140   0.340  14.602  0.4969 -0.0148 -0.5202
 5739TIP3    H138632   3.076   0.367  14.536 -0.1359  2.2030  0.9082
 5739TIP3    H238633   3.214   0.307  14.550  0.4195  2.4970 -2.4711
 5740TIP3   OH238634   3.528   1.601   4.928  0.8079  0.3414  0.0400
 5740TIP3    H138635   3.551   1.538   4.997  2.9590  0.9824 -0.0130
 5740TIP3    H238636   3.471   1.552   4.869 -0.7978 -0.3521  2.0134
 5741TIP3   OH238637   5.587   6.259  12.251  0.2172  0.3486  0.1330
 5741TIP3    H138638   5.566   6.180  12.300  0.2598 -0.3436 -0.9181
 5741TIP3    H238639   5.643   6.228  12.180 -1.0370  1.0382 -1.2266
 5742TIP3   OH238640   4.503   3.733  15.933 -0.2443 -0.2933 -0.2118
 5742TIP3    H138641   4.574   3.670  15.949  0.3297  0.7074  1.3997
 5742TIP3    H238642   4.457   3.739  16.016 -1.3251  0.1976 -0.8202
 5743TIP3   OH238643   5.998   3.698   3.650  0.0391 -0.0536 -0.7460
 5743TIP3    H138644   6.082   3.677   3.691 -0.0520  1.5877  0.3534
 5743TIP3    H238645   5.944   3.620   3.665  1.0602 -0.7713 -0.6672
 5744TIP3   OH238646   0.047   5.820  14.519 -0.7381 -0.5402  0.1456
 5744TIP3    H138647   0.012   5.825  14.608 -0.2283  0.4672  0.3115
 5744TIP3    H238648   0.142   5.827  14.530 -0.7022  0.0981 -0.4995
 5745TIP3   OH238649   2.999   1.896   5.658 -0.1395  0.6176  0.4265
 5745TIP3    H138650   2.988   1.977   5.708  1.5141  0.8959  0.3766
 5745TIP3    H238651   3.093   1.882   5.654 -0.3934 -1.8106  1.1731
 5746TIP3   OH238652   3.437   0.074   4.775  0.2877  0.0533  0.8775
 5746TIP3    H138653   3.345   0.099   4.785 -0.2202 -0.4005 -1.9624
 5746TIP3    H238654   3.439   0.018   4.697  3.0620  0.5184  0.5088
 5747TIP3   OH238655   2.187   0.294   0.329  0.0081  0.2071 -0.0230
 5747TIP3    H138656   2.215   0.350   0.401  0.3473  0.1714 -0.1238
 5747TIP3    H238657   2.254   0.305   0.262  0.1392 -0.3971 -0.0031
 5748TIP3   OH238658   4.768   4.514   1.702  0.0440  0.1123 -0.1516
 5748TIP3    H138659   4.862   4.507   1.712  0.0086  0.9459  0.9245
 5748TIP3    H238660   4.737   4.549   1.785 -0.9555  1.8348 -1.1667
 5749TIP3   OH238661   0.589   6.222   2.543 -0.7238 -0.4660  0.3229
 5749TIP3    H138662   0.543   6.138   2.543 -0.5939 -0.5401 -0.0297
 5749TIP3    H238663   0.545   6.274   2.476 -0.0689 -0.6682 -0.2774
 5750TIP3   OH238664   6.514   2.013  11.777 -0.1999  0.1835  0.1211
 5750TIP3    H138665   6.586   2.072  11.800  0.7275 -0.8989  0.0988
 5750TIP3    H238666   6.499   2.027  11.684  0.1405  0.2576  0.0763
 5751TIP3   OH238667   6.571   4.423  15.511  0.3677 -0.3899 -1.0399
 5751TIP3    H138668   6.604   4.333  15.509  1.4504  0.0052 -2.2646
 5751TIP3    H238669   6.579   4.450  15.602 -0.4075 -1.6686 -0.5689
 5752TIP3   OH238670   3.235   0.117   0.117  0.1603 -0.4049  0.4018
 5752TIP3    H138671   3.160   0.058   0.121  0.1067 -0.2683  2.7195
 5752TIP3    H238672   3.296   0.083   0.183  1.8764 -0.1317 -0.9566
 5753TIP3   OH238673   6.556   6.045   5.766 -0.1516  0.5290 -0.0626
 5753TIP3    H138674   6.581   5.990   5.840 -0.2288  0.3026 -0.2043
 5753TIP3    H238675   6.463   6.063   5.780 -0.0351  0.9470  0.1910
 5754TIP3   OH238676   3.522   5.262  14.396  0.0003  0.0912  0.1532
 5754TIP3    H138677   3.551   5.218  14.316 -0.3607 -0.4384  0.3041
 5754TIP3    H238678   3.483   5.344  14.365  1.3546  0.6727 -0.0701
 5755TIP3   OH238679   6.375   3.710  14.206  0.0520  0.0617 -0.1924
 5755TIP3    H138680   6.414   3.736  14.122  0.6585  1.2436  0.4258
 5755TIP3    H238681   6.284   3.739  14.200  0.4095  1.2678  0.0154
 5756TIP3   OH238682   5.867   1.625   3.444  0.0364  0.5774  0.1334
 5756TIP3    H138683   5.914   1.702   3.411  0.2117  0.2264 -0.4465
 5756TIP3    H238684   5.936   1.563   3.466 -0.0576  0.9187  1.4939
 5757TIP3   OH238685   3.072   5.449  11.634  0.2195 -0.1311  0.4215
 5757TIP3    H138686   3.076   5.433  11.539 -1.7720  0.0744  0.2607
 5757TIP3    H238687   2.980   5.470  11.651  0.5813  0.0549  2.3812
 5758TIP3   OH238688   4.482   5.860  16.172 -1.0253  0.2805 -0.0559
 5758TIP3    H138689   4.448   5.777  16.206  0.4177 -0.1280  0.4558
 5758TIP3    H238690   4.568   5.837  16.135  0.5486  1.9344  2.3068
 5759TIP3   OH238691   1.374   3.125   3.134  0.4669  0.1531 -0.2795
 5759TIP3    H138692   1.327   3.123   3.218 -0.0342 -1.2307 -0.5633
 5759TIP3    H238693   1.323   3.184   3.079 -0.0390 -0.0825 -0.0731
 5760TIP3   OH238694   1.666   3.718   3.624 -0.0472  0.0162 -0.0673
 5760TIP3    H138695   1.645   3.809   3.605  0.3829  0.5519  1.8751
 5760TIP3    H238696   1.717   3.690   3.548 -0.5812  1.2348 -0.9081
 5761TIP3   OH238697   0.137   3.281   4.458  0.7440 -0.1115 -0.5582
 5761TIP3    H138698   0.042   3.274   4.471  0.9238 -0.4353  0.7722
 5761TIP3    H238699   0.164   3.194   4.428  0.4559  0.3644 -2.2936
 5762TIP3   OH238700   5.865   6.017  11.590 -0.8623  0.0358 -0.6095
 5762TIP3    H138701   5.906   5.965  11.520  0.3157  1.0785 -0.7365
 5762TIP3    H238702   5.772   5.992  11.587 -0.4018 -1.7959 -0.8632
 5763TIP3   OH238703   0.252   4.796   2.931 -0.0372 -0.4653  0.5352
 5763TIP3    H138704   0.228   4.879   2.889  0.7252 -0.2555  0.4899
 5763TIP3    H238705   0.176   4.773   2.985 -2.4753 -2.4245 -3.3221
 5764TIP3   OH238706   2.466   1.226  14.132 -0.2999 -0.0262  0.6184
 5764TIP3    H138707   2.507   1.222  14.217  1.8326  3.8075 -0.0290
 5764TIP3    H238708   2.386   1.276  14.146 -0.6010 -0.4684  0.5236
 5765TIP3   OH238709   5.227   4.284  13.602  0.3203  0.4890  0.1147
 5765TIP3    H138710   5.170   4.291  13.525  2.1993  0.7769 -1.3287
 5765TIP3    H238711   5.307   4.243  13.569  1.4846  1.3155  1.7688
 5766TIP3   OH238712   4.357   1.102   4.342  0.1436 -0.2018 -0.3012
 5766TIP3    H138713   4.303   1.107   4.421  2.1829  0.4746  1.1216
 5766TIP3    H238714   4.443   1.074   4.373  1.1236  0.4717 -2.2321
 5767TIP3   OH238715   5.889   2.537   1.132 -0.4825  0.4604 -0.0095
 5767TIP3    H138716   5.859   2.520   1.221 -1.1480  1.9456  0.0840
 5767TIP3    H238717   5.960   2.474   1.118  0.7173  1.2348  2.1393
 5768TIP3   OH238718   2.132   4.386  12.671 -0.5693  0.0927  0.6018
 5768TIP3    H138719   2.186   4.447  12.721 -0.1614  0.7144 -0.5843
 5768TIP3    H238720   2.164   4.392  12.581 -2.1603 -0.0345  0.0001
 5769TIP3   OH238721   4.572   3.371   6.297 -0.0507  0.3822 -0.6016
 5769TIP3    H138722   4.537   3.393   6.210 -0.7250 -0.3682 -0.5390
 5769TIP3    H238723   4.565   3.276   6.301  1.0137  0.3075 -0.1428
 5770TIP3   OH238724   0.083   1.953  14.347 -0.5527  0.7473 -0.4265
 5770TIP3    H138725   0.165   2.002  14.335 -0.4204  0.8097  0.6378
 5770TIP3    H238726   0.027   1.981  14.274  0.5862  0.2257 -1.5392
 5771TIP3   OH238727   1.841   2.719   5.299 -0.5161 -0.3486 -0.3263
 5771TIP3    H138728   1.765   2.684   5.253  0.5953 -1.2728 -1.5536
 5771TIP3    H238729   1.866   2.797   5.249 -2.1380  1.5345  1.5819
 5772TIP3   OH238730   3.068   0.946  15.780  0.1586  0.2989 -0.5617
 5772TIP3    H138731   3.019   0.960  15.699 -1.1804 -0.7529  0.0175
 5772TIP3    H238732   3.038   1.016  15.838 -1.3026 -0.7545  0.0348
 5773TIP3   OH238733   6.329   0.265  16.353 -0.2230 -0.1884 -0.1718
 5773TIP3    H138734   6.394   0.201  16.382 -0.1683  0.0170  0.1662
 5773TIP3    H238735   6.368   0.350  16.376  0.0912  0.0190 -1.3698
 5774TIP3   OH238736   1.302   4.478  12.988  0.2140  0.1715 -0.3544
 5774TIP3    H138737   1.261   4.473  12.901 -0.2441  0.5486 -0.1667
 5774TIP3    H238738   1.236   4.522  13.042  1.2727  1.7180 -0.2789
 5775TIP3   OH238739   3.728   6.555   2.410  0.3512 -0.5282  0.8585
 5775TIP3    H138740   3.681   6.556   2.493 -1.3192 -0.1492 -0.0436
 5775TIP3    H238741   3.678   6.613   2.353  0.0068 -2.6562 -1.1534
 5776TIP3   OH238742   5.019   4.444   3.500  0.0712  0.3265  0.1931
 5776TIP3    H138743   5.000   4.442   3.406  1.4581 -1.5792 -0.0946
 5776TIP3    H238744   5.043   4.354   3.522 -0.9573  0.5658  2.5599
 5777TIP3   OH238745   3.361   1.559  10.816  0.1415  0.4842 -0.5538
 5777TIP3    H138746   3.268   1.581  10.819  0.2102  0.8602 -1.2795
 5777TIP3    H238747   3.379   1.539  10.725  0.9104  0.9857 -0.5228
 5778TIP3   OH238748   2.770   6.276  12.027  0.3473 -0.1945 -0.3688
 5778TIP3    H138749   2.865   6.283  12.028  0.3812 -0.7727  0.3208
 5778TIP3    H238750   2.742   6.352  11.975  1.1968 -0.2783 -0.9787
 5779TIP3   OH238751   2.446   3.357   3.672  0.3562 -0.1813  0.2095
 5779TIP3    H138752   2.481   3.269   3.687 -2.0388 -1.1184  0.7794
 5779TIP3    H238753   2.462   3.404   3.754  0.2219 -0.6125  0.4840
 5780TIP3   OH238754   6.548   3.880   0.547 -0.2045 -0.0479  0.3600
 5780TIP3    H138755   6.525   3.960   0.595  1.2796  1.0067 -0.6268
 5780TIP3    H238756   6.540   3.904   0.455  0.7861 -0.8650  0.0452
 5781TIP3   OH238757   3.443   2.309   0.967  0.0547  0.4307 -0.3218
 5781TIP3    H138758   3.353   2.284   0.946  0.7669 -0.6405 -2.3706
 5781TIP3    H238759   3.445   2.314   1.063 -1.3197 -3.0624  0.0107
 5782TIP3   OH238760   3.696   4.298  16.674  0.3211 -0.0559  0.4968
 5782TIP3    H138761   3.787   4.303  16.645  0.0823  0.3202 -0.2087
 5782TIP3    H238762   3.689   4.212  16.716  0.7781 -0.4537 -0.2231
 5783TIP3   OH238763   0.429   1.535   1.590  0.6828  0.3632 -0.2447
 5783TIP3    H138764   0.339   1.559   1.567  0.1639 -0.9234  0.3500
 5783TIP3    H238765   0.444   1.576   1.675 -0.1012 -1.0917  0.6352
 5784TIP3   OH238766   4.705   1.206   5.614  0.7602 -0.1716 -0.0820
 5784TIP3    H138767   4.631   1.159   5.650 -0.4969  1.3618 -0.5336
 5784TIP3    H238768   4.757   1.233   5.690  0.7529 -1.0548  0.2470
 5785TIP3   OH238769   4.652   3.100   2.645  0.1687  0.3272 -0.3364
 5785TIP3    H138770   4.678   3.118   2.736  1.7975 -1.0894 -0.4624
 5785TIP3    H238771   4.557   3.090   2.649  0.2707 -0.4765  1.3829
 5786TIP3   OH238772   2.729   3.641   0.582 -0.0347  0.2578  0.6611
 5786TIP3    H138773   2.705   3.582   0.510 -0.7148 -1.3224  2.0882
 5786TIP3    H238774   2.765   3.718   0.540 -0.6929 -0.4853 -1.3707
 5787TIP3   OH238775   3.610   1.591  12.127  0.1715  0.1261 -0.5318
 5787TIP3    H138776   3.665   1.664  12.154  1.7041 -1.2456  0.2112
 5787TIP3    H238777   3.569   1.620  12.046  0.0173  2.1322  0.2014
 5788TIP3   OH238778   1.538   3.508   4.689 -0.5479 -0.0313 -0.1395
 5788TIP3    H138779   1.609   3.572   4.700 -0.5480 -0.1874  0.8053
 5788TIP3    H238780   1.565   3.456   4.613 -0.2643  0.7034 -0.5634
 5789TIP3   OH238781   5.157   1.054  17.051  0.5052  0.3023  0.2403
 5789TIP3    H138782   5.168   0.963  17.024 -0.2915  0.1412  0.4536
 5789TIP3    H238783   5.093   1.090  16.990 -0.1804  0.3476  0.9657
 5790TIP3   OH238784   3.764   3.715   3.566 -0.2490  0.2834  0.4220
 5790TIP3    H138785   3.691   3.689   3.509 -0.5850  0.8927  0.5701
 5790TIP3    H238786   3.725   3.778   3.627  0.8149  2.1706 -0.7595
 5791TIP3   OH238787   0.788   0.931  12.547 -0.7433  0.1235 -0.3610
 5791TIP3    H138788   0.761   1.009  12.499  1.6326  1.5552  0.4459
 5791TIP3    H238789   0.821   0.871  12.480  0.5416  1.2283 -0.7540
 5792TIP3   OH238790   6.468   0.296  14.833 -0.1254 -0.0284 -0.2764
 5792TIP3    H138791   6.543   0.278  14.776 -0.2944  2.4207 -1.3979
 5792TIP3    H238792   6.502   0.356  14.899 -0.8314  0.2995 -0.1948
 5793TIP3   OH238793   1.711   4.891   3.421  0.3279 -0.1553  0.7605
 5793TIP3    H138794   1.766   4.835   3.366  1.1111  1.9463 -0.7229
 5793TIP3    H238795   1.629   4.897   3.374 -0.7597 -2.0805  2.2398
 5794TIP3   OH238796   3.010   3.754   5.427 -0.1183 -0.7210 -0.2604
 5794TIP3    H138797   2.979   3.819   5.365  0.8907  0.3610  0.3295
 5794TIP3    H238798   2.973   3.781   5.511  2.1545  0.5183  0.4294
 5795TIP3   OH238799   5.092   2.172   1.246  0.5179  0.4254  0.1298
 5795TIP3    H138800   5.064   2.115   1.319 -3.5896  1.1529 -0.6483
 5795TIP3    H238801   5.088   2.115   1.169 -0.6913  0.9466 -0.2248
 5796TIP3   OH238802   4.396   5.935  11.746  0.5010 -0.1652 -0.1046
 5796TIP3    H138803   4.369   5.844  11.761  1.7517 -0.8085 -1.5490
 5796TIP3    H238804   4.329   5.987  11.790 -0.3672 -1.7736  0.5667
 5797TIP3   OH238805   3.471   2.127   2.718  0.3958  0.1057  0.2034
 5797TIP3    H138806   3.471   2.218   2.749 -1.6003 -0.0859  0.8689
 5797TIP3    H238807   3.401   2.124   2.653  1.8367 -0.4954 -1.4257
 5798TIP3   OH238808   3.444   5.488  16.445 -0.5235 -0.0641 -0.5011
 5798TIP3    H138809   3.390   5.531  16.379 -1.4199  2.1314  1.5358
 5798TIP3    H238810   3.533   5.497  16.412 -0.9219  1.2332 -1.3063
 5799TIP3   OH238811   1.313   4.728   4.336 -0.2148 -0.2384  0.0661
 5799TIP3    H138812   1.264   4.810   4.328  0.9392  0.4115 -0.6577
 5799TIP3    H238813   1.270   4.669   4.275 -0.8898 -0.0989  0.3898
 5800TIP3   OH238814   0.173   0.523   2.622  0.3225  0.0610 -0.0112
 5800TIP3    H138815   0.184   0.504   2.715 -2.0856 -2.5450 -0.1217
 5800TIP3    H238816   0.084   0.557   2.615  1.5085  3.3961 -1.0990
 5801TIP3   OH238817   0.493   0.956   1.503  0.1831 -0.2572 -0.2055
 5801TIP3    H138818   0.419   1.011   1.476  0.9336  0.9161  0.0497
 5801TIP3    H238819   0.518   0.909   1.423  0.6456  1.1324 -0.9190
 5802TIP3   OH238820   3.438   0.995   2.922 -0.4607  0.1538  0.1659
 5802TIP3    H138821   3.489   0.918   2.898  0.2042  0.8608 -0.7923
 5802TIP3    H238822   3.392   1.020   2.842 -1.4361  0.1980  0.7191
 5803TIP3   OH238823   2.868   1.555  13.576 -0.3996  0.3610 -0.0031
 5803TIP3    H138824   2.866   1.648  13.551  0.6997  0.4103  0.0519
 5803TIP3    H238825   2.870   1.508  13.493 -1.1923  0.3652 -0.0350
 5804TIP3   OH238826   1.287   0.755   4.813 -0.0457 -0.3468  0.4645
 5804TIP3    H138827   1.375   0.722   4.829  0.4392 -0.0825 -1.4107
 5804TIP3    H238828   1.247   0.761   4.900  1.3725 -1.5831  1.2415
 5805TIP3   OH238829   5.263   3.429   1.988  0.3643 -0.2083 -0.2432
 5805TIP3    H138830   5.339   3.397   2.037  0.7962  0.4825 -0.4481
 5805TIP3    H238831   5.301   3.470   1.910 -0.2103  0.2959 -0.2617
 5806TIP3   OH238832   4.134   2.716   1.521  0.5421 -0.5288  0.0256
 5806TIP3    H138833   4.061   2.743   1.466  2.0883  1.5465 -1.1469
 5806TIP3    H238834   4.141   2.622   1.508  0.6539 -0.1791 -3.1824
 5807TIP3   OH238835   2.957   2.683  15.477  0.4319  0.2528 -0.0249
 5807TIP3    H138836   2.877   2.708  15.525  0.5137 -0.3059  0.4086
 5807TIP3    H238837   3.021   2.750  15.500  0.4838 -0.0367  0.6952
 5808TIP3   OH238838   0.470   0.708   5.763  0.0916 -0.2156 -0.1306
 5808TIP3    H138839   0.430   0.708   5.850 -1.9795  0.2476 -1.0271
 5808TIP3    H238840   0.427   0.781   5.718  0.9387 -0.6220 -1.6305
 5809TIP3   OH238841   6.091   0.580  17.025 -0.0533  0.6211  0.2072
 5809TIP3    H138842   6.184   0.582  17.047  0.0278  0.3027 -0.0976
 5809TIP3    H238843   6.046   0.596  17.108  0.2566  0.0207  0.4976
 5810TIP3   OH238844   4.112   4.727   5.758 -0.3290 -0.6131 -0.1579
 5810TIP3    H138845   4.049   4.677   5.706 -1.4020  0.0210  0.4887
 5810TIP3    H238846   4.113   4.813   5.717  0.8520 -0.8780 -0.7336
 5811TIP3   OH238847   5.528   0.628  14.189 -0.1478  0.4975  0.2228
 5811TIP3    H138848   5.511   0.548  14.139 -1.3991  1.0260 -0.2303
 5811TIP3    H238849   5.577   0.684  14.129  0.4194  0.2304  0.4210
 5812TIP3   OH238850   3.798   6.072  17.081 -0.7133  0.2631  0.0307
 5812TIP3    H138851   3.734   6.085  17.152 -0.7095  0.2357  0.0400
 5812TIP3    H238852   3.776   6.140  17.017  0.3234  1.3772  0.7964
 5813TIP3   OH238853   4.619   3.142   2.922  0.0079 -0.0599 -0.4065
 5813TIP3    H138854   4.526   3.126   2.932  0.1509 -0.1872  0.7973
 5813TIP3    H238855   4.629   3.237   2.924  0.1498 -0.0772  2.0764
 5814TIP3   OH238856   2.064   2.381   3.621  0.2215  0.3525  0.4692
 5814TIP3    H138857   2.007   2.412   3.691 -1.0731 -1.0323  0.0832
 5814TIP3    H238858   2.013   2.395   3.541  0.3039 -1.0810  0.1385
 5815TIP3   OH238859   0.465   4.764  15.033  0.1346 -0.4884  0.6252
 5815TIP3    H138860   0.416   4.829  14.981  0.1522  0.4731  1.7792
 5815TIP3    H238861   0.407   4.744  15.106  0.7417 -0.6930  1.0515
 5816TIP3   OH238862   3.358   5.269  11.998  0.2967 -0.0610 -0.2633
 5816TIP3    H138863   3.348   5.245  12.090  1.1670  2.1655  0.4988
 5816TIP3    H238864   3.444   5.234  11.973  0.1414 -0.5111 -0.1593
 5817TIP3   OH238865   4.276   5.379  14.970  0.1185 -0.5929 -0.1524
 5817TIP3    H138866   4.292   5.466  14.933  2.0909 -1.5295 -1.7170
 5817TIP3    H238867   4.349   5.365  15.029 -0.7037 -0.8454  0.8283
 5818TIP3   OH238868   3.738   3.602   4.713 -0.2613  0.2872 -0.0762
 5818TIP3    H138869   3.757   3.616   4.806 -2.1938  0.8402  0.2672
 5818TIP3    H238870   3.767   3.683   4.671 -1.4992  0.9997  0.3981
 5819TIP3   OH238871   5.898   3.350  16.646  0.1231 -0.5839  0.0808
 5819TIP3    H138872   5.853   3.365  16.729  1.1391 -0.3014  0.5931
 5819TIP3    H238873   5.971   3.411  16.647  0.5815 -1.1013 -0.6910
 5820TIP3   OH238874   2.412   6.684   0.709  0.1419  0.5542 -0.2815
 5820TIP3    H138875   2.395   6.778   0.717 -0.7529  0.5330 -1.6372
 5820TIP3    H238876   2.459   6.675   0.626 -1.4724 -0.3737 -1.1345
 5821TIP3   OH238877   3.117   2.601   1.029  0.2559 -0.1709 -0.0915
 5821TIP3    H138878   3.178   2.606   1.103 -0.3502 -0.3275  0.4184
 5821TIP3    H238879   3.118   2.509   1.002 -1.7007 -0.7351  1.5782
 5822TIP3   OH238880   1.435   4.177   3.102  0.5053 -0.0878  0.3917
 5822TIP3    H138881   1.477   4.102   3.061 -0.8969 -1.4120  1.2550
 5822TIP3    H238882   1.441   4.160   3.196  0.4148  1.0319  0.6158
 5823TIP3   OH238883   4.150   6.334  16.995  0.3994  0.0670  0.3761
 5823TIP3    H138884   4.240   6.338  17.026  0.1119  1.3025  1.1675
 5823TIP3    H238885   4.104   6.280  17.059  0.1238  1.3467  1.2913
 5824TIP3   OH238886   3.823   5.486   0.497 -0.1649 -0.0876  0.5182
 5824TIP3    H138887   3.728   5.490   0.493 -0.1380  0.1224  0.0811
 5824TIP3    H238888   3.844   5.523   0.583 -0.4226  0.9005  0.1744
 5825TIP3   OH238889   4.166   1.271   4.164  0.3385 -0.8174  0.2330
 5825TIP3    H138890   4.222   1.319   4.104  0.5820 -0.7792  0.4888
 5825TIP3    H238891   4.226   1.218   4.217 -0.0228 -2.7403 -1.1691
 5826TIP3   OH238892   4.358   4.999  10.813 -0.7895 -0.0959  0.1499
 5826TIP3    H138893   4.349   4.947  10.893  0.2840 -0.3181  0.1435
 5826TIP3    H238894   4.382   5.086  10.844 -0.9758 -0.0271  0.0975
 5827TIP3   OH238895   2.835   2.700  13.532  0.1861  0.1173  0.7313
 5827TIP3    H138896   2.839   2.794  13.550  0.6200  0.3715 -0.5785
 5827TIP3    H238897   2.768   2.667  13.591 -0.3504  1.3487  0.8373
 5828TIP3   OH238898   5.023   1.326   2.740 -0.2677 -0.4377  0.0761
 5828TIP3    H138899   4.976   1.365   2.814 -1.7108 -1.1571 -0.4154
 5828TIP3    H238900   5.091   1.273   2.781  0.3768  0.9073  0.8008
 5829TIP3   OH238901   5.418   0.846   3.603  0.0744  0.2491  0.0096
 5829TIP3    H138902   5.424   0.880   3.692  1.1572 -2.1020  0.9104
 5829TIP3    H238903   5.420   0.924   3.548  2.1759  1.6783  1.9379
 5830TIP3   OH238904   6.318   4.374   1.472  0.6886 -0.0731  0.5741
 5830TIP3    H138905   6.379   4.414   1.534  0.9520  0.6286 -0.1263
 5830TIP3    H238906   6.255   4.327   1.527  3.8307 -3.9180  1.3363
 5831TIP3   OH238907   3.536   6.115   0.745 -0.3729  0.1666  0.5445
 5831TIP3    H138908   3.498   6.201   0.767 -0.2409  1.3184 -3.0914
 5831TIP3    H238909   3.489   6.088   0.667  1.5324 -1.7567 -0.0196
 5832TIP3   OH238910   5.658   5.481   6.035 -0.5053 -0.2795 -0.0937
 5832TIP3    H138911   5.572   5.513   6.062 -0.6060  0.8370 -1.6593
 5832TIP3    H238912   5.718   5.552   6.058 -0.0514 -0.8451  0.5183
 5833TIP3   OH238913   0.794   3.433   3.474  0.3446  0.6429  0.1877
 5833TIP3    H138914   0.881   3.415   3.509 -0.0992 -0.1325  0.9601
 5833TIP3    H238915   0.736   3.426   3.550 -0.6103 -0.7137 -0.6214
 5834TIP3   OH238916   4.148   2.563  14.281  0.0581  0.1457 -0.1590
 5834TIP3    H138917   4.179   2.653  14.285 -4.5451  1.9475  1.8125
 5834TIP3    H238918   4.210   2.514  14.335  1.3898  2.6284  0.7204
 5835TIP3   OH238919   4.343   4.790   4.081  0.1520 -0.0794  0.3797
 5835TIP3    H138920   4.371   4.714   4.031 -2.0669 -0.4062 -0.4684
 5835TIP3    H238921   4.251   4.801   4.059  0.7356  3.9346 -0.9608
 5836TIP3   OH238922   0.699   4.859   0.241  0.3787 -0.1868  0.1830
 5836TIP3    H138923   0.673   4.942   0.202  2.2194 -0.0514 -0.8650
 5836TIP3    H238924   0.701   4.797   0.167 -1.1518 -1.2661  0.9728
 5837TIP3   OH238925   1.297   3.063  13.494  0.6905 -0.2080  0.3781
 5837TIP3    H138926   1.361   2.999  13.525 -0.0202  0.3846  3.3537
 5837TIP3    H238927   1.279   3.117  13.570 -0.7930  1.8253 -1.3213
 5838TIP3   OH238928   6.262   1.072   0.577  0.3519 -0.2312 -0.2792
 5838TIP3    H138929   6.292   0.984   0.600 -0.9811 -0.0486  2.5299
 5838TIP3    H238930   6.177   1.058   0.535  1.1869 -0.3559 -2.0131
 5839TIP3   OH238931   2.762   1.203   5.722 -0.2225  0.7498  0.3013
 5839TIP3    H138932   2.836   1.151   5.689 -1.0011 -0.0132 -0.3083
 5839TIP3    H238933   2.748   1.270   5.655 -0.4870  0.4797  0.0773
 5840TIP3   OH238934   5.222   1.129   2.925  0.4688  0.3877  0.2822
 5840TIP3    H138935   5.225   1.202   2.987 -0.8891 -0.8597  1.9190
 5840TIP3    H238936   5.252   1.053   2.975  0.7607 -0.4077 -1.0338
 5841TIP3   OH238937   0.140   0.925   1.871  0.3121 -0.1194  0.1482
 5841TIP3    H138938   0.109   0.987   1.805 -0.4796  0.5797  1.1553
 5841TIP3    H238939   0.190   0.860   1.821  1.6406  1.5984 -0.8852
 5842TIP3   OH238940   0.411   2.097   1.667  0.7808 -0.3558  0.0158
 5842TIP3    H138941   0.337   2.105   1.608  1.4576  0.7090 -0.7266
 5842TIP3    H238942   0.477   2.049   1.616  1.2639  0.3153 -0.0089
 5843TIP3   OH238943   6.493   4.537  16.497 -0.3774  0.0007 -0.3554
 5843TIP3    H138944   6.441   4.548  16.418 -0.7398  3.2483  0.2238
 5843TIP3    H238945   6.428   4.528  16.567 -0.1155  0.3009 -0.0719
 5844TIP3   OH238946   0.144   5.260   1.302 -0.5815 -0.8184  0.3301
 5844TIP3    H138947   0.060   5.303   1.318  0.0488  0.2720  0.7701
 5844TIP3    H238948   0.120   5.170   1.278 -1.9031 -0.3328 -0.2785
 5845TIP3   OH238949   0.117   5.285  14.131  0.2782  0.0843 -1.1277
 5845TIP3    H138950   0.166   5.367  14.121  1.7386 -0.9085 -2.5922
 5845TIP3    H238951   0.108   5.251  14.041  0.1138 -1.5847 -0.5167
 5846TIP3   OH238952   4.673   5.113  16.413 -0.5534  0.2454 -0.4382
 5846TIP3    H138953   4.740   5.168  16.454  1.7852 -1.4730 -1.7157
 5846TIP3    H238954   4.640   5.166  16.340 -0.6210  1.1037  0.1965
 5847TIP3   OH238955   0.840   6.215  12.035  0.2447 -0.6804 -0.1055
 5847TIP3    H138956   0.923   6.172  12.055 -0.4199 -2.1399 -0.4325
 5847TIP3    H238957   0.854   6.306  12.064  0.4983 -1.8107  3.8908
 5848TIP3   OH238958   2.839   4.965  15.110 -0.5366  0.6437  0.2068
 5848TIP3    H138959   2.878   4.921  15.186  0.4634  0.4928 -0.3657
 5848TIP3    H238960   2.884   5.049  15.107 -1.6788  1.2867  0.6670
 5849TIP3   OH238961   4.138   3.659  16.171 -0.4314  0.5903 -0.0719
 5849TIP3    H138962   4.049   3.693  16.164 -0.3175  0.9389  0.1530
 5849TIP3    H238963   4.133   3.591  16.237 -0.3974  1.0786  0.4429
 5850TIP3   OH238964   0.555   4.490   3.187 -0.7274 -0.2441 -0.3530
 5850TIP3    H138965   0.607   4.545   3.129 -2.0071  1.5564  0.0814
 5850TIP3    H238966   0.603   4.491   3.270  0.4936 -1.8476 -0.9915
 5851TIP3   OH238967   3.150   4.650  15.677  0.9616  0.1311 -0.1506
 5851TIP3    H138968   3.201   4.731  15.681 -1.5007  1.9321 -2.0632
 5851TIP3    H238969   3.070   4.670  15.727  0.9564 -1.6903  0.6405
 5852TIP3   OH238970   6.763   6.308   3.453  0.4179 -0.1278  0.0412
 5852TIP3    H138971   6.780   6.236   3.514 -0.6152  1.3253  2.1616
 5852TIP3    H238972   6.670   6.327   3.463  0.0209 -0.3311 -2.6371
 5853TIP3   OH238973   4.058   1.920   1.316 -0.7510  0.7921 -0.4304
 5853TIP3    H138974   4.142   1.895   1.354 -0.0011 -3.5103 -3.9974
 5853TIP3    H238975   3.993   1.888   1.379  0.3872 -1.3135 -0.2360
 5854TIP3   OH238976   4.917   1.559   5.906  0.5791  0.4733  0.3507
 5854TIP3    H138977   4.971   1.488   5.873  0.8532  0.9835 -0.3120
 5854TIP3    H238978   4.827   1.527   5.897  0.6325  0.6853 -1.1092
 5855TIP3   OH238979   6.526   5.908   2.864 -0.3931 -0.0217  0.2186
 5855TIP3    H138980   6.479   5.919   2.781 -0.2616 -0.3149  0.1066
 5855TIP3    H238981   6.564   5.820   2.859 -0.3442 -0.0201  0.5687
 5856TIP3   OH238982   1.877   1.759   2.136  0.3124 -0.7810 -0.0260
 5856TIP3    H138983   1.883   1.838   2.083 -0.9140  0.1955  1.2286
 5856TIP3    H238984   1.955   1.760   2.191  0.2412 -0.3607  0.0708
 5857TIP3   OH238985   1.533   6.414   3.372 -0.6121  0.3066  0.3286
 5857TIP3    H138986   1.549   6.320   3.375 -2.2074 -0.0932 -1.7191
 5857TIP3    H238987   1.609   6.450   3.325  0.1578  0.1243  1.3940
 5858TIP3   OH238988   0.591   3.123  16.263  0.7866 -0.3659  0.2581
 5858TIP3    H138989   0.564   3.208  16.226 -0.7038 -1.6611 -1.8784
 5858TIP3    H238990   0.681   3.112  16.232 -0.2291 -1.1521 -2.7928
 5859TIP3   OH238991   5.300   0.216  11.795 -0.2541 -0.0576 -0.0928
 5859TIP3    H138992   5.349   0.289  11.757  1.3700 -0.5762  0.9194
 5859TIP3    H238993   5.352   0.139  11.774  0.1150 -0.4871  2.1741
 5860TIP3   OH238994   5.935   1.617   0.916 -0.0425 -0.6097  0.2520
 5860TIP3    H138995   5.855   1.649   0.876  0.1202 -0.4723  0.0351
 5860TIP3    H238996   5.936   1.656   1.003  0.9671  1.3260 -0.5740
 5861TIP3   OH238997   5.359   0.856  15.818  1.0177  0.2341 -0.0856
 5861TIP3    H138998   5.285   0.797  15.836 -0.0522  1.1293 -1.4237
 5861TIP3    H238999   5.432   0.796  15.800  0.3147 -0.6876  0.0015
 5862TIP3   OH239000   0.995   0.233   5.110 -0.1629 -0.2527  0.0341
 5862TIP3    H139001   1.062   0.180   5.155  0.2099 -0.2217 -0.4791
 5862TIP3    H239002   0.949   0.171   5.054 -1.9402 -0.7042  1.8669
 5863TIP3   OH239003   6.054   6.320  16.295  0.0687  0.4782  0.4805
 5863TIP3    H139004   6.014   6.306  16.381  1.0365  3.3531  1.5426
 5863TIP3    H239005   6.140   6.356  16.315  0.4388  0.9436 -1.7146
 5864TIP3   OH239006   6.017   3.233  15.479 -0.1453  0.5500  0.3062
 5864TIP3    H139007   5.988   3.314  15.523 -1.5838  0.4592 -0.4160
 5864TIP3    H239008   5.944   3.173  15.489 -0.5695  0.5291 -2.1963
 5865TIP3   OH239009   3.462   6.103   4.915  0.4679 -0.6326  0.2442
 5865TIP3    H139010   3.388   6.072   4.967  0.6144 -0.8525  0.3190
 5865TIP3    H239011   3.528   6.127   4.980  2.0201 -4.1337  0.1668
 5866TIP3   OH239012   1.785   4.744   3.138  0.0169  0.1251 -0.7648
 5866TIP3    H139013   1.867   4.704   3.109 -0.5392 -0.6730 -1.2661
 5866TIP3    H239014   1.725   4.671   3.150 -0.0529  0.4859  1.5756
 5867TIP3   OH239015   0.316   3.253  16.000  0.3169 -0.5131  0.3702
 5867TIP3    H139016   0.399   3.234  16.044  0.8239 -1.4530 -0.9492
 5867TIP3    H239017   0.313   3.192  15.927 -1.0597  0.2296 -0.2253
 5868TIP3   OH239018   0.149   6.626  14.618 -0.2729  0.2283  1.3590
 5868TIP3    H139019   0.226   6.610  14.672 -1.8514 -1.4242  3.2673
 5868TIP3    H239020   0.142   6.722  14.616  1.8949  0.4315  0.9527
 5869TIP3   OH239021   5.342   0.162   4.559 -0.7244 -0.4455  0.0247
 5869TIP3    H139022   5.296   0.158   4.476  0.5551  1.6610 -0.8635
 5869TIP3    H239023   5.408   0.230   4.547  0.9663 -1.6024  2.0583
 5870TIP3   OH239024   3.246   5.693  15.129  0.0647  0.2342  0.1855
 5870TIP3    H139025   3.302   5.617  15.144 -0.7626 -0.3180  0.5733
 5870TIP3    H239026   3.292   5.765  15.172  0.7687 -0.0807 -0.0184
 5871TIP3   OH239027   3.202   2.376  12.865 -0.5086  0.1062 -0.2244
 5871TIP3    H139028   3.195   2.385  12.960  0.3571  0.2342 -0.1673
 5871TIP3    H239029   3.294   2.390  12.846 -0.2004 -2.2103 -0.8297
 5872TIP3   OH239030   4.676   3.993  15.567 -0.5581  0.7092  0.4840
 5872TIP3    H139031   4.694   3.969  15.658  0.5697  0.6776  0.2682
 5872TIP3    H239032   4.591   3.954  15.548  0.4384 -1.7195  0.6481
 5873TIP3   OH239033   2.177   2.038  13.206 -0.1210 -0.7160  0.1776
 5873TIP3    H139034   2.212   2.062  13.292  1.2889 -0.5669 -0.4005
 5873TIP3    H239035   2.093   1.996  13.225  0.4336 -1.2383  1.6795
 5874TIP3   OH239036   2.912   3.520   5.935  0.2276 -0.0909 -0.1292
 5874TIP3    H139037   2.918   3.442   5.990 -0.7597 -0.0918  0.0087
 5874TIP3    H239038   2.855   3.579   5.985 -0.7408 -0.1153 -1.1561
 5875TIP3   OH239039   0.020   3.638   0.111  0.6156  0.4985  0.4143
 5875TIP3    H139040  -0.045   3.669   0.048  1.6814  1.4766 -0.2360
 5875TIP3    H239041  -0.007   3.676   0.194 -0.7277 -0.6976  0.5706
 5876TIP3   OH239042   4.928   2.154   3.775  0.1492  0.1385  0.5452
 5876TIP3    H139043   4.927   2.234   3.828  1.5108  0.8494 -0.4323
 5876TIP3    H239044   4.888   2.180   3.692  0.4156 -0.2444  0.2965
 5877TIP3   OH239045   2.331   3.361  13.344 -0.0165  0.4825  0.2946
 5877TIP3    H139046   2.354   3.441  13.391 -0.1879 -0.0134  1.2379
 5877TIP3    H239047   2.367   3.290  13.397  0.3209 -0.0677 -0.6412
 5878TIP3   OH239048   3.029   3.348   1.923 -0.7937 -0.8452 -0.4195
 5878TIP3    H139049   2.997   3.349   2.013 -1.5534  2.7653 -0.5715
 5878TIP3    H239050   3.027   3.256   1.898 -1.6852 -1.8514  2.8342
 5879TIP3   OH239051   1.168   3.318  13.289 -0.1605  0.2451 -0.3514
 5879TIP3    H139052   1.246   3.291  13.241  0.6191 -1.8890  1.9029
 5879TIP3    H239053   1.098   3.265  13.252  0.0894 -0.1272 -0.2940
 5880TIP3   OH239054   5.087   0.686   6.355 -0.3088 -0.0784  0.1467
 5880TIP3    H139055   5.077   0.779   6.377  0.5685  0.3693 -1.1988
 5880TIP3    H239056   5.023   0.641   6.410 -2.4914  1.5659 -0.8949
 5881TIP3   OH239057   4.380   2.035  17.193 -0.4297 -0.6209 -0.2836
 5881TIP3    H139058   4.475   2.024  17.194 -0.5554 -1.7205 -0.1721
 5881TIP3    H239059   4.347   1.975  17.260 -1.0485  1.4899  1.4229
 5882TIP3   OH239060   6.008   1.106  11.551  0.4634 -0.4419  0.1117
 5882TIP3    H139061   6.042   1.196  11.550  1.3548 -0.7392  1.3750
 5882TIP3    H239062   6.061   1.060  11.485 -1.4296  0.3867 -2.1483
 5883TIP3   OH239063   5.921   4.236   4.026  0.8455  0.3133  0.2175
 5883TIP3    H139064   5.937   4.310   3.968 -0.5958 -0.5223 -1.3740
 5883TIP3    H239065   6.007   4.212   4.060  1.8864  0.4189 -2.1627
 5884TIP3   OH239066   1.993   1.860   4.416 -0.2750 -0.4660  0.1678
 5884TIP3    H139067   1.915   1.825   4.458  0.4363 -0.3782  1.6441
 5884TIP3    H239068   2.066   1.819   4.464  0.5707  0.0485 -0.6475
 5885TIP3   OH239069   5.480   5.859   4.014 -0.7066 -0.3787  0.2370
 5885TIP3    H139070   5.527   5.841   3.933 -0.1156  0.1393  0.4551
 5885TIP3    H239071   5.545   5.901   4.071 -0.6837 -2.0099  1.5079
 5886TIP3   OH239072   6.717   4.675  12.709  0.5523 -0.3158 -0.5754
 5886TIP3    H139073   6.710   4.770  12.717 -1.0256 -0.3466 -1.1594
 5886TIP3    H239074   6.706   4.658  12.616 -2.5087 -1.2169 -0.1850
 5887TIP3   OH239075   2.898   6.149   2.144  0.0337  0.6442  0.2747
 5887TIP3    H139076   2.946   6.093   2.082 -0.6393 -0.9342  1.1184
 5887TIP3    H239077   2.961   6.217   2.167  2.7021 -2.3178  2.7294
 5888TIP3   OH239078   3.139   1.778  13.336 -0.1431 -0.3236 -0.2422
 5888TIP3    H139079   3.181   1.777  13.422  0.3509 -0.2166 -0.4803
 5888TIP3    H239080   3.045   1.777  13.355 -0.0442 -1.6509  0.2894
 5889TIP3   OH239081   1.922   2.699   2.728 -0.3964 -0.1022  0.4200
 5889TIP3    H139082   1.887   2.785   2.705 -0.4475 -0.4535 -0.9111
 5889TIP3    H239083   1.863   2.637   2.686  0.7655 -0.7462 -0.3125
 5890TIP3   OH239084   1.112   6.571  11.897 -0.0080  0.0956  0.2119
 5890TIP3    H139085   1.069   6.554  11.981  0.7281  2.1227  1.0863
 5890TIP3    H239086   1.206   6.574  11.919  0.2422 -0.0074 -0.8186
 5891TIP3   OH239087   3.896   6.313  16.399 -0.4846 -0.3926 -0.2880
 5891TIP3    H139088   3.844   6.309  16.480 -0.2044  0.5602 -0.0498
 5891TIP3    H239089   3.976   6.265  16.420  1.0386  2.5334  1.1404
 5892TIP3   OH239090   6.586   0.627   4.485  0.3591 -0.3705 -0.2283
 5892TIP3    H139091   6.538   0.704   4.515  0.5537 -0.3169 -0.0542
 5892TIP3    H239092   6.674   0.659   4.467  0.9692 -0.8999  1.5935
 5893TIP3   OH239093   5.393   4.931  13.827  0.5410  0.0885  0.1013
 5893TIP3    H139094   5.351   4.880  13.758  0.3910  0.5356 -0.1437
 5893TIP3    H239095   5.323   4.987  13.861  0.4723 -0.5153  1.0015
 5894TIP3   OH239096   6.289   2.648   0.165 -0.0365 -0.2347  0.0807
 5894TIP3    H139097   6.381   2.637   0.185  0.5264  2.1898 -0.8302
 5894TIP3    H239098   6.255   2.705   0.234 -0.7930 -0.8338  0.2243
 5895TIP3   OH239099   4.322   4.022   2.191  0.0926 -0.2796  0.4728
 5895TIP3    H139100   4.378   4.072   2.132  0.8956 -1.0531  0.5642
 5895TIP3    H239101   4.370   4.021   2.274 -1.6267  1.9610  1.6249
 5896TIP3   OH239102   2.149   2.212   1.759  0.7824  0.9332 -0.2495
 5896TIP3    H139103   2.231   2.260   1.753  0.4657  1.4221 -0.8682
 5896TIP3    H239104   2.100   2.238   1.680  0.7227 -0.6573 -0.7779
 5897TIP3   OH239105   5.588   4.061   2.085 -0.6089  0.6896  0.3649
 5897TIP3    H139106   5.537   3.983   2.109 -1.8684  2.0759  2.5754
 5897TIP3    H239107   5.666   4.056   2.140  0.3168  0.0282 -0.9504
 5898TIP3   OH239108   0.171   5.677   6.017  0.3381 -0.1738 -0.2392
 5898TIP3    H139109   0.093   5.715   6.058  0.5089  0.3584 -0.3912
 5898TIP3    H239110   0.141   5.647   5.931 -0.2656 -2.2526  0.6423
 5899TIP3   OH239111   0.864   0.631   1.866 -0.2483 -0.3221  0.3000
 5899TIP3    H139112   0.825   0.587   1.791 -0.5388  0.6329 -0.1195
 5899TIP3    H239113   0.871   0.723   1.840  1.2886 -0.2806  0.7730
 5900TIP3   OH239114   6.405   1.751   4.219 -0.3494 -0.4914 -0.1010
 5900TIP3    H139115   6.421   1.727   4.311  1.5531 -2.4039 -0.8493
 5900TIP3    H239116   6.358   1.835   4.224 -0.0283 -0.3787  2.6007
 5901TIP3   OH239117   4.203   6.135   0.864  0.1046 -0.2337 -0.0584
 5901TIP3    H139118   4.184   6.128   0.771  1.6928  0.7666 -0.4809
 5901TIP3    H239119   4.257   6.059   0.884  2.6610  1.2756 -0.7772
 5902TIP3   OH239120   0.887   1.787  17.050  0.3609  0.4340 -0.0871
 5902TIP3    H139121   0.862   1.843  16.976 -1.3032 -0.2398 -0.0762
 5902TIP3    H239122   0.837   1.822  17.124 -3.1636 -2.6838 -0.6590
 5903TIP3   OH239123   6.471   4.599   2.568 -0.0695  0.4016 -1.0208
 5903TIP3    H139124   6.388   4.645   2.561  0.0057  0.5465 -0.9787
 5903TIP3    H239125   6.528   4.661   2.615  0.5821  1.0130 -2.5555
 5904TIP3   OH239126   2.007   3.889   4.828  0.1036  0.2109  0.0249
 5904TIP3    H139127   2.070   3.881   4.757  0.5827 -2.7029  0.6288
 5904TIP3    H239128   2.059   3.920   4.903  0.9326 -2.1411  0.5096
 5905TIP3   OH239129   6.447   3.354   5.961  0.0120  0.2330  0.5803
 5905TIP3    H139130   6.445   3.449   5.971 -0.8110  0.2318  0.5135
 5905TIP3    H239131   6.382   3.321   6.023 -0.8387 -0.1691 -0.4783
 5906TIP3   OH239132   2.116   3.104   3.238 -0.1204 -0.6515 -0.3786
 5906TIP3    H139133   2.050   3.126   3.173 -0.6231  1.5202  0.7738
 5906TIP3    H239134   2.066   3.085   3.318  0.5817 -0.1142  0.2050
 5907TIP3   OH239135   1.780   0.986  13.699 -0.2045  0.3416  0.3600
 5907TIP3    H139136   1.799   1.053  13.764  0.4709  0.0713  0.4532
 5907TIP3    H239137   1.754   0.909  13.750 -1.3385  0.6372  0.2406
 5908TIP3   OH239138   2.594   4.126   1.299 -0.4682 -0.0581  0.6422
 5908TIP3    H139139   2.509   4.083   1.299 -0.4446 -0.1418 -0.4721
 5908TIP3    H239140   2.654   4.063   1.338 -0.7369 -0.3869  0.5204
 5909TIP3   OH239141   2.502   6.259  11.923 -0.8594 -0.3087  0.6695
 5909TIP3    H139142   2.541   6.346  11.912 -0.5939 -0.3739  1.0855
 5909TIP3    H239143   2.433   6.272  11.988 -0.7746 -0.4267  0.7815
 5910TIP3   OH239144   6.019   0.172  10.990  0.1799  0.0488 -0.4614
 5910TIP3    H139145   6.089   0.166  10.924  0.8504 -1.8492  0.3284
 5910TIP3    H239146   5.949   0.221  10.947  1.8020  1.6268 -1.4432
 5911TIP3   OH239147   2.704   1.641   2.062 -0.2725 -0.1360  0.0464
 5911TIP3    H139148   2.620   1.596   2.062 -1.2468  1.6067  0.6593
 5911TIP3    H239149   2.733   1.637   1.971 -0.9602 -0.8509 -0.1473
 5912TIP3   OH239150   4.602   4.110  12.140 -0.1947  0.4713 -0.6909
 5912TIP3    H139151   4.635   4.165  12.069 -1.4720  1.2607 -0.7024
 5912TIP3    H239152   4.586   4.171  12.212 -2.0631  0.2306 -0.8541
 5913TIP3   OH239153   2.043   0.625  16.940  0.9188  0.0431 -0.3113
 5913TIP3    H139154   2.029   0.719  16.930  0.7661 -0.0769 -1.2855
 5913TIP3    H239155   1.959   0.592  16.974  0.3290  0.0053 -1.7266
 5914TIP3   OH239156   6.775   3.631  10.828 -0.4192 -0.8914 -0.1244
 5914TIP3    H139157   6.683   3.607  10.834 -0.4903 -0.5601  0.0999
 5914TIP3    H239158   6.775   3.723  10.804 -0.1622 -0.5754  1.0000
 5915TIP3   OH239159   2.303   0.066   3.297 -0.2025 -0.2787 -0.3380
 5915TIP3    H139160   2.238   0.070   3.227 -0.5515 -0.4480 -0.0270
 5915TIP3    H239161   2.302   0.155   3.335 -0.9656 -0.5440  0.2977
 5916TIP3   OH239162   4.029   1.224  13.529  0.0463 -0.1010  0.2795
 5916TIP3    H139163   4.096   1.220  13.462  0.4646  0.0635  0.6779
 5916TIP3    H239164   3.947   1.202  13.484  0.5649 -1.7825  0.0937
 5917TIP3   OH239165   3.476   6.080  15.821 -0.3495 -0.1882  0.0757
 5917TIP3    H139166   3.565   6.104  15.848 -0.5743  1.6902 -0.7541
 5917TIP3    H239167   3.445   6.024  15.892  1.0012  0.2258  1.0476
 5918TIP3   OH239168   4.470   6.268   1.919 -0.2067 -0.4705  0.0979
 5918TIP3    H139169   4.393   6.305   1.963 -0.4231 -0.3264 -0.3858
 5918TIP3    H239170   4.535   6.259   1.988 -0.6643 -0.6104  0.5191
 5919TIP3   OH239171   3.840   5.199  10.571  0.3757  0.0573  0.1364
 5919TIP3    H139172   3.791   5.117  10.556  1.6488 -1.2107  2.3654
 5919TIP3    H239173   3.785   5.267  10.533 -1.0407 -1.7571 -1.2579
 5920TIP3   OH239174   0.711   2.342  13.772 -0.2335  0.3314 -0.0252
 5920TIP3    H139175   0.659   2.303  13.702  0.2688  0.0320 -0.2395
 5920TIP3    H239176   0.776   2.395  13.726 -0.1547  0.4532  0.2288
 5921TIP3   OH239177   1.228   0.905  14.374 -0.0805 -0.6968 -0.0322
 5921TIP3    H139178   1.213   0.992  14.337  0.9916 -1.0368 -1.3733
 5921TIP3    H239179   1.211   0.914  14.467  3.0826  1.7843  0.4659
 5922TIP3   OH239180   3.067   5.633   2.886 -0.5503  0.5904 -0.3117
 5922TIP3    H139181   3.070   5.623   2.790 -0.0426 -0.0089 -0.2351
 5922TIP3    H239182   2.978   5.665   2.903 -0.9258 -0.1071 -0.9145
 5923TIP3   OH239183   3.158   1.161  14.928  0.0512 -0.1394  0.4074
 5923TIP3    H139184   3.162   1.111  14.846  2.1390  1.8842 -0.8727
 5923TIP3    H239185   3.230   1.127  14.981  3.0885  2.7309 -1.4380
 5924TIP3   OH239186   4.409   6.323  15.374 -0.3783 -0.0839 -0.3067
 5924TIP3    H139187   4.448   6.324  15.287  0.6568  1.7865  0.1287
 5924TIP3    H239188   4.364   6.408  15.381 -1.0884 -0.5192  0.7108
 5925TIP3   OH239189   4.736   0.658  13.031 -0.4135 -0.0353 -0.1668
 5925TIP3    H139190   4.659   0.635  12.978 -1.1494 -0.7847  1.1512
 5925TIP3    H239191   4.750   0.581  13.087 -0.8130  1.3575  1.9764
 5926TIP3   OH239192   2.396   3.444   4.270  0.3130 -0.2708  0.0841
 5926TIP3    H139193   2.490   3.451   4.256  0.1550  0.2011 -0.7957
 5926TIP3    H239194   2.387   3.382   4.342  1.2232 -2.1660 -1.3331
 5927TIP3   OH239195   4.207   4.339   0.805 -0.1682  0.4112 -0.6369
 5927TIP3    H139196   4.210   4.434   0.818  1.9663  0.6878 -2.4474
 5927TIP3    H239197   4.120   4.323   0.767 -0.2281  1.7989 -1.1532
 5928TIP3   OH239198   2.566   1.421   3.589 -0.5029 -0.3920  0.6705
 5928TIP3    H139199   2.527   1.453   3.670 -1.7107  1.1592 -0.4572
 5928TIP3    H239200   2.584   1.500   3.538  0.2713 -1.3222 -0.5544
 5929TIP3   OH239201   5.879   2.077   4.734  0.5510 -0.0410 -0.2719
 5929TIP3    H139202   5.950   2.139   4.747  1.2950 -0.8359 -0.4108
 5929TIP3    H239203   5.799   2.125   4.757  1.3637 -0.0314  3.0201
 5930TIP3   OH239204   4.611   3.465  13.178 -0.2625  0.0024  1.2398
 5930TIP3    H139205   4.676   3.534  13.185 -0.8003  0.6537  0.0855
 5930TIP3    H239206   4.658   3.385  13.203  0.8234  0.5374  0.9573
 5931TIP3   OH239207   0.684   1.339  14.242 -0.2477  0.2114  0.3447
 5931TIP3    H139208   0.669   1.407  14.307  2.1884  0.1137  1.0887
 5931TIP3    H239209   0.758   1.371  14.190  1.1929 -1.9640  0.9337
 5932TIP3   OH239210   1.455   6.045  13.782  0.8391  0.4177 -0.4228
 5932TIP3    H139211   1.506   6.091  13.716  1.1982  0.0709 -0.3942
 5932TIP3    H239212   1.377   6.016  13.737  0.0425  2.0386 -0.1682
 5933TIP3   OH239213   3.820   1.191  14.755  0.5120  0.0549 -0.1082
 5933TIP3    H139214   3.803   1.182  14.849  0.0743  0.4858 -0.1392
 5933TIP3    H239215   3.872   1.114  14.733  0.1583 -0.3352  0.3813
 5934TIP3   OH239216   3.130   3.084  13.423 -0.1042 -0.6346 -0.4432
 5934TIP3    H139217   3.176   3.028  13.485  0.0580 -1.0238 -0.9096
 5934TIP3    H239218   3.197   3.144  13.390 -0.5830  0.9337  1.2333
 5935TIP3   OH239219   3.521   6.273   3.805 -0.0963 -0.2351  0.4972
 5935TIP3    H139220   3.535   6.254   3.712  0.3419 -1.1904  0.7535
 5935TIP3    H239221   3.436   6.317   3.808 -0.4504 -0.8554 -0.2754
 5936TIP3   OH239222   5.760   6.104   1.065 -0.4941  0.1171 -0.9184
 5936TIP3    H139223   5.821   6.031   1.080  0.6668  1.3369  0.4894
 5936TIP3    H239224   5.775   6.128   0.973 -1.3168 -1.7465 -1.5985
 5937TIP3   OH239225   3.654   5.133  14.166 -0.4936  0.2307 -0.1458
 5937TIP3    H139226   3.742   5.127  14.128 -0.3342  0.5218  0.1789
 5937TIP3    H239227   3.606   5.189  14.105 -0.7439 -0.7337 -0.8571
 5938TIP3   OH239228   6.539   4.495  14.818 -0.1868 -0.4463 -0.1701
 5938TIP3    H139229   6.565   4.566  14.876 -2.3419  0.5764 -0.3587
 5938TIP3    H239230   6.592   4.509  14.739  2.1518 -1.3582  1.1601
 5939TIP3   OH239231   3.022   2.495   2.814 -0.4469  0.0774 -0.6321
 5939TIP3    H139232   2.950   2.437   2.841  1.0393 -1.9539 -0.8340
 5939TIP3    H239233   3.045   2.465   2.727 -0.6332  2.0625 -1.4258
 5940TIP3   OH239234   1.405   2.300  15.104  0.5366  0.1766  0.2944
 5940TIP3    H139235   1.452   2.342  15.177  1.1055 -0.0482  0.0669
 5940TIP3    H239236   1.367   2.373  15.055  0.0299  0.3220  0.8963
 5941TIP3   OH239237   4.664   2.590   0.968  0.4303 -0.1522  0.2249
 5941TIP3    H139238   4.694   2.680   0.959 -1.8560  1.0024  2.6256
 5941TIP3    H239239   4.688   2.566   1.058  0.2813 -1.6628 -0.1069
 5942TIP3   OH239240   3.525   0.202   3.697 -0.9846 -0.2995  0.5155
 5942TIP3    H139241   3.620   0.211   3.686 -0.7070 -1.4952  1.6429
 5942TIP3    H239242   3.495   0.162   3.616 -0.5569  0.2171  0.0960
 5943TIP3   OH239243   1.192   3.624  12.098 -0.0111 -0.0016  0.2013
 5943TIP3    H139244   1.211   3.530  12.098 -2.4910 -0.5770 -0.3235
 5943TIP3    H239245   1.142   3.638  12.178 -3.2694 -0.0691 -1.6414
 5944TIP3   OH239246   1.740   4.587  14.296  0.3109 -0.4682 -0.1684
 5944TIP3    H139247   1.737   4.639  14.216 -2.5186 -0.3900 -0.1339
 5944TIP3    H239248   1.808   4.628  14.349  1.8581 -0.1806 -2.2705
 5945TIP3   OH239249   1.832   6.616  11.202  0.1009  0.1105  0.2663
 5945TIP3    H139250   1.848   6.695  11.150  0.2018 -0.2495 -0.2625
 5945TIP3    H239251   1.775   6.644  11.273  2.0714  1.2029  1.5238
 5946TIP3   OH239252   0.806   3.604   1.004  0.1983  0.8003 -0.7449
 5946TIP3    H139253   0.843   3.613   0.916  0.4110  0.6760 -0.6689
 5946TIP3    H239254   0.880   3.578   1.058  0.2800  1.8724 -0.3348
 5947TIP3   OH239255   0.260   0.935  12.308  0.0400  0.1152 -0.4686
 5947TIP3    H139256   0.316   0.926  12.386  0.6283  2.0741 -0.6222
 5947TIP3    H239257   0.172   0.947  12.343  0.2926  0.9251 -0.0914
 5948TIP3   OH239258   3.503   1.014   4.793  0.6344 -0.1907 -0.1095
 5948TIP3    H139259   3.495   0.937   4.737  0.1834  0.4670 -0.9741
 5948TIP3    H239260   3.435   1.074   4.762  0.3894  0.2030  1.1366
 5949TIP3   OH239261   3.602   4.027   5.441  0.3214 -0.3758  0.1577
 5949TIP3    H139262   3.511   4.014   5.415  0.1552  0.0037  0.5417
 5949TIP3    H239263   3.633   4.100   5.387 -0.0988  0.5781  1.1765
 5950TIP3   OH239264   0.273   4.750   3.485 -0.2758 -0.1867  0.2776
 5950TIP3    H139265   0.364   4.780   3.481 -0.4040  0.1208 -1.7336
 5950TIP3    H239266   0.248   4.760   3.577  1.7457 -0.4018  0.9050
 5951TIP3   OH239267   5.377   2.654   4.118  0.0805  0.1921 -0.0467
 5951TIP3    H139268   5.375   2.602   4.198 -0.7835  0.8600  0.3824
 5951TIP3    H239269   5.413   2.738   4.145  2.7796 -0.5634 -0.9993
 5952TIP3   OH239270   0.694   1.606  11.208 -0.1141  0.4278  0.4497
 5952TIP3    H139271   0.676   1.697  11.231  0.2675  0.4310  0.7417
 5952TIP3    H239272   0.609   1.562  11.216 -0.2667  0.7245  0.4695
 5953TIP3   OH239273   2.156   6.509   4.587 -0.1896 -0.2033  0.3881
 5953TIP3    H139274   2.201   6.494   4.671  2.4304 -0.5769 -0.9707
 5953TIP3    H239275   2.216   6.474   4.522 -2.7442 -1.1778 -1.6243
 5954TIP3   OH239276   3.488   5.515   3.399 -0.0917 -0.5840 -0.3299
 5954TIP3    H139277   3.522   5.508   3.488 -1.1389 -1.3774  0.0261
 5954TIP3    H239278   3.547   5.576   3.355 -0.3429  0.8803  1.2789
 5955TIP3   OH239279   3.109   3.202   0.068 -0.5586  0.0923  0.7583
 5955TIP3    H139280   3.198   3.222   0.039 -0.7899 -0.9066 -0.7485
 5955TIP3    H239281   3.105   3.107   0.071 -1.6788  0.1194  0.5015
 5956TIP3   OH239282   1.666   2.421   2.129  0.3297  0.3685 -0.0317
 5956TIP3    H139283   1.619   2.408   2.046  1.4685 -2.4823 -0.3650
 5956TIP3    H239284   1.758   2.427   2.104  0.5763  0.7618  0.9376
 5957TIP3   OH239285   0.775   3.290  14.664  0.5801  0.0916  0.0274
 5957TIP3    H139286   0.855   3.241  14.643  2.0721  2.9149 -1.4857
 5957TIP3    H239287   0.765   3.280  14.759  2.5563 -0.5818  0.2176
 5958TIP3   OH239288   5.463   0.037  16.288 -0.0169  0.0828  0.4441
 5958TIP3    H139289   5.400   0.001  16.226  0.2774 -0.0642  0.2299
 5958TIP3    H239290   5.482  -0.035  16.347  0.1641  0.0424  0.3380
 5959TIP3   OH239291   0.246   3.648   5.560  0.1315  0.3460 -0.1348
 5959TIP3    H139292   0.259   3.597   5.640 -3.2817 -1.3534 -0.4950
 5959TIP3    H239293   0.300   3.603   5.495  0.4933 -0.2031  0.5259
 5960TIP3   OH239294   5.057   1.169  13.531 -0.3472  0.1005  0.0455
 5960TIP3    H139295   5.050   1.102  13.600  1.2424  0.2876  0.4316
 5960TIP3    H239296   5.148   1.165  13.503 -0.2226  2.0735  0.0432
 5961TIP3   OH239297   2.382   6.347  12.199 -0.9159  0.1190  0.3954
 5961TIP3    H139298   2.431   6.404  12.140 -2.4705  1.2022  0.0784
 5961TIP3    H239299   2.334   6.407  12.256 -2.2650 -0.8414  0.3353
 5962TIP3   OH239300   5.631   0.521  16.557  0.2915  0.0183  0.2887
 5962TIP3    H139301   5.724   0.528  16.578  0.6425  2.3492 -1.6378
 5962TIP3    H239302   5.622   0.435  16.515  2.0422  0.6470 -1.4872
 5963TIP3   OH239303   4.546   6.173   3.981 -0.5900  0.5562 -0.0187
 5963TIP3    H139304   4.621   6.141   3.932 -0.6060 -1.3919  1.1478
 5963TIP3    H239305   4.470   6.148   3.928 -0.4991  0.7698 -0.2500
 5964TIP3   OH239306   4.380   1.056   3.986  0.1629 -0.3757  0.2237
 5964TIP3    H139307   4.417   0.968   3.975 -0.3990 -0.6812  0.7403
 5964TIP3    H239308   4.374   1.090   3.897  1.7400 -0.2927  0.1220
 5965TIP3   OH239309   0.781   3.755   1.547  0.3940  0.3013  0.1326
 5965TIP3    H139310   0.853   3.728   1.604 -0.2566 -1.0920  0.3437
 5965TIP3    H239311   0.741   3.830   1.592  0.0536 -0.6089  1.3955
 5966TIP3   OH239312   3.727   0.831  11.314 -0.2687 -0.1506  0.6180
 5966TIP3    H139313   3.783   0.831  11.237 -2.8440  3.4560 -1.5273
 5966TIP3    H239314   3.780   0.875  11.381  0.9346 -0.6924  0.0679
 5967TIP3   OH239315   5.417   0.207   2.348 -0.2653 -0.4668  0.2931
 5967TIP3    H139316   5.493   0.198   2.290  0.5680 -0.5072  1.3721
 5967TIP3    H239317   5.453   0.240   2.430 -1.6312  1.0822  0.3226
 5968TIP3   OH239318   5.516   6.063  12.425  0.1644  0.0774 -0.3217
 5968TIP3    H139319   5.561   5.978  12.429  1.1755  0.6114 -0.1649
 5968TIP3    H239320   5.473   6.071  12.510  0.5161 -0.0435 -0.1276
 5969TIP3   OH239321   1.295   6.723   4.076  0.1740  0.2134  0.4366
 5969TIP3    H139322   1.200   6.718   4.083  0.1415 -0.3021 -0.3463
 5969TIP3    H239323   1.313   6.732   3.983  1.0128 -3.2220  0.1284
 5970TIP3   OH239324   0.096   0.464   5.082 -0.0818  0.2927  0.1711
 5970TIP3    H139325   0.190   0.467   5.094 -0.1735  1.8633  0.7744
 5970TIP3    H239326   0.081   0.507   4.998 -0.2151 -0.7716 -0.3662
 5971TIP3   OH239327   1.144   4.987   0.490 -0.0809  0.4527 -0.3484
 5971TIP3    H139328   1.161   4.978   0.584 -2.8982 -4.2633  0.0732
 5971TIP3    H239329   1.053   5.017   0.485 -0.0383  0.4059 -1.5623
 5972TIP3   OH239330   2.602   2.840   1.891  0.4736 -0.0333 -0.0060
 5972TIP3    H139331   2.643   2.898   1.827  1.2601 -0.7356 -0.1693
 5972TIP3    H239332   2.512   2.829   1.860  0.7099  0.0194 -0.7275
 5973TIP3   OH239333   5.285   1.271   1.699 -0.0557 -0.0865 -0.3168
 5973TIP3    H139334   5.362   1.310   1.740  0.6838 -1.1510 -0.6599
 5973TIP3    H239335   5.305   1.177   1.693 -1.7994 -0.5598  0.5416
 5974TIP3   OH239336   5.555   4.631  16.056 -0.1320 -0.6328  0.3112
 5974TIP3    H139337   5.551   4.723  16.030  1.0397 -0.4209  0.8139
 5974TIP3    H239338   5.635   4.598  16.015  0.1980 -1.0498  1.2766
 5975TIP3   OH239339   1.315   5.786  11.430 -0.1189 -0.1422  0.4234
 5975TIP3    H139340   1.275   5.701  11.412  1.1316 -0.4290 -1.3042
 5975TIP3    H239341   1.402   5.780  11.390  0.0824  1.8762  0.4583
 5976TIP3   OH239342   6.722   5.881  16.320  0.3979 -0.1046  0.4852
 5976TIP3    H139343   6.748   5.790  16.330  0.7530 -0.1326 -0.5793
 5976TIP3    H239344   6.736   5.920  16.406 -2.4479 -1.6946  1.8068
 5977TIP3   OH239345   5.867   4.196   1.986  0.0373  0.5352  0.4127
 5977TIP3    H139346   5.788   4.222   1.938 -0.4209 -0.5957  0.5298
 5977TIP3    H239347   5.861   4.101   1.993  1.1808  0.4820  0.8417
 5978TIP3   OH239348   1.871   3.438   4.517  0.3708  0.2174  0.6966
 5978TIP3    H139349   1.938   3.428   4.449 -0.3158  2.0416 -0.3150
 5978TIP3    H239350   1.885   3.364   4.575  2.2732 -0.3018 -0.3355
 5979TIP3   OH239351   3.958   2.123  15.955  0.5413  0.2090 -0.1277
 5979TIP3    H139352   3.887   2.168  15.909 -2.2700  0.1446  3.6582
 5979TIP3    H239353   3.997   2.190  16.011 -0.0903 -0.8229  1.6264
 5980TIP3   OH239354   3.374   3.523   1.021  0.2346 -0.9483  0.3931
 5980TIP3    H139355   3.434   3.572   0.965 -0.1932 -1.1270 -0.2324
 5980TIP3    H239356   3.294   3.514   0.968  0.3432 -2.4134  0.4417
 5981TIP3   OH239357   3.098   5.142   3.792 -0.2177  0.2573  0.1594
 5981TIP3    H139358   3.082   5.049   3.775 -0.4712  0.1284  1.0529
 5981TIP3    H239359   3.188   5.156   3.762 -0.1038 -0.3281  0.2140
 5982TIP3   OH239360   4.663   1.099  12.672  0.2568 -0.1005  0.0733
 5982TIP3    H139361   4.712   1.119  12.752 -1.5086 -2.9535  2.0405
 5982TIP3    H239362   4.695   1.013  12.645 -0.6976 -0.1142 -1.0827
 5983TIP3   OH239363   3.931   5.062   3.835  0.0359  0.6514 -0.3704
 5983TIP3    H139364   3.837   5.050   3.821  0.0217  2.5858 -2.4366
 5983TIP3    H239365   3.970   5.050   3.748  1.5534  1.2537  0.1949
 5984TIP3   OH239366   2.572   5.581  11.856 -0.3927  0.1145 -0.4447
 5984TIP3    H139367   2.631   5.650  11.825  0.4311 -0.0897  0.5732
 5984TIP3    H239368   2.607   5.501  11.817  0.1575 -0.0349  0.3279
 5985TIP3   OH239369   1.133   0.170  17.030  0.0070  0.3010  0.2413
 5985TIP3    H139370   1.115   0.253  17.073 -1.4944  0.6762 -1.0571
 5985TIP3    H239371   1.047   0.137  17.003  0.5639 -1.6398  0.6236
 5986TIP3   OH239372   1.492   1.169   5.651 -0.2531 -0.6390  0.1582
 5986TIP3    H139373   1.540   1.248   5.675  0.4911 -0.6614 -1.1710
 5986TIP3    H239374   1.415   1.170   5.708  1.0662 -0.3634  2.0332
 5987TIP3   OH239375   2.675   0.121   5.731 -0.1117  0.5393 -0.2103
 5987TIP3    H139376   2.600   0.066   5.710  0.7390 -0.1350 -1.6673
 5987TIP3    H239377   2.711   0.083   5.810  0.4266 -1.0234 -1.1650
 5988TIP3   OH239378   6.263   1.463   2.648  0.2254  0.0728 -0.3208
 5988TIP3    H139379   6.192   1.526   2.642  0.5820  0.3651 -1.8300
 5988TIP3    H239380   6.319   1.497   2.718  0.2339  1.2572 -0.8873
 5989TIP3   OH239381   1.521   2.587   1.168 -0.7994 -0.3574 -0.2806
 5989TIP3    H139382   1.443   2.642   1.175 -0.5763 -0.1666  0.9595
 5989TIP3    H239383   1.495   2.503   1.206 -0.8673 -0.8448 -1.3489
 5990TIP3   OH239384   1.083   3.740   4.884  0.1483  0.3217 -0.4155
 5990TIP3    H139385   1.058   3.719   4.794  1.9421 -0.6253 -0.7414
 5990TIP3    H239386   1.110   3.656   4.921  0.0613  0.8179  0.8151
 5991TIP3   OH239387   5.283   4.433   0.376  0.0288  0.1616 -0.1708
 5991TIP3    H139388   5.339   4.356   0.376 -1.6483 -1.1377  0.3097
 5991TIP3    H239389   5.246   4.436   0.288 -0.9186 -0.4137  0.1842
 5992TIP3   OH239390   6.602   1.065  15.344  0.6551  0.0206 -0.0546
 5992TIP3    H139391   6.539   1.114  15.396  0.1943  1.5548 -1.9479
 5992TIP3    H239392   6.686   1.108  15.360  0.9765 -0.9981  1.1896
 5993TIP3   OH239393   0.102   3.238  10.306  0.5500 -0.1629  0.0490
 5993TIP3    H139394   0.194   3.215  10.291  0.1500 -0.9353 -1.3800
 5993TIP3    H239395   0.106   3.312  10.367  2.0198 -1.4524  1.6097
 5994TIP3   OH239396   0.734   3.603  14.935  0.1416 -0.0429  0.1892
 5994TIP3    H139397   0.794   3.668  14.971 -0.4438  2.0276 -2.2756
 5994TIP3    H239398   0.781   3.520  14.944  3.0887  1.3560 -0.8479
 5995TIP3   OH239399   3.786   3.035  16.813  0.3795 -0.1757 -0.1041
 5995TIP3    H139400   3.708   3.087  16.831 -0.1562 -1.5275  1.8420
 5995TIP3    H239401   3.790   3.029  16.718 -0.4949  1.9420 -0.3189
 5996TIP3   OH239402   5.323   1.660  16.790  0.6829  0.5876  0.0128
 5996TIP3    H139403   5.367   1.606  16.725  0.7026  0.4566  0.1342
 5996TIP3    H239404   5.286   1.733  16.740  1.6620  1.1001  0.0033
 5997TIP3   OH239405   4.669   6.558   4.537  0.3255 -0.3204 -1.5450
 5997TIP3    H139406   4.745   6.503   4.558 -0.7518 -1.2548  0.1283
 5997TIP3    H239407   4.706   6.645   4.522  1.7340 -0.7120 -0.5777
 5998TIP3   OH239408   2.589   6.657  15.299  0.0720 -0.6735 -0.6612
 5998TIP3    H139409   2.669   6.666  15.247  0.9320  0.5002  0.8030
 5998TIP3    H239410   2.569   6.563  15.295  1.4174 -0.9708 -1.1749
 5999TIP3   OH239411   2.221   2.140   2.154  0.3448  0.5392 -0.3541
 5999TIP3    H139412   2.170   2.093   2.088 -0.2504 -0.8772  1.0626
 5999TIP3    H239413   2.307   2.151   2.113 -0.1372  0.0911 -1.5381
 6000TIP3   OH239414   3.287   2.210   3.079  0.2116  0.3765  0.7446
 6000TIP3    H139415   3.358   2.268   3.107  0.5672 -0.0175  0.6710
 6000TIP3    H239416   3.248   2.255   3.004  1.1399  0.0501  0.0448
 6001TIP3   OH239417   4.750   5.125   2.369  0.4601 -0.2755 -0.5552
 6001TIP3    H139418   4.725   5.216   2.382 -1.2546 -0.6531 -1.0699
 6001TIP3    H239419   4.831   5.130   2.318  0.8196  0.9572  0.0886
 6002TIP3   OH239420   3.013   3.055  17.016  1.0298 -0.0838 -0.2381
 6002TIP3    H139421   2.959   3.126  17.053 -0.9792 -2.3564  1.5122
 6002TIP3    H239422   3.103   3.083  17.031  0.2940  1.7372  1.1459
 6003TIP3   OH239423   6.073   4.881   5.333  0.5494 -0.4409  0.3361
 6003TIP3    H139424   6.166   4.898   5.319  1.0907 -0.2189  3.5873
 6003TIP3    H239425   6.037   4.967   5.357 -0.4489 -0.5978 -0.5470
 6004TIP3   OH239426   5.924   1.700  14.939  0.1169 -0.0291  0.3034
 6004TIP3    H139427   6.016   1.701  14.911  0.2291 -0.8326  0.6092
 6004TIP3    H239428   5.885   1.775  14.895  0.6214 -0.4092 -0.8504
 6005TIP3   OH239429   2.404   5.770  11.407 -0.1462 -0.9994  0.0521
 6005TIP3    H139430   2.369   5.781  11.496  0.1456 -2.3105  0.3489
 6005TIP3    H239431   2.495   5.745  11.420  0.5738  1.0640 -0.6875
 6006TIP3   OH239432   6.438   5.192   3.021  0.5074  0.6722 -0.4180
 6006TIP3    H139433   6.455   5.238   3.104 -1.3333  0.8716 -0.1093
 6006TIP3    H239434   6.386   5.254   2.970 -0.1580 -0.2460 -0.8753
 6007TIP3   OH239435   4.122   0.669  15.224 -0.4552 -0.4300  0.1771
 6007TIP3    H139436   4.039   0.659  15.272 -1.3787  2.0106 -0.7595
 6007TIP3    H239437   4.096   0.707  15.140  1.6956  1.0494  0.1285
 6008TIP3   OH239438   3.475   0.175  14.733 -0.3373 -0.3632 -0.1910
 6008TIP3    H139439   3.399   0.138  14.688 -0.0830  0.3758 -1.2631
 6008TIP3    H239440   3.476   0.267  14.707 -1.3594  0.6694  2.9481
 6009TIP3   OH239441   0.195   4.320  12.957  0.6959 -0.0815  0.3654
 6009TIP3    H139442   0.277   4.368  12.971  1.1840 -0.8007 -0.0081
 6009TIP3    H239443   0.129   4.388  12.945  1.0403  0.5282  1.7281
 6010TIP3   OH239444   6.214   3.673  15.505  0.5255 -0.3452  0.5022
 6010TIP3    H139445   6.242   3.753  15.548 -0.4745 -0.8125  2.0927
 6010TIP3    H239446   6.144   3.638  15.561 -2.5565  0.2098 -2.6434
 6011TIP3   OH239447   4.765   0.538   1.873 -0.3017 -0.1837 -0.0584
 6011TIP3    H139448   4.714   0.484   1.812  0.2352  0.5337 -1.1832
 6011TIP3    H239449   4.702   0.562   1.941 -0.5116 -2.3205  0.5709
 6012TIP3   OH239450   6.565   6.504  14.969 -0.2469  0.5751 -0.4309
 6012TIP3    H139451   6.656   6.494  14.940  0.7281 -1.8264  2.9061
 6012TIP3    H239452   6.514   6.500  14.888  2.4096 -1.6606 -2.1812
 6013TIP3   OH239453   4.615   6.606   3.793 -0.2625 -0.2419 -0.0702
 6013TIP3    H139454   4.577   6.643   3.873  1.3090  1.1748  0.0673
 6013TIP3    H239455   4.563   6.645   3.723 -1.8999 -1.7820  0.1925
 6014TIP3   OH239456   6.459   2.597  11.310 -0.9099  0.5790 -0.1224
 6014TIP3    H139457   6.464   2.667  11.375  1.0154 -0.4084  0.8766
 6014TIP3    H239458   6.399   2.533  11.348 -0.4027  0.3699  0.3454
 6015TIP3   OH239459   1.922   3.687   0.102  0.2599 -0.6873  0.2757
 6015TIP3    H139460   1.908   3.605   0.054  1.2707 -0.4401 -0.4706
 6015TIP3    H239461   1.849   3.691   0.163 -0.0173 -1.9602  0.0638
 6016TIP3   OH239462   3.681   6.225  15.546 -0.1291  0.1567  0.4687
 6016TIP3    H139463   3.668   6.274  15.627  0.7965 -0.1893  0.8480
 6016TIP3    H239464   3.631   6.273  15.480  0.5797  1.5069  0.8742
 6017TIP3   OH239465   3.648   2.177  10.812  0.4011 -0.0703  0.0138
 6017TIP3    H139466   3.567   2.229  10.808  0.9260  0.7377 -0.3599
 6017TIP3    H239467   3.628   2.099  10.759  0.5145  1.0835 -1.8317
 6018TIP3   OH239468   3.224   3.777  12.889 -0.4367  0.5984 -0.2942
 6018TIP3    H139469   3.208   3.739  12.803 -2.1247 -0.3663  0.4003
 6018TIP3    H239470   3.317   3.761  12.905 -1.0053 -3.4273 -0.0478
 6019TIP3   OH239471   4.920   1.543  12.161 -0.0694 -0.0013  0.1161
 6019TIP3    H139472   5.001   1.593  12.156 -1.2152  2.0486  1.0359
 6019TIP3    H239473   4.876   1.561  12.077 -0.0470 -0.2584  0.0487
 6020TIP3   OH239474   1.155   2.199  16.086  0.0239 -0.0852 -0.1013
 6020TIP3    H139475   1.142   2.121  16.033 -0.1829 -1.3374  1.7051
 6020TIP3    H239476   1.068   2.240  16.091  0.1296  0.2645 -1.0358
 6021TIP3   OH239477   2.089   5.673  15.017  0.0810  0.0439  0.0229
 6021TIP3    H139478   2.181   5.674  15.045  0.3919  1.1643 -0.9157
 6021TIP3    H239479   2.040   5.698  15.095  0.6971  0.6820  0.2194
 6022TIP3   OH239480   6.562   1.279   2.074 -0.3357  0.0713  0.2147
 6022TIP3    H139481   6.598   1.229   2.146  0.6798  0.4196 -0.0217
 6022TIP3    H239482   6.638   1.326   2.038 -0.8353 -0.0183 -1.0031
 6023TIP3   OH239483   3.363   1.231  13.222  0.6415 -0.1019 -0.0388
 6023TIP3    H139484   3.374   1.184  13.304 -0.4056  0.8633  0.6945
 6023TIP3    H239485   3.291   1.186  13.178  0.1734  0.3075  0.2955
 6024TIP3   OH239486   5.175   6.147   6.539 -0.5333 -0.1462 -0.7216
 6024TIP3    H139487   5.106   6.085   6.560 -0.9450  0.2111 -1.0025
 6024TIP3    H239488   5.237   6.097   6.486 -1.0720 -0.2121 -1.2992
 6025TIP3   OH239489   5.486   5.788   3.415  0.2343 -0.0838  0.4126
 6025TIP3    H139490   5.415   5.829   3.465  0.1908  0.6710 -0.2439
 6025TIP3    H239491   5.456   5.792   3.324  0.4091 -1.2365  0.2902
 6026TIP3   OH239492   4.475   0.183   3.857 -0.3278  0.5753 -0.2992
 6026TIP3    H139493   4.531   0.154   3.785 -0.1751 -0.5877  0.2606
 6026TIP3    H239494   4.393   0.135   3.844  0.5006 -1.4936  1.5824
 6027TIP3   OH239495   2.509   4.676  12.566 -0.3299  0.2150 -0.6287
 6027TIP3    H139496   2.521   4.760  12.521 -0.1605  0.8974  0.6254
 6027TIP3    H239497   2.470   4.618  12.500  0.7372  0.8891 -1.9098
 6028TIP3   OH239498   6.185   6.339  17.050 -0.1405  0.5014 -0.1363
 6028TIP3    H139499   6.199   6.373  17.139  1.1103  0.3528 -0.2526
 6028TIP3    H239500   6.169   6.418  16.997 -1.0549  0.5765  0.2340
 6029TIP3   OH239501   6.079   5.627   1.883 -0.1620  0.3531 -0.1192
 6029TIP3    H139502   6.096   5.655   1.973 -0.3706 -0.2190  0.0997
 6029TIP3    H239503   6.112   5.699   1.829  0.2429  0.5653  0.4029
 6030TIP3   OH239504   3.988   5.547  12.515  0.1035  0.5486 -0.1999
 6030TIP3    H139505   3.895   5.531  12.531 -0.3562  0.5761 -2.4647
 6030TIP3    H239506   4.001   5.525  12.422  2.7156 -1.0060  0.4124
 6031TIP3   OH239507   4.792   4.927  16.696 -0.2045  1.0408  0.7005
 6031TIP3    H139508   4.732   4.853  16.703  0.2077  0.5483 -0.6463
 6031TIP3    H239509   4.829   4.937  16.784 -0.4249 -0.2195  0.9502
 6032TIP3   OH239510   5.383   0.063  15.462 -0.5455 -0.1905 -0.2415
 6032TIP3    H139511   5.386   0.105  15.548  0.2431 -0.3815 -0.1650
 6032TIP3    H239512   5.450  -0.006  15.467 -0.9988 -0.6758 -0.7658
 6033TIP3   OH239513   5.019   5.423  16.639 -0.2778  0.5424  0.1875
 6033TIP3    H139514   5.026   5.359  16.710 -0.4119 -0.2581 -0.5114
 6033TIP3    H239515   4.995   5.372  16.562  0.4386  1.3089 -0.5746
 6034TIP3   OH239516   5.545   0.325   2.637 -0.4259  0.2071  0.3970
 6034TIP3    H139517   5.501   0.410   2.642  1.3223  1.1367  0.4809
 6034TIP3    H239518   5.631   0.344   2.601 -0.6952 -1.8171 -1.5880
 6035TIP3   OH239519   4.753   6.017  17.056  0.5960  0.2261 -0.3530
 6035TIP3    H139520   4.765   6.023  17.151  0.0082 -2.3552 -0.0511
 6035TIP3    H239521   4.720   6.103  17.031 -1.6830  0.2358  2.2009
 6036TIP3   OH239522   0.363   5.993   4.597 -0.4631 -0.2051 -0.1247
 6036TIP3    H139523   0.375   6.084   4.570 -0.5783 -0.9698 -3.2294
 6036TIP3    H239524   0.362   5.995   4.692  1.8522  2.7260 -0.0444
 6037TIP3   OH239525   2.083   0.246  16.439  0.3591 -0.1734 -0.2161
 6037TIP3    H139526   2.024   0.215  16.508  0.2848 -0.7665 -0.5368
 6037TIP3    H239527   2.132   0.318  16.479  0.2522 -0.4515  0.4251
 6038TIP3   OH239528   2.980   1.979   1.244  0.1066 -0.0945  0.0839
 6038TIP3    H139529   2.947   1.904   1.292  0.4063  1.1931  2.4634
 6038TIP3    H239530   2.921   2.051   1.268  0.1427  0.5876 -1.7025
 6039TIP3   OH239531   5.558   2.872   1.144 -0.2203  0.3237 -0.3493
 6039TIP3    H139532   5.533   2.798   1.088 -1.4681 -0.0448  0.6366
 6039TIP3    H239533   5.639   2.844   1.186  1.0246  0.8040 -2.2743
 6040TIP3   OH239534   2.127   3.396   0.952 -0.7602  0.3954 -0.0732
 6040TIP3    H139535   2.178   3.463   0.907 -1.0717  0.5662 -0.1758
 6040TIP3    H239536   2.182   3.318   0.948 -0.1734  0.7708  0.4928
 6041TIP3   OH239537   6.708   0.693   5.003 -0.9400  0.1122 -0.2466
 6041TIP3    H139538   6.731   0.699   4.910 -0.6824 -0.8452 -0.2572
 6041TIP3    H239539   6.684   0.601   5.015  2.7341 -0.8099  1.4450
 6042TIP3   OH239540   1.561   5.660  13.286  0.2774  0.1604 -0.1566
 6042TIP3    H139541   1.515   5.610  13.219  1.0263 -2.6338  1.2717
 6042TIP3    H239542   1.503   5.659  13.362  1.4342 -1.0000  0.7613
 6043TIP3   OH239543   2.174   1.439  14.421 -0.2313  0.0920 -0.3818
 6043TIP3    H139544   2.237   1.380  14.463 -1.0454  0.8758  2.1516
 6043TIP3    H239545   2.110   1.380  14.381 -0.3747 -0.7853  1.0532
 6044TIP3   OH239546   0.735   2.800   4.380 -0.4983  0.1883  0.4064
 6044TIP3    H139547   0.699   2.751   4.307 -1.0253  1.4277 -0.1904
 6044TIP3    H239548   0.830   2.791   4.371 -0.5807 -1.2415  0.7043
 6045TIP3   OH239549   1.215   2.603   6.720  0.6438 -0.2859  0.3636
 6045TIP3    H139550   1.212   2.508   6.726  0.1511 -0.2982 -0.1255
 6045TIP3    H239551   1.126   2.630   6.698  1.1085  0.1814 -1.0691
 6046TIP3   OH239552   4.135   2.457   5.754  0.3910  0.3863 -0.0944
 6046TIP3    H139553   4.222   2.418   5.749 -0.2292 -0.9700 -1.1596
 6046TIP3    H239554   4.076   2.382   5.764 -0.8120  1.0909 -1.4986
 6047TIP3   OH239555   5.741   3.750  14.552  0.0328  0.0070  0.2361
 6047TIP3    H139556   5.748   3.821  14.616  0.0767 -0.7193  1.0552
 6047TIP3    H239557   5.743   3.670  14.604 -2.9589 -0.5842 -0.3650
 6048TIP3   OH239558   6.750   3.214   3.097  0.2683 -0.3460 -0.2000
 6048TIP3    H139559   6.805   3.198   3.020  0.6956  1.1527 -0.2266
 6048TIP3    H239560   6.806   3.191   3.172  0.4116 -0.2612 -0.2816
 6049TIP3   OH239561   2.862   3.473  14.767 -0.2542 -0.0324 -0.6060
 6049TIP3    H139562   2.852   3.402  14.704  0.8076  0.5125 -1.4142
 6049TIP3    H239563   2.795   3.456  14.833  0.4807 -2.2331 -0.3517
 6050TIP3   OH239564   3.239   5.303  16.617 -0.5306 -0.1106 -0.0638
 6050TIP3    H139565   3.285   5.235  16.667 -0.1012  0.8146  0.8338
 6050TIP3    H239566   3.274   5.385  16.651 -1.2098  0.5750 -0.9752
 6051TIP3   OH239567   0.931   6.491   2.529 -0.2705 -0.7241 -0.1558
 6051TIP3    H139568   1.018   6.528   2.546 -0.0595 -1.5108  0.5445
 6051TIP3    H239569   0.870   6.560   2.553  0.1131 -0.8412  1.2484
 6052TIP3   OH239570   6.265   3.566   2.232 -0.7892  1.0311  0.8788
 6052TIP3    H139571   6.336   3.508   2.205 -0.3690  0.5660  2.8325
 6052TIP3    H239572   6.302   3.654   2.223 -0.9714  0.9665 -0.8093
 6053TIP3   OH239573   3.822   4.980   0.588 -0.3142  0.1919  0.5221
 6053TIP3    H139574   3.761   5.008   0.520  0.5945  1.9015  0.3528
 6053TIP3    H239575   3.786   4.897   0.621 -1.0925 -0.3644 -1.5989
 6054TIP3   OH239576   6.352   3.830   4.794 -0.1071 -0.0615 -0.4466
 6054TIP3    H139577   6.373   3.882   4.871 -0.1513 -1.1049  0.2969
 6054TIP3    H239578   6.317   3.893   4.731 -1.2927  0.6287  0.8416
 6055TIP3   OH239579   2.975   1.176  11.236 -0.9622  0.5296  0.5691
 6055TIP3    H139580   3.002   1.084  11.233  0.9614  1.0367  1.1326
 6055TIP3    H239581   3.049   1.222  11.276 -1.9215  2.3236  0.3979
 6056TIP3   OH239582   3.127   2.597  15.745  0.2876 -0.2413 -0.2238
 6056TIP3    H139583   3.055   2.653  15.776  0.7318  0.4324 -0.3839
 6056TIP3    H239584   3.134   2.615  15.652  0.3722 -0.6401 -0.2965
 6057TIP3   OH239585   6.563   1.112   2.376  0.1231 -0.1737 -0.4627
 6057TIP3    H139586   6.560   1.036   2.434  0.2353 -1.0959 -1.6346
 6057TIP3    H239587   6.542   1.186   2.433 -0.2622 -1.1023  0.6472
 6058TIP3   OH239588   2.764   1.236  16.040 -1.0958 -0.5533  0.3207
 6058TIP3    H139589   2.682   1.202  16.074 -1.7974  0.1516 -0.6100
 6058TIP3    H239590   2.741   1.321  16.002 -0.3359 -1.1694 -1.6572
 6059TIP3   OH239591   3.924   6.247  11.757 -0.1579  0.0323  0.3480
 6059TIP3    H139592   3.949   6.254  11.665  1.0554 -0.5175  0.6075
 6059TIP3    H239593   3.952   6.329  11.796  0.0210 -0.0376  0.3690
 6060TIP3   OH239594   5.927   4.175   2.968  0.0845  0.1419  0.6310
 6060TIP3    H139595   6.012   4.149   2.933  0.0397 -0.3110  0.8423
 6060TIP3    H239596   5.872   4.097   2.955 -0.7043  0.8846 -0.7971
 6061TIP3   OH239597   6.359   4.200   0.657  0.2093  0.8217 -0.0310
 6061TIP3    H139598   6.277   4.248   0.664  0.5778  1.6915 -1.3938
 6061TIP3    H239599   6.409   4.225   0.735 -1.4045 -0.9813  1.6992
 6062TIP3   OH239600   6.665   1.594   5.164 -0.1668  0.1092 -0.3953
 6062TIP3    H139601   6.727   1.572   5.234  0.6972  0.9606 -0.8712
 6062TIP3    H239602   6.643   1.686   5.180 -0.6261  0.0599 -0.7498
 6063TIP3   OH239603   1.262   1.291   5.030 -0.0964  0.4047 -0.5201
 6063TIP3    H139604   1.307   1.206   5.030 -1.9890 -0.7284  1.2875
 6063TIP3    H239605   1.285   1.330   5.115 -1.1609  0.5419 -0.2784
 6064TIP3   OH239606   5.263   6.201  15.595  0.0931  0.2236 -0.0540
 6064TIP3    H139607   5.270   6.164  15.507  0.2324  1.1582 -0.4548
 6064TIP3    H239608   5.302   6.289  15.587  0.2752  0.2534  0.9824
 6065TIP3   OH239609   4.661   1.115   5.996 -0.0568 -0.4591  0.1701
 6065TIP3    H139610   4.654   1.060   6.073 -0.1880  1.0300  1.2739
 6065TIP3    H239611   4.638   1.058   5.923 -0.2799 -1.8105  1.2634
 6066TIP3   OH239612   1.968   5.903   4.073  0.7250  0.1630 -0.2571
 6066TIP3    H139613   1.914   5.828   4.099  0.3443  0.2873 -0.6847
 6066TIP3    H239614   1.972   5.957   4.152  0.3786  0.0577 -0.1641
 6067TIP3   OH239615   6.460   0.468  12.681  0.3169  0.1892  0.4426
 6067TIP3    H139616   6.369   0.438  12.672  0.3290  0.2159  0.2184
 6067TIP3    H239617   6.462   0.552  12.634  0.3962  0.3097  0.6620
 6068TIP3   OH239618   5.871   2.028  15.914 -0.2649  0.1118  0.4883
 6068TIP3    H139619   5.856   2.110  15.960 -1.0620  0.7166 -0.8075
 6068TIP3    H239620   5.941   2.048  15.851 -1.0870  0.0809 -0.4636
 6069TIP3   OH239621   2.934   3.908  14.792 -0.5064 -0.0003 -0.2883
 6069TIP3    H139622   2.924   3.875  14.703 -1.0069  2.4374 -1.2141
 6069TIP3    H239623   2.909   4.000  14.787  2.6258  1.1447  1.6480
 6070TIP3   OH239624   1.884   2.892  15.624  0.5133  0.2361 -0.2844
 6070TIP3    H139625   1.828   2.937  15.688  0.5749 -0.0317 -0.0439
 6070TIP3    H239626   1.834   2.814  15.600  1.6404 -1.0802  1.4354
 6071TIP3   OH239627   1.189   0.252  15.388  0.2180 -0.2604  0.2954
 6071TIP3    H139628   1.096   0.239  15.370  0.0632 -0.1138  0.9412
 6071TIP3    H239629   1.212   0.180  15.448  0.5589 -0.3845  0.0205
 6072TIP3   OH239630   6.730   3.352  13.856  0.2947 -0.1752  0.2495
 6072TIP3    H139631   6.638   3.376  13.844  0.4387 -0.1328 -0.9094
 6072TIP3    H239632   6.737   3.263  13.820  0.9301  0.2514 -0.7220
 6073TIP3   OH239633   0.049   4.801   4.358 -1.0277  0.8203  0.2895
 6073TIP3    H139634   0.119   4.866   4.369  0.4436 -0.1680 -2.2158
 6073TIP3    H239635   0.043   4.790   4.263 -3.0653 -0.7896  0.5590
 6074TIP3   OH239636   3.824   0.423   0.528  0.3184  0.1270 -0.4788
 6074TIP3    H139637   3.821   0.515   0.557  0.7132 -0.2445  0.8082
 6074TIP3    H239638   3.775   0.423   0.445  1.5956  1.7778 -1.3093
 6075TIP3   OH239639   0.087   6.549   3.406 -0.2565 -0.1345  0.2700
 6075TIP3    H139640   0.035   6.566   3.327  0.1416 -0.6716 -0.1195
 6075TIP3    H239641   0.043   6.473   3.446  0.0815 -0.4431  0.0639
 6076TIP3   OH239642   4.691   2.866  15.537 -0.3507  0.0846  0.5039
 6076TIP3    H139643   4.779   2.845  15.505 -0.1495  0.1514  0.9951
 6076TIP3    H239644   4.704   2.883  15.631 -0.4965  2.2601  0.1995
 6077TIP3   OH239645   1.192   5.499   3.344  0.1089 -0.2661  0.1980
 6077TIP3    H139646   1.248   5.564   3.387 -1.2406  0.7954  0.4103
 6077TIP3    H239647   1.252   5.450   3.287  1.5638 -0.3497  1.7297
 6078TIP3   OH239648   2.311   0.853  13.440 -0.1640  0.6840 -0.5599
 6078TIP3    H139649   2.270   0.825  13.522  0.3288  1.6619  0.0467
 6078TIP3    H239650   2.256   0.817  13.372 -1.6292  1.3653  0.2215
 6079TIP3   OH239651   1.552   0.293  11.889 -0.4266  0.4745 -0.0898
 6079TIP3    H139652   1.503   0.330  11.816  2.5650  2.2420 -1.3425
 6079TIP3    H239653   1.499   0.314  11.966 -2.9245 -0.1291 -1.5267
 6080TIP3   OH239654   3.819   2.605  14.960 -0.1486 -0.2115  0.6122
 6080TIP3    H139655   3.803   2.585  14.868 -0.1587 -1.7794  0.9265
 6080TIP3    H239656   3.914   2.610  14.968 -0.1409 -0.2928  0.5653
 6081TIP3   OH239657   6.402   6.623  11.477  0.2435 -0.3490 -0.2034
 6081TIP3    H139658   6.308   6.622  11.493  0.3955  0.6957  0.8432
 6081TIP3    H239659   6.415   6.693  11.413  0.1651 -1.5376 -1.5954
 6082TIP3   OH239660   3.480   6.182  12.547 -0.2019 -0.3721 -0.0277
 6082TIP3    H139661   3.417   6.137  12.604  1.3990 -0.7687  1.5058
 6082TIP3    H239662   3.538   6.228  12.607  1.9414 -1.3107 -1.2671
 6083TIP3   OH239663   3.623   0.840  14.557 -0.5373 -0.5927  0.6423
 6083TIP3    H139664   3.569   0.918  14.538 -0.8167 -0.8157  0.5086
 6083TIP3    H239665   3.580   0.801  14.633 -0.9523 -1.1273  0.1449
 6084TIP3   OH239666   2.858   3.809   2.205  0.4899 -0.4759  0.0250
 6084TIP3    H139667   2.873   3.751   2.130  1.3371  1.4432 -1.3686
 6084TIP3    H239668   2.786   3.768   2.253  0.5108 -2.2280 -1.3426
 6085TIP3   OH239669   0.019   0.556   3.834  0.3293 -0.4594 -0.2755
 6085TIP3    H139670   0.019   0.492   3.905  2.4602 -1.7516 -1.3517
 6085TIP3    H239671   0.066   0.513   3.763 -0.4685  1.3422 -1.9920
 6086TIP3   OH239672   0.855   4.775  16.933 -0.7339 -0.0243  0.3815
 6086TIP3    H139673   0.892   4.861  16.954 -2.1532  0.6009  0.4664
 6086TIP3    H239674   0.821   4.784  16.844  0.7405 -1.0985 -0.3277
 6087TIP3   OH239675   6.448   4.452  13.618  0.2274 -0.3644 -0.1038
 6087TIP3    H139676   6.455   4.510  13.542  0.6302 -0.4555 -0.1384
 6087TIP3    H239677   6.418   4.368  13.581 -0.3969 -0.1679 -0.0485
 6088TIP3   OH239678   6.273   0.309   3.649  0.4800 -0.5541 -0.1252
 6088TIP3    H139679   6.228   0.346   3.726  1.9173 -0.7645  0.8455
 6088TIP3    H239680   6.364   0.302   3.675  0.9685 -0.8650 -1.7929
 6089TIP3   OH239681   2.539   4.047   1.703  1.0913 -0.3166  0.2256
 6089TIP3    H139682   2.630   4.055   1.732  1.0950 -1.2981  0.5071
 6089TIP3    H239683   2.494   4.006   1.777  0.6131 -0.6886 -0.2656
 6090TIP3   OH239684   5.265   5.379  11.242  0.5086 -0.0860  0.0505
 6090TIP3    H139685   5.322   5.450  11.272  1.5588 -0.8886  0.0323
 6090TIP3    H239686   5.252   5.397  11.149  0.0769  0.5360  0.2280
 6091TIP3   OH239687   3.404   5.339   5.577 -0.4604 -0.4388  0.0644
 6091TIP3    H139688   3.390   5.269   5.513 -0.3101 -1.2635  0.9154
 6091TIP3    H239689   3.452   5.406   5.528 -0.8588 -0.7960 -0.8455
 6092TIP3   OH239690   5.474   3.447  17.047  0.3023  0.3152 -0.2120
 6092TIP3    H139691   5.508   3.360  17.030  0.3808  0.3750 -0.3644
 6092TIP3    H239692   5.498   3.498  16.970 -0.2293  0.3328 -0.3728
 6093TIP3   OH239693   0.265   2.002   3.042  0.1385  0.8359 -0.0688
 6093TIP3    H139694   0.315   2.004   3.123  0.2826 -0.7531 -0.0834
 6093TIP3    H239695   0.270   2.091   3.008  1.1299  1.2183  1.0295
 6094TIP3   OH239696   2.846   6.049   5.093  0.0730  0.6446 -0.4938
 6094TIP3    H139697   2.838   6.076   5.184  0.4247  0.5522 -0.4343
 6094TIP3    H239698   2.765   6.079   5.052 -1.1976 -1.4034  0.3569
 6095TIP3   OH239699   2.876   2.675   3.119 -0.1987 -0.2708  0.3040
 6095TIP3    H139700   2.808   2.662   3.184  0.8739 -1.5492  1.2062
 6095TIP3    H239701   2.911   2.588   3.102  0.8066  0.2818 -0.5958
 6096TIP3   OH239702   6.210   1.402   5.879  0.5010  0.0818 -0.7203
 6096TIP3    H139703   6.130   1.351   5.890  0.6807 -0.3520 -1.4452
 6096TIP3    H239704   6.182   1.493   5.895  0.1075 -0.1834  0.1814
 6097TIP3   OH239705   3.844   2.165   2.267  0.0547  0.3624  0.4714
 6097TIP3    H139706   3.749   2.179   2.266  0.1684  1.3074  1.2531
 6097TIP3    H239707   3.859   2.099   2.199 -0.8796  1.9642 -1.3853
 6098TIP3   OH239708   0.789   2.504   5.291 -0.2398 -0.0231 -0.0024
 6098TIP3    H139709   0.774   2.410   5.298 -0.8518 -0.0260 -1.0953
 6098TIP3    H239710   0.702   2.543   5.306  0.4142  0.5466  2.8908
 6099TIP3   OH239711   3.808   5.578   1.631  0.1367  0.2601 -0.4056
 6099TIP3    H139712   3.874   5.566   1.562 -0.1921 -0.8386 -0.5504
 6099TIP3    H239713   3.810   5.496   1.680 -1.1235  0.2080 -0.4176
 6100TIP3   OH239714   3.057   5.209  11.316  0.7875  0.1771  0.6407
 6100TIP3    H139715   2.969   5.227  11.348  0.3787 -0.5966 -0.0259
 6100TIP3    H239716   3.090   5.141  11.374  0.8242  0.2447  0.6991
 6101TIP3   OH239717   1.365   5.691  12.390  0.4933  0.3083 -0.0283
 6101TIP3    H139718   1.298   5.755  12.414  1.4400  1.9540 -1.5085
 6101TIP3    H239719   1.411   5.673  12.472 -1.1786 -0.2034  0.8347
 6102TIP3   OH239720   4.376   6.258   2.622  0.0043  0.0500  1.0204
 6102TIP3    H139721   4.309   6.323   2.598 -0.2507 -0.2400  0.9355
 6102TIP3    H239722   4.347   6.225   2.706  0.0511 -0.0649  0.9905
 6103TIP3   OH239723   3.917   2.393   1.584  0.0248 -0.0734  0.0472
 6103TIP3    H139724   4.011   2.383   1.568 -0.0632 -1.5841  0.2730
 6103TIP3    H239725   3.907   2.483   1.615  1.3412  0.2207 -0.2949
 6104TIP3   OH239726   4.989   1.801   6.075 -0.1359 -0.1049 -0.3009
 6104TIP3    H139727   4.963   1.740   6.006 -0.6420  1.1400 -1.2489
 6104TIP3    H239728   5.038   1.748   6.137 -2.6148 -2.0090  0.1717
 6105TIP3   OH239729   2.248   0.128   2.328 -0.9362  0.2837 -0.6946
 6105TIP3    H139730   2.302   0.060   2.288  0.5924 -0.7125  2.7101
 6105TIP3    H239731   2.158   0.098   2.315 -0.3732 -1.3631 -0.9870
 6106TIP3   OH239732   1.252   6.205   1.214 -1.1002  0.2857 -0.3081
 6106TIP3    H139733   1.324   6.265   1.235  0.6455 -1.6118 -0.5263
 6106TIP3    H239734   1.219   6.177   1.299 -0.1765 -0.4065 -0.1665
 6107TIP3   OH239735   5.611   1.818  13.499 -0.2778 -0.1338  0.2873
 6107TIP3    H139736   5.556   1.813  13.577 -0.8643 -1.2326 -0.1641
 6107TIP3    H239737   5.596   1.734  13.455 -0.2085  0.5999 -1.1699
 6108TIP3   OH239738   5.276   3.601  15.459 -0.5926 -0.3103 -0.2475
 6108TIP3    H139739   5.246   3.664  15.393 -0.5946 -0.6782 -0.6039
 6108TIP3    H239740   5.206   3.535  15.462  0.0209 -1.0049 -0.8519
 6109TIP3   OH239741   1.624   4.687  16.720 -0.4562  0.3032  0.1342
 6109TIP3    H139742   1.533   4.700  16.694 -0.6841  0.6715  1.0678
 6109TIP3    H239743   1.633   4.738  16.801  0.4635 -0.0678  0.2758
 6110TIP3   OH239744   5.695   1.442  14.224  0.9990  0.3285  0.1060
 6110TIP3    H139745   5.764   1.508  14.231  1.7099 -0.5543  2.7025
 6110TIP3    H239746   5.678   1.415  14.315 -1.6384 -0.6679 -0.5831
 6111TIP3   OH239747   5.278   5.217  17.059 -0.3017 -0.7312  0.1199
 6111TIP3    H139748   5.352   5.185  17.111  0.6022  2.5189  1.0675
 6111TIP3    H239749   5.209   5.234  17.123 -0.8611 -1.0609 -0.3849
 6112TIP3   OH239750   0.877   1.648   5.841 -0.2837  0.5914 -0.2242
 6112TIP3    H139751   0.866   1.558   5.810  0.8715 -0.2386  1.6184
 6112TIP3    H239752   0.847   1.647   5.931 -0.4200  2.1280 -0.2193
 6113TIP3   OH239753   4.702   2.886   4.601 -0.1665 -0.5027  0.4960
 6113TIP3    H139754   4.657   2.897   4.684 -1.9981  2.1586 -0.6991
 6113TIP3    H239755   4.757   2.965   4.593 -0.1645 -0.6151 -0.8790
 6114TIP3   OH239756   3.048   2.716  16.293 -0.6035 -0.1580 -0.1176
 6114TIP3    H139757   3.017   2.690  16.380 -0.7155  0.9214  0.1809
 6114TIP3    H239758   3.106   2.644  16.266 -0.2390 -0.3258  1.0249
 6115TIP3   OH239759   2.972   3.402  12.494 -0.0029 -0.7754  0.5046
 6115TIP3    H139760   2.959   3.437  12.582 -0.3118  0.6399 -0.0748
 6115TIP3    H239761   2.900   3.340  12.482  0.3319 -1.3733  1.4108
 6116TIP3   OH239762   5.457   2.461   5.123 -0.2323 -0.1872  0.0682
 6116TIP3    H139763   5.385   2.454   5.060 -0.7457 -1.6391  0.7462
 6116TIP3    H239764   5.434   2.396   5.191  1.2893 -0.0575  0.7333
 6117TIP3   OH239765   2.903   3.521  14.024 -0.1049  0.3105  0.2013
 6117TIP3    H139766   2.963   3.453  13.992 -0.1561 -0.8968  2.4846
 6117TIP3    H239767   2.937   3.602  13.987  1.2392 -0.6942 -0.8723
 6118TIP3   OH239768   4.133   5.767   0.013  0.5843 -0.1314 -0.3968
 6118TIP3    H139769   4.215   5.749  -0.033  0.5556 -2.6831  0.4040
 6118TIP3    H239770   4.074   5.696  -0.014 -1.8088  2.1890 -1.7999
 6119TIP3   OH239771   2.589   4.822  10.503 -0.2129 -0.0880  0.0104
 6119TIP3    H139772   2.572   4.797  10.412  2.0198 -1.7203 -0.0335
 6119TIP3    H239773   2.523   4.774  10.553  0.8943 -2.2885 -0.4981
 6120TIP3   OH239774   2.446   3.359   1.121 -0.5417 -0.5036  0.3004
 6120TIP3    H139775   2.406   3.308   1.051  0.0081  0.8827 -1.0907
 6120TIP3    H239776   2.518   3.406   1.079 -1.5552  2.0949  1.2226
 6121TIP3   OH239777   3.415   6.560  16.613 -0.3429 -0.2409  0.0864
 6121TIP3    H139778   3.402   6.585  16.705 -1.1204 -0.4297  0.0302
 6121TIP3    H239779   3.474   6.627  16.579 -2.0855  1.3477  0.0427
 6122TIP3   OH239780   3.090   1.799  15.964  0.3687 -0.0811  0.1739
 6122TIP3    H139781   3.049   1.723  16.005 -0.1701 -0.4869 -1.0730
 6122TIP3    H239782   3.017   1.857  15.942  0.7818  0.8270  1.1603
 6123TIP3   OH239783   6.152   2.734   1.020 -0.0459  0.1747  0.1919
 6123TIP3    H139784   6.143   2.664   0.956 -0.5677 -0.1236  0.5872
 6123TIP3    H239785   6.080   2.794   0.999  0.3205  0.5350 -0.0629
 6124TIP3   OH239786   3.261   5.275  11.711  0.2807 -0.3362  0.0932
 6124TIP3    H139787   3.197   5.343  11.692  0.6554 -0.0455 -0.1363
 6124TIP3    H239788   3.265   5.272  11.807 -0.2830 -0.5587  0.1175
 6125TIP3   OH239789   1.526   1.218   3.268 -0.2772  0.2864  0.4076
 6125TIP3    H139790   1.547   1.264   3.187  0.8280 -1.0976 -0.1433
 6125TIP3    H239791   1.449   1.165   3.246  0.0743 -0.1547  0.2160
 6126TIP3   OH239792   1.932   2.081   3.659  1.4282 -0.5986  0.2756
 6126TIP3    H139793   1.924   2.123   3.573 -1.1331 -1.4611  0.0062
 6126TIP3    H239794   1.873   2.130   3.715 -0.1615 -2.5867  0.4321
 6127TIP3   OH239795   6.144   0.973   1.107 -0.0169  0.1508  0.1403
 6127TIP3    H139796   6.180   0.958   1.194  0.8910  0.2304 -0.2125
 6127TIP3    H239797   6.218   1.003   1.055 -0.2592 -1.1222 -0.9844
 6128TIP3   OH239798   2.987   1.589   6.716 -0.1172  0.3349 -0.0654
 6128TIP3    H139799   3.033   1.647   6.778  0.5538  0.4954 -0.6952
 6128TIP3    H239800   3.031   1.505   6.726  1.8798  1.0078 -2.2278
 6129TIP3   OH239801   1.296   6.008   0.600 -0.0054  0.2306 -0.1677
 6129TIP3    H139802   1.384   5.986   0.569  0.3967  1.0121  0.3911
 6129TIP3    H239803   1.286   5.956   0.680  0.6555  1.4663  0.7448
 6130TIP3   OH239804   2.467   3.263   0.010  0.1665  0.1620  0.0777
 6130TIP3    H139805   2.551   3.305   0.027 -1.1970  2.9888  0.3859
 6130TIP3    H239806   2.447   3.216   0.091  2.8381 -3.3843 -1.1136
 6131TIP3   OH239807   2.767   2.489   3.330 -0.1910 -0.1897  0.2606
 6131TIP3    H139808   2.820   2.524   3.402 -0.0564 -0.9859  0.5523
 6131TIP3    H239809   2.685   2.538   3.336 -1.2576 -2.0270  2.6509
 6132TIP3   OH239810   4.354   1.391  12.930 -0.5628 -0.2976  0.2269
 6132TIP3    H139811   4.311   1.437  12.859 -1.6820 -1.3289  0.2038
 6132TIP3    H239812   4.366   1.302  12.898 -1.1022 -0.7881  1.3009
 6133TIP3   OH239813   3.613   3.270   0.936  0.3668  0.1812  0.7031
 6133TIP3    H139814   3.537   3.231   0.980  1.5221 -0.8233  1.9029
 6133TIP3    H239815   3.652   3.326   1.003  0.1247  1.5363 -0.2439
 6134TIP3   OH239816   0.439   3.243   0.234 -0.1936 -0.2714  0.0505
 6134TIP3    H139817   0.361   3.227   0.287  0.0048 -0.3254  0.3311
 6134TIP3    H239818   0.447   3.339   0.230  1.0602 -0.2308  2.0447
 6135TIP3   OH239819   1.590   1.477  15.715  0.0946  0.3275  0.0598
 6135TIP3    H139820   1.654   1.543  15.740 -0.3424  0.8464 -0.1668
 6135TIP3    H239821   1.506   1.515  15.740 -0.0225 -1.1659  2.1844
 6136TIP3   OH239822   3.439   5.449   6.542  0.0712 -0.1946 -0.0422
 6136TIP3    H139823   3.444   5.495   6.625 -1.8838  1.4371 -0.7277
 6136TIP3    H239824   3.525   5.459   6.502  0.8811 -0.6074  1.5613
 6137TIP3   OH239825   6.433   1.072  11.248  0.3379  0.4550  0.0264
 6137TIP3    H139826   6.426   1.075  11.153 -1.0871 -1.8639 -0.0338
 6137TIP3    H239827   6.342   1.065  11.278  0.4429  4.4267  1.8548
 6138TIP3   OH239828   5.277   0.015   0.730  0.5059 -0.1339 -0.4181
 6138TIP3    H139829   5.282  -0.014   0.821  1.6414 -0.8416 -0.6933
 6138TIP3    H239830   5.221   0.093   0.733 -1.7289 -1.6841  0.4844
 6139TIP3   OH239831   5.568   2.097   5.488  0.1768 -0.9302 -0.3930
 6139TIP3    H139832   5.635   2.048   5.441  0.1404 -1.9210  0.5450
 6139TIP3    H239833   5.564   2.056   5.575  0.0512  0.6586  0.3972
 6140TIP3   OH239834   5.687   0.442  12.996 -0.1369  0.0401 -0.0662
 6140TIP3    H139835   5.778   0.446  12.964 -0.1385 -0.5172 -0.1449
 6140TIP3    H239836   5.649   0.525  12.967  0.5606  0.6303  0.6329
 6141TIP3   OH239837   0.974   3.087  15.999  0.2157 -0.1610  0.1306
 6141TIP3    H139838   0.919   3.125  15.931  1.2681 -0.4778 -0.9296
 6141TIP3    H239839   1.021   3.162  16.036  0.0795 -0.0596  0.0985
 6142TIP3   OH239840   2.928   6.549  11.772  0.6415  0.4424 -0.4432
 6142TIP3    H139841   3.004   6.494  11.794  1.6948  1.0743 -2.3327
 6142TIP3    H239842   2.957   6.638  11.792 -0.3367  0.5443  0.6605
 6143TIP3   OH239843   0.421   3.227   3.296  0.0135  0.0542  0.3119
 6143TIP3    H139844   0.472   3.308   3.285  1.4579 -0.8774 -0.1045
 6143TIP3    H239845   0.431   3.205   3.389  0.3076 -0.0773  0.2507
 6144TIP3   OH239846   5.761   0.992   1.810  0.2699  0.6622  0.4160
 6144TIP3    H139847   5.705   1.041   1.870  0.8576  1.7418  0.1116
 6144TIP3    H239848   5.847   1.033   1.818  0.6835 -0.0617 -0.1553
 6145TIP3   OH239849   6.733   5.875   0.554 -0.1517  0.2019 -0.2456
 6145TIP3    H139850   6.665   5.871   0.621 -0.1066 -0.0950 -0.2134
 6145TIP3    H239851   6.741   5.784   0.524 -0.1203  0.3218 -0.5989
 6146TIP3   OH239852   5.170   3.084  13.901 -0.6506  0.1807 -0.1175
 6146TIP3    H139853   5.118   3.016  13.945 -1.2373 -0.1109 -1.2344
 6146TIP3    H239854   5.151   3.163  13.951  1.2351 -0.6837  2.1885
 6147TIP3   OH239855   2.581   4.948   3.404  0.0600  0.1512  0.1651
 6147TIP3    H139856   2.574   5.036   3.366  0.8005 -0.3370 -1.1534
 6147TIP3    H239857   2.675   4.932   3.411 -0.0694 -0.6458  0.1312
 6148TIP3   OH239858   0.679   6.623   1.265  0.4862 -0.5176  0.0534
 6148TIP3    H139859   0.612   6.564   1.232 -0.4713  0.3232  0.4193
 6148TIP3    H239860   0.632   6.683   1.323  1.7124 -0.4837  1.0653
 6149TIP3   OH239861   0.439   0.664  16.118 -0.2112 -0.1992 -0.4922
 6149TIP3    H139862   0.361   0.609  16.107 -1.5598  1.5863 -0.2788
 6149TIP3    H239863   0.433   0.696  16.208  3.1062 -3.3466  1.1133
 6150TIP3   OH239864   2.547   2.306  13.308  0.1591 -0.0988  0.2052
 6150TIP3    H139865   2.574   2.255  13.231 -1.1669 -0.7322  0.1222
 6150TIP3    H239866   2.535   2.395  13.275  0.7057 -0.1226 -0.0650
 6151TIP3   OH239867   5.126   5.236  13.243  0.3890 -0.6768 -0.3870
 6151TIP3    H139868   5.175   5.153  13.247  1.8618  0.1349 -0.6136
 6151TIP3    H239869   5.049   5.216  13.190  0.8294 -1.8516 -0.6269
 6152TIP3   OH239870   3.930   0.469  16.781  0.2284  0.1082  0.4440
 6152TIP3    H139871   3.897   0.468  16.691  0.2546  0.8929  0.4230
 6152TIP3    H239872   4.002   0.532  16.780  0.8997 -0.6433  0.7879
 6153TIP3   OH239873   1.400   0.416  10.596  0.0444  0.2434 -0.0105
 6153TIP3    H139874   1.383   0.510  10.606  0.4884  0.3106  0.1432
 6153TIP3    H239875   1.408   0.403  10.502 -3.4086 -0.2553 -0.3826
 6154TIP3   OH239876   4.600   3.903   4.992  0.4597  0.1639 -0.2724
 6154TIP3    H139877   4.554   3.820   4.988  0.1717  0.3404 -0.8644
 6154TIP3    H239878   4.637   3.907   5.080  2.4923 -1.6656 -0.9613
 6155TIP3   OH239879   0.313   0.347   1.082 -0.3565  0.1342  0.0726
 6155TIP3    H139880   0.270   0.300   1.011 -0.8031  0.2503  0.2670
 6155TIP3    H239881   0.273   0.434   1.082 -0.2531  0.1832  0.3691
 6156TIP3   OH239882   3.304   0.487  16.206  0.1376 -0.9028 -0.1360
 6156TIP3    H139883   3.376   0.516  16.151 -0.6903  1.0708 -0.2776
 6156TIP3    H239884   3.340   0.485  16.295  0.7177 -1.2617 -0.3805
 6157TIP3   OH239885   2.719   4.516   2.140 -0.0842 -0.7849 -0.3368
 6157TIP3    H139886   2.756   4.561   2.064  1.1055 -3.2137 -1.2858
 6157TIP3    H239887   2.787   4.521   2.207 -0.9503  0.9501  0.4593
 6158TIP3   OH239888   0.170   5.662  16.644  0.7486 -0.1501  0.3469
 6158TIP3    H139889   0.075   5.663  16.657  0.5609 -1.1509 -0.7260
 6158TIP3    H239890   0.205   5.637  16.729  0.0200 -0.1385  0.6600
 6159TIP3   OH239891   6.720   5.659   1.697 -0.2384 -0.2337  0.2814
 6159TIP3    H139892   6.710   5.724   1.766  0.5688 -0.6798  0.8443
 6159TIP3    H239893   6.660   5.589   1.721 -0.7828  0.0987 -0.0867
 6160TIP3   OH239894   2.242   1.016   0.730  0.4567 -0.2766  0.0716
 6160TIP3    H139895   2.259   1.095   0.781 -0.1652  1.3476 -2.0717
 6160TIP3    H239896   2.165   0.977   0.771  0.7099  0.2520  1.0936
 6161TIP3   OH239897   1.686   0.730  16.230 -0.2299 -0.1146  0.1387
 6161TIP3    H139898   1.711   0.744  16.321 -2.9564  0.0368  0.9517
 6161TIP3    H239899   1.687   0.817  16.191  2.1596 -0.3205 -0.3930
 6162TIP3   OH239900   3.096   5.182  12.846  0.2641 -0.1983 -0.0354
 6162TIP3    H139901   3.106   5.121  12.920  1.8738 -1.7806 -1.4513
 6162TIP3    H239902   3.026   5.144  12.793 -1.1920  1.1679  0.8180
 6163TIP3   OH239903   2.216   2.838  15.985  0.2613  0.4384  0.3482
 6163TIP3    H139904   2.247   2.761  15.936  3.0986 -0.0178  2.5977
 6163TIP3    H239905   2.230   2.911  15.925 -0.9909 -0.5515 -1.2480
 6164TIP3   OH239906   0.488   2.722  10.766  0.4427  0.1834  0.2033
 6164TIP3    H139907   0.539   2.783  10.819 -1.5029  4.4712 -2.3206
 6164TIP3    H239908   0.401   2.723  10.807 -0.3091  1.3362 -1.3124
 6165TIP3   OH239909   4.513   2.983  13.926 -0.1650  0.1542 -0.2144
 6165TIP3    H139910   4.562   2.901  13.920 -1.7503 -1.0359  1.8298
 6165TIP3    H239911   4.455   2.982  13.850  0.1446 -0.3899 -0.4497
 6166TIP3   OH239912   1.597   4.962  15.604  0.9521  0.2593  0.0584
 6166TIP3    H139913   1.670   5.003  15.652  1.5290 -0.4805 -0.1797
 6166TIP3    H239914   1.587   4.876  15.645 -1.4714  1.2506  1.8113
 6167TIP3   OH239915   1.390   5.776  10.927 -0.2452 -0.0347  0.0184
 6167TIP3    H139916   1.430   5.693  10.951 -1.0631 -0.0723  1.3538
 6167TIP3    H239917   1.310   5.751  10.880 -0.6463 -0.0195  0.6827
 6168TIP3   OH239918   5.533   6.074  16.772  0.2208  0.0409 -0.0110
 6168TIP3    H139919   5.603   6.011  16.761  1.5554  1.1151  1.6487
 6168TIP3    H239920   5.474   6.034  16.836  1.2235  0.5334  1.2700
 6169TIP3   OH239921   2.926   0.274   4.689  0.2292 -0.2870 -0.3735
 6169TIP3    H139922   2.930   0.205   4.623 -0.1086  0.1012 -0.8070
 6169TIP3    H239923   2.870   0.237   4.758  1.3226 -1.0465  0.1388
 6170TIP3   OH239924   4.969   6.536  16.006 -0.8178 -0.0500  0.2566
 6170TIP3    H139925   5.021   6.462  15.973 -1.0937  0.6437 -1.9168
 6170TIP3    H239926   4.879   6.504  16.006 -0.9879  0.3639 -1.0743
 6171TIP3   OH239927   0.500   2.096  14.391  0.0399 -0.6489  0.0270
 6171TIP3    H139928   0.444   2.152  14.446 -1.7464  0.3742 -2.5839
 6171TIP3    H239929   0.588   2.128  14.406 -0.7651  1.9377 -0.1975
 6172TIP3   OH239930   1.553   6.158  13.518 -0.1386  0.3277 -0.0398
 6172TIP3    H139931   1.647   6.147  13.531  0.2130  1.4221 -1.3806
 6172TIP3    H239932   1.523   6.073  13.486  0.2754 -0.2057  0.9671
 6173TIP3   OH239933   3.400   0.863  11.054  0.1424  0.2269  0.2460
 6173TIP3    H139934   3.461   0.922  11.008  1.3503  0.5325  2.1287
 6173TIP3    H239935   3.437   0.776  11.040  0.0847  0.2337  0.0390
 6174TIP3   OH239936   3.682   6.148   0.948  0.4635  0.5408  0.1916
 6174TIP3    H139937   3.688   6.070   1.003  1.6261  1.2047  1.0433
 6174TIP3    H239938   3.620   6.124   0.878 -0.6700 -0.4823  1.5049
 6175TIP3   OH239939   0.585   2.426  16.639  0.1751 -0.1304  0.5295
 6175TIP3    H139940   0.631   2.492  16.691 -0.1722 -0.8642  1.8103
 6175TIP3    H239941   0.595   2.456  16.549  0.4305  1.4190  1.0296
 6176TIP3   OH239942   1.932   5.660   0.498  0.3307  0.0194  0.4386
 6176TIP3    H139943   1.970   5.639   0.584  0.8646 -0.7724  0.0164
 6176TIP3    H239944   1.878   5.584   0.476  0.1306  0.2552  0.1004
 6177TIP3   OH239945   1.877   0.006   4.972 -0.4095  0.9980  0.0784
 6177TIP3    H139946   1.793   0.018   4.928 -0.0311  2.4895 -0.2666
 6177TIP3    H239947   1.885  -0.089   4.981 -1.1035  0.6994 -1.9024
 6178TIP3   OH239948   2.345   0.740   4.271 -0.1670  0.9326  0.1842
 6178TIP3    H139949   2.325   0.685   4.347 -0.6834  0.2875 -0.4005
 6178TIP3    H239950   2.325   0.829   4.300 -2.1685  0.5174  0.2524
 6179TIP3   OH239951   1.126   4.680   4.722  0.5551 -0.6573  0.2485
 6179TIP3    H139952   1.131   4.587   4.747 -3.6659 -0.9555  0.6067
 6179TIP3    H239953   1.108   4.678   4.628  0.1170 -0.1968  0.3235
 6180TIP3   OH239954   2.933   5.779   0.602 -0.3756 -0.3949  0.2791
 6180TIP3    H139955   2.883   5.804   0.524  0.6012  0.1573 -0.1862
 6180TIP3    H239956   3.018   5.822   0.592  0.6506 -2.2470  0.4725
 6181TIP3   OH239957   3.427   4.359   5.909  0.0673  0.1124 -0.0306
 6181TIP3    H139958   3.504   4.366   5.965 -0.2052 -0.6825  0.4649
 6181TIP3    H239959   3.388   4.275   5.932 -1.4918  0.9197  0.4366
 6182TIP3   OH239960   5.943   3.195   6.648  0.2048 -0.1184 -0.2318
 6182TIP3    H139961   5.942   3.217   6.555 -1.3816 -0.4316 -0.3165
 6182TIP3    H239962   6.026   3.229   6.680  1.1159 -0.6739 -1.9135
 6183TIP3   OH239963   2.847   1.590  10.805 -0.0478  0.5047  0.3111
 6183TIP3    H139964   2.759   1.558  10.822  0.6611 -1.6181  0.2268
 6183TIP3    H239965   2.851   1.675  10.849 -1.0127 -0.9088  3.3307
 6184TIP3   OH239966   0.907   3.151   1.351  0.5686  0.3811 -0.4249
 6184TIP3    H139967   0.926   3.118   1.439  0.3653 -0.5548 -0.7165
 6184TIP3    H239968   0.928   3.077   1.293  0.3946  0.8774 -1.1332
 6185TIP3   OH239969   4.469   3.138   2.339  0.1838 -0.2001  0.0900
 6185TIP3    H139970   4.428   3.197   2.402  0.6852  1.4653 -1.0754
 6185TIP3    H239971   4.563   3.154   2.348  0.2530  0.2529 -1.2255
 6186TIP3   OH239972   5.583   2.252  16.742  0.0610 -0.0976 -0.3935
 6186TIP3    H139973   5.572   2.232  16.649  0.7734  0.5925 -0.6334
 6186TIP3    H239974   5.669   2.294  16.748  0.0384 -0.1696  0.5815
 6187TIP3   OH239975   1.100   5.520   0.279 -0.1187 -0.6903 -0.3219
 6187TIP3    H139976   1.087   5.556   0.191  1.7985  2.3945  0.5031
 6187TIP3    H239977   1.193   5.496   0.281 -0.6280 -2.8252  0.2306
 6188TIP3   OH239978   3.385   2.331  16.000  0.0938  0.3131 -0.0034
 6188TIP3    H139979   3.466   2.289  16.028 -0.1047  0.4199  0.7528
 6188TIP3    H239980   3.414   2.406  15.947  0.4905  0.4854  0.4551
 6189TIP3   OH239981   1.186   0.106  15.660 -0.3110 -0.4351  0.0956
 6189TIP3    H139982   1.206   0.014  15.679 -1.3047 -0.7948 -0.5056
 6189TIP3    H239983   1.091   0.108  15.649 -0.0253 -0.2206 -4.1361
 6190TIP3   OH239984   4.222   5.060  13.023 -0.1155 -0.2332 -0.0696
 6190TIP3    H139985   4.293   5.044  13.085  0.3865 -0.5828 -0.7115
 6190TIP3    H239986   4.258   5.030  12.939 -1.1091 -0.6415 -0.3585
 6191TIP3   OH239987   0.435   6.678   2.925  0.5638 -0.2498 -0.0527
 6191TIP3    H139988   0.396   6.765   2.922  1.5626  0.1786 -2.0478
 6191TIP3    H239989   0.514   6.689   2.978 -0.0329 -0.2876  0.8702
 6192TIP3   OH239990   3.375   1.531  11.579 -0.1754  0.0730  0.3564
 6192TIP3    H139991   3.300   1.534  11.520 -1.1997  1.3930  1.6581
 6192TIP3    H239992   3.401   1.439  11.580 -1.6576 -0.3778 -0.2894
 6193TIP3   OH239993   5.191   2.249  12.541  0.7596 -0.0034 -0.1436
 6193TIP3    H139994   5.106   2.211  12.520  0.8663  0.2945 -1.1756
 6193TIP3    H239995   5.171   2.322  12.599 -0.0984  2.3249 -3.1313
 6194TIP3   OH239996   3.579   3.855  16.926 -0.3589 -0.1423 -0.2729
 6194TIP3    H139997   3.603   3.832  17.016  0.0015  0.3770 -0.2324
 6194TIP3    H239998   3.569   3.771  16.881 -1.4042 -0.4438  0.4735
 6195TIP3   OH239999   3.534   5.663   2.085  0.2950  0.5960 -0.3836
 6195TIP3    H140000   3.587   5.597   2.128 -0.1464  1.7938  2.2369
 6195TIP3    H240001   3.576   5.678   2.000  3.9463  1.1966  1.3539
 6196TIP3   OH240002   3.963   1.440  11.617  0.4409  0.2018  0.2457
 6196TIP3    H140003   4.033   1.501  11.596 -0.4157  1.2695  0.3582
 6196TIP3    H240004   4.000   1.383  11.684  1.3347  0.4758 -0.0024
 6197TIP3   OH240005   5.626   2.594  13.936 -0.0845  0.6343  0.1941
 6197TIP3    H140006   5.664   2.515  13.973 -0.1342  0.8158  0.6346
 6197TIP3    H240007   5.682   2.665  13.968  0.0369  0.7713 -0.3002
 6198TIP3   OH240008   3.960   4.325   4.404 -0.2039 -0.4222 -0.4520
 6198TIP3    H140009   3.989   4.373   4.326  0.7882  0.2504  0.2994
 6198TIP3    H240010   3.866   4.338   4.407  0.1996  3.2760  0.8068
 6199TIP3   OH240011   3.303   5.900  11.769  0.5314 -0.0453 -0.0975
 6199TIP3    H140012   3.283   5.848  11.691  0.9548 -0.4875  0.0785
 6199TIP3    H240013   3.273   5.846  11.842  0.8998 -0.0153  0.0829
 6200TIP3   OH240014   0.218   2.607  13.754  0.6119  0.3299 -0.3583
 6200TIP3    H140015   0.241   2.629  13.844 -0.3312 -2.2767  0.6314
 6200TIP3    H240016   0.280   2.537  13.730  0.2012  0.2884 -1.3479
 6201TIP3   OH240017   4.534   2.284   2.266 -0.6032 -0.1834 -0.2186
 6201TIP3    H140018   4.536   2.210   2.205 -0.9116 -0.4004  0.0351
 6201TIP3    H240019   4.455   2.270   2.318 -0.5304  0.1938 -0.0077
 6202TIP3   OH240020   1.794   5.213   5.984 -0.4224  0.3285 -0.5334
 6202TIP3    H140021   1.804   5.240   5.893  2.2272  2.0598  0.1326
 6202TIP3    H240022   1.855   5.139   5.994 -2.0949 -1.1161 -0.5467
 6203TIP3   OH240023   1.785   5.340   1.284 -0.1685 -0.0537  0.1662
 6203TIP3    H140024   1.721   5.299   1.342  0.2146 -1.2381 -0.2103
 6203TIP3    H240025   1.778   5.433   1.302 -1.5134 -0.2251  0.6187
 6204TIP3   OH240026   2.683   0.430  13.125 -1.1656 -0.2247  0.5805
 6204TIP3    H140027   2.756   0.451  13.184  0.6370  0.2024 -1.6337
 6204TIP3    H240028   2.677   0.334  13.128 -0.9219 -0.2254  1.2286
 6205TIP3   OH240029   5.395   4.746   6.342  0.2092 -0.5262 -0.2789
 6205TIP3    H140030   5.404   4.824   6.397 -2.0168 -1.1164  1.0987
 6205TIP3    H240031   5.413   4.673   6.401 -2.7794 -1.2038 -0.0024
 6206TIP3   OH240032   2.042   3.316   5.937  0.1921 -0.4964 -0.0031
 6206TIP3    H140033   1.953   3.351   5.947  0.3451 -0.0372 -0.2260
 6206TIP3    H240034   2.087   3.341   6.018  0.4242  0.2063 -0.3385
 6207TIP3   OH240035   1.770   6.019   0.245 -0.1691 -0.2466  0.1513
 6207TIP3    H140036   1.728   6.088   0.194  1.2740  0.0040 -0.7246
 6207TIP3    H240037   1.810   6.064   0.319  1.8116  0.0590 -1.0642
 6208TIP3   OH240038   2.989   4.787  14.072  0.5833 -0.3284  0.0384
 6208TIP3    H140039   3.003   4.771  13.979  0.5063  1.6075 -0.3482
 6208TIP3    H240040   2.909   4.839  14.076  1.2203  0.6253  1.0749
 6209TIP3   OH240041   0.035   0.238   2.414  0.0936  0.8100  0.0000
 6209TIP3    H140042  -0.015   0.299   2.469  0.5922 -0.1465  1.5584
 6209TIP3    H240043   0.113   0.287   2.389  1.4816  0.2967  2.8658
 6210TIP3   OH240044   0.446   0.265   1.564 -0.0810 -0.3286 -0.4290
 6210TIP3    H140045   0.488   0.198   1.510 -0.1836 -0.2163 -0.6509
 6210TIP3    H240046   0.443   0.343   1.508  0.4834  0.0078 -0.0005
 6211TIP3   OH240047   5.557   6.684  15.555 -0.1350 -0.3689 -0.0432
 6211TIP3    H140048   5.627   6.747  15.567 -0.5299  0.1449 -0.3760
 6211TIP3    H240049   5.599   6.608  15.516  0.5051 -0.6704  1.2048
 6212TIP3   OH240050   0.235   0.968  15.331  0.3862 -0.3822 -0.0127
 6212TIP3    H140051   0.268   0.913  15.260  1.3663  0.3062 -0.1139
 6212TIP3    H240052   0.261   0.923  15.411 -0.4054 -0.9759 -0.0754
 6213TIP3   OH240053   1.500   3.749  14.319  0.1439  0.7378  0.8109
 6213TIP3    H140054   1.409   3.769  14.343  0.1277  2.2269 -0.3436
 6213TIP3    H240055   1.501   3.654  14.310 -1.6072  0.7637 -0.2116
 6214TIP3   OH240056   2.825   5.006  13.103  0.7195  0.3947  0.1860
 6214TIP3    H140057   2.920   5.006  13.107  0.7020  1.2709  0.9250
 6214TIP3    H240058   2.798   5.076  13.163 -0.4121 -0.3813  0.6172
 6215TIP3   OH240059   5.757   2.850   1.831  0.2265 -0.2902 -0.5179
 6215TIP3    H140060   5.740   2.794   1.755  0.2817  1.6511 -2.0331
 6215TIP3    H240061   5.852   2.859   1.833  0.1626  0.4457 -0.8057
 6216TIP3   OH240062   0.235   6.294   2.768  0.3803 -0.1923 -0.0321
 6216TIP3    H140063   0.263   6.203   2.771 -0.3867 -0.5671 -2.2349
 6216TIP3    H240064   0.305   6.340   2.723  0.9236  0.4171  1.3783
 6217TIP3   OH240065   1.067   2.279   1.718 -0.0592  0.6033  0.0947
 6217TIP3    H140066   0.991   2.255   1.770  0.3011 -0.6479  0.0716
 6217TIP3    H240067   1.092   2.366   1.750 -0.3261  0.1983  1.4474
 6218TIP3   OH240068   6.110   5.269  17.157 -0.0999 -0.1836  0.1453
 6218TIP3    H140069   6.144   5.346  17.112 -0.5129 -0.3954 -0.5418
 6218TIP3    H240070   6.133   5.283  17.249 -1.7576  1.6720  0.3672
 6219TIP3   OH240071   2.317   0.586   4.538  0.3993 -0.0466  0.3470
 6219TIP3    H140072   2.239   0.537   4.561  0.9926 -0.9277  0.5291
 6219TIP3    H240073   2.367   0.528   4.480 -0.3775  1.5664 -2.0985
 6220TIP3   OH240074   4.195   2.086   1.065  0.2470  0.4200  0.5462
 6220TIP3    H140075   4.111   2.125   1.090 -0.8603  0.4342 -2.7459
 6220TIP3    H240076   4.175   1.995   1.047  0.7058  0.6212 -1.1109
 6221TIP3   OH240077   2.900   2.006   4.229  0.2577  0.6615 -0.4372
 6221TIP3    H140078   2.856   1.961   4.301 -0.4093  1.2373 -0.4761
 6221TIP3    H240079   2.951   1.937   4.186  0.9916  0.3841  0.8114
 6222TIP3   OH240080   0.778   5.261   5.306 -0.2592  0.1117  0.1077
 6222TIP3    H140081   0.694   5.265   5.261 -0.1449 -0.6943 -0.1802
 6222TIP3    H240082   0.788   5.348   5.344 -1.0587  0.3269 -0.1500
 6223TIP3   OH240083   5.107   5.792   5.202  0.3301 -0.1479 -0.0497
 6223TIP3    H140084   5.104   5.761   5.293 -2.4138 -1.3310 -0.4442
 6223TIP3    H240085   5.144   5.719   5.153  0.2853 -0.1355 -0.1013
 6224TIP3   OH240086   2.371   3.268   4.462  0.0907 -0.2382  0.6142
 6224TIP3    H140087   2.435   3.200   4.442  1.3675  1.1528 -0.2468
 6224TIP3    H240088   2.286   3.224   4.456  0.6896 -1.1619 -2.7607
 6225TIP3   OH240089   0.392   2.917   1.679 -0.5607 -0.2527  0.0721
 6225TIP3    H140090   0.313   2.877   1.643 -1.2965  0.0142  1.3455
 6225TIP3    H240091   0.429   2.966   1.606 -1.1160 -1.0429 -0.7649
 6226TIP3   OH240092   6.447   3.787  14.997 -0.2468  0.0465 -0.4093
 6226TIP3    H140093   6.473   3.695  14.993 -1.3407 -0.3380  0.6555
 6226TIP3    H240094   6.439   3.805  15.091 -0.9377  0.9593 -0.6340
 6227TIP3   OH240095   0.051   2.463   0.099  0.4926 -0.1140  0.1291
 6227TIP3    H140096  -0.025   2.409   0.079  0.3798  0.0581  0.0937
 6227TIP3    H240097   0.071   2.508   0.017  1.0267 -0.6446 -0.0456
 6228TIP3   OH240098   3.098   4.749   3.347 -0.1418  0.3460  0.1251
 6228TIP3    H140099   3.066   4.658   3.346 -2.2407  1.0325 -1.5398
 6228TIP3    H240100   3.121   4.768   3.256  0.7475  1.3474  0.5372
 6229TIP3   OH240101   3.015   2.066  13.876  0.7322  0.2048  0.0570
 6229TIP3    H140102   3.037   2.020  13.957 -1.1387  0.8746  1.0114
 6229TIP3    H240103   3.051   2.154  13.888 -0.0975  0.4972  0.4591
 6230TIP3   OH240104   6.666   0.494  12.292  0.2014 -0.3487  0.0523
 6230TIP3    H140105   6.583   0.447  12.286  0.5414 -1.0395  0.5907
 6230TIP3    H240106   6.706   0.483  12.206  2.0063 -4.3918  1.1567
 6231TIP3   OH240107   1.304   3.997   3.366  0.3835  0.2472  0.4326
 6231TIP3    H140108   1.372   3.930   3.372  0.2026 -0.0611 -0.6872
 6231TIP3    H240109   1.303   4.039   3.452  1.7106 -0.0120  0.5899
 6232TIP3   OH240110   6.410   3.813  15.739  0.0652 -0.2267 -0.3451
 6232TIP3    H140111   6.504   3.807  15.757  0.5978  0.8392 -2.4573
 6232TIP3    H240112   6.393   3.741  15.677 -0.9531 -1.6012  1.4396
 6233TIP3   OH240113   4.664   4.347   2.503 -0.3558 -0.1309 -0.2202
 6233TIP3    H140114   4.682   4.254   2.492 -1.5521 -0.2009 -1.9789
 6233TIP3    H240115   4.718   4.390   2.435  1.3572  0.6562  1.5336
 6234TIP3   OH240116   0.570   4.834   2.562 -0.3004  0.0781 -0.6198
 6234TIP3    H140117   0.551   4.844   2.655  0.1500  0.4702 -0.5680
 6234TIP3    H240118   0.658   4.869   2.551  0.6018 -2.0805 -0.7837
 6235TIP3   OH240119   4.588   5.818  12.445  0.1369 -0.0389 -0.0389
 6235TIP3    H140120   4.633   5.786  12.524  2.0947 -0.8629 -1.3978
 6235TIP3    H240121   4.568   5.739  12.395 -0.2172  0.5176 -0.8004
 6236TIP3   OH240122   4.126   4.019   0.558  0.0410 -0.2668 -0.6051
 6236TIP3    H140123   4.084   3.956   0.499 -0.3507 -0.9554  0.3820
 6236TIP3    H240124   4.218   3.995   0.556  0.7220  1.9871 -3.7002
 6237TIP3   OH240125   5.106   1.925  12.347 -0.1500  0.1988  0.2682
 6237TIP3    H140126   5.055   1.863  12.295 -0.8962  0.7133  0.3696
 6237TIP3    H240127   5.095   1.895  12.438 -1.5819  1.1987  0.4569
 6238TIP3   OH240128   1.731   6.570  14.758 -0.3284 -0.2909 -0.8924
 6238TIP3    H140129   1.716   6.486  14.715  0.4959 -0.1715 -1.4414
 6238TIP3    H240130   1.656   6.624  14.733 -2.2546 -1.6422  1.5945
 6239TIP3   OH240131   0.102   0.302  12.772 -0.1844 -0.7247  0.0378
 6239TIP3    H140132   0.090   0.344  12.687  1.0376 -1.8783 -0.7404
 6239TIP3    H240133   0.030   0.239  12.779 -1.3574  0.6242  0.7107
 6240TIP3   OH240134   3.079   5.844  14.420  0.1849  0.2534  0.4004
 6240TIP3    H140135   3.166   5.881  14.410 -0.2020  0.9535 -0.4871
 6240TIP3    H240136   3.078   5.767  14.363 -0.5068  1.5816 -1.4733
 6241TIP3   OH240137   4.040   0.998  15.195 -0.0204 -0.2760 -0.2117
 6241TIP3    H140138   3.957   0.965  15.230  0.3486  0.2046  1.1834
 6241TIP3    H240139   4.090   1.024  15.272  1.8743 -1.5329 -0.9676
 6242TIP3   OH240140   2.239   0.737   1.265 -0.1238 -0.4725  0.2014
 6242TIP3    H140141   2.197   0.656   1.237 -1.2638  0.5235 -1.1094
 6242TIP3    H240142   2.247   0.789   1.185  2.9382 -0.2675  0.5100
 6243TIP3   OH240143   3.977   6.270   2.950  0.2207 -0.1669 -0.0582
 6243TIP3    H140144   3.899   6.312   2.988  0.4138 -1.5540  2.0577
 6243TIP3    H240145   3.947   6.233   2.867 -1.4108 -0.6872  0.7271
 6244TIP3   OH240146   5.109   4.400   5.194 -0.2220 -0.0542  0.3040
 6244TIP3    H140147   5.096   4.489   5.226 -1.6331  0.6978 -2.1123
 6244TIP3    H240148   5.025   4.356   5.209  0.1151 -0.6574  0.4829
 6245TIP3   OH240149   3.545   0.662  16.662  0.2452 -0.5358  0.4664
 6245TIP3    H140150   3.458   0.683  16.697  0.3557  1.1096 -0.1368
 6245TIP3    H240151   3.605   0.691  16.732  0.3277 -1.5523  0.8287
 6246TIP3   OH240152   3.406   6.097   3.536  0.1536 -0.2110  0.3902
 6246TIP3    H140153   3.454   6.030   3.488  1.7376  0.6278  0.7534
 6246TIP3    H240154   3.345   6.048   3.591  0.8692 -1.3284  0.2180
 6247TIP3   OH240155   0.097   1.440   1.410 -0.1583 -0.1721 -0.3943
 6247TIP3    H140156   0.157   1.496   1.459 -0.3397  1.2162 -1.6774
 6247TIP3    H240157   0.149   1.408   1.336 -0.3527 -0.8686 -0.2351
 6248TIP3   OH240158   0.059   3.434   0.678  0.0327 -0.2181 -0.2769
 6248TIP3    H140159   0.051   3.530   0.683  0.0622 -0.2941  2.4868
 6248TIP3    H240160   0.119   3.411   0.748  0.4893 -2.2612 -1.2735
 6249TIP3   OH240161   5.616   1.538  12.456 -0.3241 -0.0162 -0.6051
 6249TIP3    H140162   5.586   1.618  12.413 -0.5434  1.6159  2.3383
 6249TIP3    H240163   5.709   1.533  12.433 -0.4215  0.7886 -1.2370
 6250TIP3   OH240164   1.084   3.362  15.850 -0.8969 -0.3340 -0.1659
 6250TIP3    H140165   1.079   3.366  15.755 -1.1219 -1.2947 -0.2109
 6250TIP3    H240166   1.031   3.435  15.881 -1.7126 -0.6581 -0.7726
 6251TIP3   OH240167   6.778   2.186  14.918 -0.4848 -0.6332  0.2155
 6251TIP3    H140168   6.745   2.165  14.830  1.1087  2.5679 -1.3351
 6251TIP3    H240169   6.871   2.165  14.913  0.0116  1.3500  0.4042
 6252TIP3   OH240170   0.193   4.210   4.047 -0.8377  0.4493  0.0905
 6252TIP3    H140171   0.117   4.238   4.100  0.6150  2.6606  1.1388
 6252TIP3    H240172   0.183   4.115   4.041 -3.6293  0.6341  0.2562
 6253TIP3   OH240173   5.721   4.569   0.242  0.2496  0.1060 -0.0629
 6253TIP3    H140174   5.684   4.545   0.327  2.8174  0.2251  1.1933
 6253TIP3    H240175   5.662   4.529   0.178 -0.8116 -1.4801  1.7904
 6254TIP3   OH240176   1.022   6.252  15.595 -0.1967  0.0540  0.1894
 6254TIP3    H140177   1.077   6.273  15.670 -0.6668  1.4196  0.1854
 6254TIP3    H240178   0.934   6.279  15.621 -0.6376 -0.8178 -0.3156
 6255TIP3   OH240179   3.959   5.728   2.752  0.2017 -0.1725  0.0483
 6255TIP3    H140180   4.038   5.766   2.789  0.0103  0.6621 -0.3677
 6255TIP3    H240181   3.927   5.794   2.691 -0.6519 -0.6236 -0.0135
 6256TIP3   OH240182   3.622   2.133  17.039  0.1256 -0.6969  0.0151
 6256TIP3    H140183   3.713   2.109  17.023  1.3658  2.8804  0.8305
 6256TIP3    H240184   3.608   2.211  16.986 -0.7175  1.8705  3.6259
 6257TIP3   OH240185   0.850   3.846   5.633  0.8347  0.1506  0.2066
 6257TIP3    H140186   0.857   3.752   5.653 -1.7939  0.1844  1.7708
 6257TIP3    H240187   0.815   3.849   5.544  0.2369 -0.3932  0.4166
 6258TIP3   OH240188   4.339   0.893  15.914 -0.1961 -0.0407 -0.1633
 6258TIP3    H140189   4.310   0.979  15.946 -1.1011 -0.4893  0.2662
 6258TIP3    H240190   4.302   0.886  15.826 -0.1339  0.0011 -0.1930
 6259TIP3   OH240191   3.586   3.586   2.294  0.0687  0.6189  0.0447
 6259TIP3    H140192   3.497   3.606   2.265  0.7205  3.0588 -0.5234
 6259TIP3    H240193   3.589   3.619   2.384  0.2857  0.0864  0.2392
 6260TIP3   OH240194   2.178   3.921   3.340  0.1996 -0.2037 -0.1366
 6260TIP3    H140195   2.194   3.874   3.422 -1.0131 -1.6879 -0.6975
 6260TIP3    H240196   2.161   3.851   3.276 -1.4211  0.9912 -1.0707
 6261TIP3   OH240197   0.916   3.180  13.902  0.0269  0.3842 -0.3680
 6261TIP3    H140198   0.831   3.157  13.865  0.1339  0.4461 -0.6576
 6261TIP3    H240199   0.970   3.102  13.890  0.0451  0.3839 -0.2880
 6262TIP3   OH240200   5.875   6.424  15.636  0.5375 -0.7558 -0.7400
 6262TIP3    H140201   5.971   6.427  15.632  0.5777 -1.2187 -0.2946
 6262TIP3    H240202   5.853   6.474  15.715  0.2586  1.3301 -2.0745
 6263TIP3   OH240203   3.467   2.093  13.353 -0.5065 -0.0513  0.3224
 6263TIP3    H140204   3.494   2.180  13.384  1.2252 -0.1343 -0.8669
 6263TIP3    H240205   3.376   2.104  13.326 -1.6752  0.3860  3.9111
 6264TIP3   OH240206   6.632   6.400   4.090 -0.2001 -0.4802  0.4890
 6264TIP3    H140207   6.565   6.436   4.032  1.9770 -0.9006 -2.5651
 6264TIP3    H240208   6.682   6.477   4.119  1.5409 -0.4852 -2.1621
 6265TIP3   OH240209   2.226   1.331   3.147 -0.0387  0.4386  0.0910
 6265TIP3    H140210   2.203   1.238   3.147 -1.5255  0.7853  0.2929
 6265TIP3    H240211   2.300   1.338   3.208 -0.5646 -0.4528  0.8421
 6266TIP3   OH240212   5.731   2.356  14.029  0.1310 -0.3282 -0.5980
 6266TIP3    H140213   5.814   2.320  14.060 -0.2925  0.2105  1.2837
 6266TIP3    H240214   5.701   2.294  13.963  0.7919 -1.9129  0.5240
 6267TIP3   OH240215   3.417   5.907  12.161 -0.3507 -0.0645  0.0123
 6267TIP3    H140216   3.484   5.881  12.223  0.8381  1.5453 -0.5259
 6267TIP3    H240217   3.466   5.941  12.086 -1.7099  2.3742  0.1225
 6268TIP3   OH240218   1.671   3.073  11.400 -0.3230 -0.3700 -0.2705
 6268TIP3    H140219   1.760   3.088  11.432 -0.0441 -0.2254 -1.0983
 6268TIP3    H240220   1.652   3.149  11.345 -1.1016 -0.2187  0.1942
 6269TIP3   OH240221   3.818   2.605  13.204 -0.5425 -0.0223  0.0901
 6269TIP3    H140222   3.741   2.548  13.199 -0.7571  0.3422 -1.9745
 6269TIP3    H240223   3.809   2.663  13.128  0.0749  2.2645  1.6650
 6270TIP3   OH240224   4.896   6.766  11.026 -0.5492  0.5744 -0.8310
 6270TIP3    H140225   4.963   6.731  10.968  0.2297  0.7685 -0.0603
 6270TIP3    H240226   4.917   6.859  11.035  1.0969  0.0281  2.0169
 6271TIP3   OH240227   0.933   3.514  10.537  0.0899 -0.2091  0.0932
 6271TIP3    H140228   0.925   3.593  10.485  0.7983  0.1221  0.4717
 6271TIP3    H240229   0.845   3.475  10.536 -0.9169  1.8126  1.8365
 6272TIP3   OH240230   5.159   5.059   6.524  0.2389  0.0008  0.0965
 6272TIP3    H140231   5.118   5.116   6.460 -0.7816 -1.9491 -1.0750
 6272TIP3    H240232   5.245   5.037   6.487  0.0476 -0.3477 -0.1442
 6273TIP3   OH240233   5.422   1.226  16.156  0.2559  0.1215  0.0088
 6273TIP3    H140234   5.459   1.143  16.128 -0.6326 -0.3817  0.2832
 6273TIP3    H240235   5.331   1.224  16.125 -0.6639 -0.2894  2.4337
 6274TIP3   OH240236   1.794   3.272  12.262 -0.2597 -0.1084 -0.3130
 6274TIP3    H140237   1.870   3.219  12.239  0.0136  0.4972 -0.8782
 6274TIP3    H240238   1.719   3.217  12.242  0.0268 -0.4650 -0.4194
 6275TIP3   OH240239   3.427   6.010   4.655  0.1912 -0.0896 -0.5602
 6275TIP3    H140240   3.511   6.001   4.610  0.4103 -0.6118 -0.0474
 6275TIP3    H240241   3.449   6.041   4.742 -0.1641 -0.0379 -0.4865
 6276TIP3   OH240242   4.069   2.211  11.672 -0.2357 -0.3512  0.5520
 6276TIP3    H140243   4.150   2.165  11.647 -0.8462 -0.4875 -1.3140
 6276TIP3    H240244   4.071   2.212  11.767  1.1306 -1.8765  0.5882
 6277TIP3   OH240245   0.611   0.015   1.484 -0.4306  0.0389 -0.4676
 6277TIP3    H140246   0.641   0.083   1.545 -3.6909  1.8867 -0.7032
 6277TIP3    H240247   0.553  -0.040   1.535 -0.2379 -0.7195 -1.0415
 6278TIP3   OH240248   1.096   4.547   0.872  0.3956  0.6392 -0.4146
 6278TIP3    H140249   1.185   4.558   0.905 -0.0556  0.4956  0.8954
 6278TIP3    H240250   1.043   4.531   0.950 -0.7070  0.2487 -1.2172
 6279TIP3   OH240251   4.577   4.195   1.002  0.0643  0.2147  0.3033
 6279TIP3    H140252   4.629   4.137   1.058  0.8208  1.9102  1.4564
 6279TIP3    H240253   4.511   4.231   1.060 -1.0126 -0.1986 -0.6321
 6280TIP3   OH240254   2.828   3.252   1.694 -0.5510 -0.0200 -0.2646
 6280TIP3    H140255   2.905   3.238   1.640 -0.6271 -2.5152  0.1270
 6280TIP3    H240256   2.800   3.341   1.674  1.2133  0.2230 -1.9604
 6281TIP3   OH240257   4.408   2.917   3.569  0.2635 -0.0633 -0.0714
 6281TIP3    H140258   4.317   2.886   3.578  0.8841 -1.6445  1.5672
 6281TIP3    H240259   4.441   2.871   3.492  0.1707 -0.8759  0.3624
 6282TIP3   OH240260   5.472   5.841   1.220 -0.5332 -0.1612 -0.1379
 6282TIP3    H140261   5.518   5.762   1.192 -1.1614 -0.6996  0.3282
 6282TIP3    H240262   5.382   5.829   1.189 -0.8285  0.0068  0.6411
 6283TIP3   OH240263   0.450   2.745  15.080 -0.2524 -0.2546 -0.3533
 6283TIP3    H140264   0.510   2.783  15.016  3.7770 -0.4034  2.9077
 6283TIP3    H240265   0.404   2.820  15.117  0.1129  0.2242 -0.8509
 6284TIP3   OH240266   0.067   3.749  11.379  0.6342  0.2790  0.5742
 6284TIP3    H140267   0.053   3.765  11.285  0.7267 -0.8194  0.3566
 6284TIP3    H240268  -0.014   3.708  11.408  2.3310 -4.2993 -0.2590
 6285TIP3   OH240269   0.924   3.412  12.840 -0.0229  0.0397 -0.5055
 6285TIP3    H140270   1.005   3.427  12.890 -1.0749 -0.5745  1.4851
 6285TIP3    H240271   0.895   3.500  12.816  0.3011  0.3954  0.3396
 6286TIP3   OH240272   3.172   2.821   1.289  0.3842 -0.0565  0.4628
 6286TIP3    H140273   3.215   2.739   1.265 -0.6957 -0.5155  0.0332
 6286TIP3    H240274   3.231   2.861   1.353  0.4591 -1.6127  1.4022
 6287TIP3   OH240275   1.850   1.513   1.724  0.5321 -0.3329  0.4937
 6287TIP3    H140276   1.911   1.584   1.705  0.1698 -0.2136 -0.2775
 6287TIP3    H240277   1.775   1.556   1.764  0.2690 -0.2622 -0.0688
 6288TIP3   OH240278   1.729   5.707   5.733  0.3010  1.0245 -0.4749
 6288TIP3    H140279   1.803   5.744   5.683 -0.1801 -0.0589 -2.0821
 6288TIP3    H240280   1.690   5.643   5.673 -0.5968 -0.0295  1.1766
 6289TIP3   OH240281   5.618   3.827  14.868  0.1495 -0.4802 -0.2158
 6289TIP3    H140282   5.625   3.891  14.797 -1.0630 -0.1013 -0.0170
 6289TIP3    H240283   5.604   3.744  14.823  0.1345 -0.3629 -0.4339
 6290TIP3   OH240284   5.069   0.845   5.788 -0.4669 -0.5137 -0.0585
 6290TIP3    H140285   5.051   0.818   5.878  1.4931 -0.6787  0.3220
 6290TIP3    H240286   5.057   0.766   5.736 -1.9308 -0.3461 -0.0387
 6291TIP3   OH240287   6.393   3.117   2.223  0.1461  0.0480  0.2120
 6291TIP3    H140288   6.309   3.077   2.246  0.4254 -0.6883 -0.0144
 6291TIP3    H240289   6.457   3.047   2.235  0.5912  0.2961 -0.6185
 6292TIP3   OH240290   5.946   1.566   6.054  0.3675  0.2243  0.1611
 6292TIP3    H140291   5.910   1.504   5.989 -0.9220 -1.0651  2.0063
 6292TIP3    H240292   6.004   1.622   6.003  1.3971 -2.3243 -1.6981
 6293TIP3   OH240293   0.266   4.571   6.410  0.5013  0.2649 -0.6289
 6293TIP3    H140294   0.211   4.561   6.488  0.0713  0.2229 -0.9351
 6293TIP3    H240295   0.279   4.481   6.379  2.7677  0.0103  0.8108
 6294TIP3   OH240296   4.730   0.937   2.144 -0.1198  0.1918 -0.3636
 6294TIP3    H140297   4.715   0.927   2.237 -0.5936  0.5171 -0.4014
 6294TIP3    H240298   4.776   0.857   2.117 -2.5713 -1.2818 -0.4297
 6295TIP3   OH240299   6.127   2.991   3.927 -0.1045  0.3282 -0.0709
 6295TIP3    H140300   6.130   2.917   3.866 -0.0257  0.3938 -0.1460
 6295TIP3    H240301   6.093   2.953   4.008 -0.6191  0.3343 -0.2845
 6296TIP3   OH240302   2.122   1.169   3.548  0.1651 -0.0372 -0.0674
 6296TIP3    H140303   2.113   1.184   3.454  1.1290 -0.5832 -0.2675
 6296TIP3    H240304   2.052   1.220   3.588  0.6882  1.4436 -0.9691
 6297TIP3   OH240305   0.624   0.964   6.018 -0.4823  0.6325 -0.5255
 6297TIP3    H140306   0.637   1.056   6.040  1.5331  0.7228 -1.8046
 6297TIP3    H240307   0.624   0.962   5.922 -2.1837 -0.5208 -0.5399
 6298TIP3   OH240308   6.648   6.096   4.722  0.1447  0.7303  0.2323
 6298TIP3    H140309   6.597   6.079   4.802 -0.2272 -1.6978 -0.4433
 6298TIP3    H240310   6.592   6.154   4.670 -0.5183  0.6876  0.8761
 6299TIP3   OH240311   4.292   6.032  15.304 -0.5114  0.0129 -0.1887
 6299TIP3    H140312   4.227   6.092  15.341 -0.4341  0.4089 -0.6834
 6299TIP3    H240313   4.278   6.038  15.209 -0.4007 -0.6361 -0.2514
 6300TIP3   OH240314   3.318   4.989  10.962  1.3200  0.0700 -0.7291
 6300TIP3    H140315   3.305   5.080  10.935 -0.0333 -0.4056 -1.7950
 6300TIP3    H240316   3.241   4.968  11.015  2.0109 -0.2338  0.1891
 6301TIP3   OH240317   3.777   1.670   2.052  0.0205 -0.0210  0.1086
 6301TIP3    H140318   3.731   1.696   2.132 -2.1405 -0.7264 -0.8314
 6301TIP3    H240319   3.834   1.598   2.079 -1.0501 -0.5832  0.9420
 6302TIP3   OH240320   3.801   3.797   1.080  0.1684  0.3172  0.4351
 6302TIP3    H140321   3.892   3.769   1.069  0.7154  2.1214  0.1089
 6302TIP3    H240322   3.750   3.720   1.053  1.5785 -0.3334 -0.5496
 6303TIP3   OH240323   6.481   3.085  15.499  0.6404  0.0083  1.2344
 6303TIP3    H140324   6.513   3.064  15.412 -0.8747 -2.0833  1.0908
 6303TIP3    H240325   6.467   3.000  15.540 -0.8976  0.8905  2.6712
 6304TIP3   OH240326   5.031   6.329  14.850 -0.0700  0.5823  0.0896
 6304TIP3    H140327   4.980   6.347  14.771 -1.0036  0.3790  0.6186
 6304TIP3    H240328   5.059   6.238  14.840 -2.5956 -0.4244  1.2093
 6305TIP3   OH240329   5.934   0.128   2.784 -0.4557 -0.2506 -0.3026
 6305TIP3    H140330   5.859   0.089   2.739 -1.8678  0.3710  1.3976
 6305TIP3    H240331   5.955   0.065   2.853  0.6154 -0.4160 -0.7645
 6306TIP3   OH240332   6.660   4.572  14.548 -0.8146  0.6339 -0.2226
 6306TIP3    H140333   6.709   4.653  14.556 -0.1246  0.7168 -3.8101
 6306TIP3    H240334   6.568   4.598  14.559 -0.6243  2.0304 -1.6266
 6307TIP3   OH240335   1.406   4.203   5.387 -0.2759 -0.6209  1.1172
 6307TIP3    H140336   1.449   4.173   5.307 -0.6112  0.9678  0.3165
 6307TIP3    H240337   1.476   4.243   5.439 -0.7210  2.3875 -0.3879
 6308TIP3   OH240338   3.534   1.511   4.335  0.2314  0.0102  0.1430
 6308TIP3    H140339   3.588   1.506   4.414  0.3267  1.2988  0.1914
 6308TIP3    H240340   3.560   1.593   4.294 -0.1655 -0.4117 -0.9827
 6309TIP3   OH240341   1.418   5.038  12.280 -0.2915 -0.1758 -0.0232
 6309TIP3    H140342   1.432   5.112  12.339  1.1087 -1.2619  1.0902
 6309TIP3    H240343   1.506   5.004  12.264 -0.8172 -0.9615 -1.3642
 6310TIP3   OH240344   1.617   2.233   4.089  0.7182  0.0224 -0.7637
 6310TIP3    H140345   1.593   2.231   4.181  3.5576 -0.9656  0.0524
 6310TIP3    H240346   1.560   2.301   4.051 -2.4645 -1.4004  1.0285
 6311TIP3   OH240347   0.171   2.181  16.710  0.4174 -0.7017 -0.0439
 6311TIP3    H140348   0.095   2.238  16.714 -0.0175 -1.3341  1.1467
 6311TIP3    H240349   0.135   2.092  16.706  1.0364 -1.1125  2.2018
 6312TIP3   OH240350   3.458   5.889   6.680  1.2469  0.2733 -0.7057
 6312TIP3    H140351   3.471   5.971   6.729  0.1945  1.7616 -2.7580
 6312TIP3    H240352   3.524   5.892   6.611  2.0379 -1.2804 -0.0462
 6313TIP3   OH240353   6.476   0.733  11.024  0.7996  0.6408  0.3993
 6313TIP3    H140354   6.402   0.754  10.968  0.4786 -1.3079  0.0234
 6313TIP3    H240355   6.512   0.818  11.050 -1.8240  1.6685  0.9737
 6314TIP3   OH240356   0.800   1.765  15.201  0.1688  0.1192  0.0408
 6314TIP3    H140357   0.822   1.791  15.290  0.8828  0.9513 -0.3601
 6314TIP3    H240358   0.823   1.672  15.196 -0.5538 -0.1121  0.9275
 6315TIP3   OH240359   3.804   5.506  11.225 -0.4637  0.7293  0.7646
 6315TIP3    H140360   3.741   5.563  11.268 -1.0942  0.3319  0.3876
 6315TIP3    H240361   3.771   5.417  11.241 -0.2219  0.5352  0.2198
 6316TIP3   OH240362   0.302   6.560   2.165  0.0297 -0.0600  0.4285
 6316TIP3    H140363   0.296   6.619   2.240  1.8102 -1.8456  2.0709
 6316TIP3    H240364   0.395   6.559   2.142  0.0101 -1.9361  0.2644
 6317TIP3   OH240365   2.214   5.484   3.137  0.2191  0.1393 -0.4685
 6317TIP3    H140366   2.264   5.463   3.216 -4.2336 -0.9291  2.4445
 6317TIP3    H240367   2.211   5.579   3.135  1.6869  0.2053 -0.2983
 6318TIP3   OH240368   2.898   5.397  14.408 -0.0449 -0.1619 -0.3227
 6318TIP3    H140369   2.870   5.363  14.493  2.0417 -0.5625  0.2666
 6318TIP3    H240370   2.922   5.488  14.425  1.7189 -0.6189 -0.0841
 6319TIP3   OH240371   0.745   2.283  15.568 -0.3922 -0.5311 -0.3240
 6319TIP3    H140372   0.812   2.349  15.553 -0.3255 -0.2554  1.0430
 6319TIP3    H240373   0.662   2.328  15.551 -0.2635 -0.7871 -1.7173
 6320TIP3   OH240374   0.977   2.695   3.406  0.3197  0.0027  0.2356
 6320TIP3    H140375   0.997   2.602   3.398 -1.8302 -0.4353 -0.9577
 6320TIP3    H240376   0.979   2.712   3.501  2.3045 -0.8123  0.3925
 6321TIP3   OH240377   3.622   6.691   2.901 -0.6633  0.4504  0.1715
 6321TIP3    H140378   3.631   6.739   2.983  1.1720 -0.3439  0.5018
 6321TIP3    H240379   3.711   6.691   2.864 -0.9468 -1.3028 -0.5947
 6322TIP3   OH240380   0.890   1.871  12.288 -0.2073 -0.3639  0.1535
 6322TIP3    H140381   0.834   1.837  12.359  1.1515 -1.6198  0.6687
 6322TIP3    H240382   0.925   1.792  12.246  1.1573  0.3962 -0.1614
 6323TIP3   OH240383   1.439   4.493   6.496  0.0993  0.1492 -0.3352
 6323TIP3    H140384   1.410   4.558   6.560  1.9611  0.6550  0.0482
 6323TIP3    H240385   1.492   4.431   6.546  0.0509 -0.4950 -1.0624
 6324TIP3   OH240386   2.590   4.383  12.079 -0.3654  0.0551 -0.5945
 6324TIP3    H140387   2.602   4.405  12.171  1.9548  0.1367 -0.8569
 6324TIP3    H240388   2.594   4.288  12.076 -1.0129  0.0202 -0.5686
 6325TIP3   OH240389   0.830   5.673   1.899  0.5411 -0.0669 -0.0595
 6325TIP3    H140390   0.860   5.708   1.984 -0.8134 -0.1183  0.4568
 6325TIP3    H240391   0.856   5.741   1.836  0.7050  0.4240  0.5179
 6326TIP3   OH240392   3.563   4.259   3.608 -0.0467  0.0706 -0.1635
 6326TIP3    H140393   3.476   4.296   3.596  0.2740  1.0738  0.4887
 6326TIP3    H240394   3.583   4.218   3.524 -0.2300  1.7960 -1.0944
 6327TIP3   OH240395   0.017   4.760   0.378  0.0105  0.3741 -0.2113
 6327TIP3    H140396   0.095   4.800   0.341 -0.3332  1.3148  0.0528
 6327TIP3    H240397   0.050   4.698   0.443  0.5249  0.9496  0.0776
 6328TIP3   OH240398   2.913   4.537  11.639 -0.5339 -0.0337  0.2799
 6328TIP3    H140399   2.992   4.574  11.678 -1.2853  2.3220 -0.2647
 6328TIP3    H240400   2.910   4.447  11.672  2.6658 -0.4262 -0.1868
 6329TIP3   OH240401   0.184   2.642   6.243  0.0672 -0.2197 -0.5680
 6329TIP3    H140402   0.137   2.665   6.323 -0.8480  0.6211 -1.3246
 6329TIP3    H240403   0.269   2.685   6.252 -0.4099  0.7357 -0.4986
 6330TIP3   OH240404   1.750   2.286  16.683 -0.4119  0.2757 -0.1751
 6330TIP3    H140405   1.755   2.275  16.778  2.7362 -0.7915 -0.3647
 6330TIP3    H240406   1.686   2.221  16.655 -0.0965 -0.6075  1.0782
 6331TIP3   OH240407   5.439   3.775   3.505  0.8357 -0.7310  0.3428
 6331TIP3    H140408   5.518   3.828   3.496  1.1492 -0.9594  1.5876
 6331TIP3    H240409   5.439   3.746   3.597 -0.4584 -1.0950  0.2563
 6332TIP3   OH240410   2.566   4.547  16.435 -0.0666  0.4198 -0.6429
 6332TIP3    H140411   2.481   4.507  16.453  0.3058  0.3963  1.3436
 6332TIP3    H240412   2.584   4.599  16.513  1.6012  0.6759 -1.1645
 6333TIP3   OH240413   2.842   2.558  17.145  0.3315 -0.2815  0.0788
 6333TIP3    H140414   2.848   2.647  17.178  1.9887 -0.1544 -0.4878
 6333TIP3    H240415   2.793   2.510  17.212  1.2349  0.5793  1.3792
 6334TIP3   OH240416   5.272   3.603  14.878  0.1697  0.1480  0.1031
 6334TIP3    H140417   5.292   3.670  14.943 -0.9059  0.7589 -0.1699
 6334TIP3    H240418   5.290   3.645  14.794 -0.8246  0.2234 -0.0851
 6335TIP3   OH240419   5.954   3.393  11.851 -0.3943  0.5111  0.3066
 6335TIP3    H140420   5.924   3.303  11.845 -1.5820  0.8455  0.9054
 6335TIP3    H240421   5.953   3.413  11.945 -1.5727  1.5925  0.0952
 6336TIP3   OH240422   0.550   4.889   5.699 -0.2707 -0.0631  0.0326
 6336TIP3    H140423   0.591   4.870   5.784 -0.6870  0.0780  0.2693
 6336TIP3    H240424   0.607   4.953   5.658  1.0439 -1.6155 -0.6793
 6337TIP3   OH240425   5.871   3.879   0.651 -0.4034 -0.1672  0.0542
 6337TIP3    H140426   5.922   3.800   0.667  0.9867  1.0231  1.8931
 6337TIP3    H240427   5.883   3.896   0.557  0.1982 -1.5163 -0.1375
 6338TIP3   OH240428   6.452   5.136  11.802 -0.0741  0.2114 -0.1585
 6338TIP3    H140429   6.381   5.109  11.744  0.7245  1.4496 -1.7919
 6338TIP3    H240430   6.409   5.160  11.884 -1.1791 -2.0587 -0.0255
 6339TIP3   OH240431   2.267   5.599  15.218  0.0864  0.5655 -0.1966
 6339TIP3    H140432   2.236   5.569  15.304  2.1817  0.1489  0.4794
 6339TIP3    H240433   2.237   5.532  15.157 -1.3665  0.8240  0.1950
 6340TIP3   OH240434   4.990   0.690  11.835 -0.1574 -0.3493 -0.9856
 6340TIP3    H140435   5.007   0.596  11.840  2.5131  0.0374 -1.3645
 6340TIP3    H240436   4.976   0.717  11.925 -2.1242 -1.2290 -0.9671
 6341TIP3   OH240437   1.018   3.637   1.310  0.1446  0.0329 -0.1126
 6341TIP3    H140438   0.981   3.570   1.252 -1.6330  1.3369 -0.5558
 6341TIP3    H240439   1.106   3.653   1.276  0.6214 -2.0346  0.0074
 6342TIP3   OH240440   5.379   2.259   4.752  0.3802  0.0981 -0.4926
 6342TIP3    H140441   5.302   2.316   4.756  1.4184  1.7309 -2.2957
 6342TIP3    H240442   5.351   2.178   4.795 -2.4031  0.5437 -1.2777
 6343TIP3   OH240443   5.191   6.771  12.767  0.5464  0.4136 -0.4647
 6343TIP3    H140444   5.183   6.865  12.782  0.8008  0.6694 -1.7715
 6343TIP3    H240445   5.279   6.748  12.797  0.4034  0.5469  0.0577
 6344TIP3   OH240446   5.624   0.458   4.768  0.4151  0.6492  0.5109
 6344TIP3    H140447   5.578   0.493   4.844  0.5873  0.6799  0.6019
 6344TIP3    H240448   5.557   0.451   4.700 -0.2472 -1.4762  1.3014
 6345TIP3   OH240449   3.002   5.369   0.576  0.3271  0.2019  0.2378
 6345TIP3    H140450   2.923   5.423   0.568  0.4492  0.2266 -1.1224
 6345TIP3    H240451   3.068   5.429   0.611  0.2639  0.7607 -0.5586
 6346TIP3   OH240452   1.841   4.433   5.836  0.4096  0.2147  0.6226
 6346TIP3    H140453   1.789   4.377   5.779  2.1125 -1.0853  0.2952
 6346TIP3    H240454   1.789   4.439   5.917 -0.2411 -1.0434  0.3179
 6347TIP3   OH240455   6.377   3.997   4.106 -0.0188 -0.0553 -0.9072
 6347TIP3    H140456   6.410   4.067   4.162  2.1412 -1.3793 -0.4185
 6347TIP3    H240457   6.438   3.993   4.033 -0.2713 -1.2163 -1.0721
 6348TIP3   OH240458   6.687   0.403   0.830  0.2426 -0.1580  0.1158
 6348TIP3    H140459   6.611   0.374   0.779  0.7898  2.1477 -2.2147
 6348TIP3    H240460   6.692   0.497   0.814  1.2893  0.4643  3.4670
 6349TIP3   OH240461   4.913   1.358  11.889  0.0195 -0.2491 -0.4133
 6349TIP3    H140462   4.933   1.308  11.968  1.9598  0.6710 -0.2782
 6349TIP3    H240463   4.903   1.291  11.821 -0.2804 -0.9629  0.3090
 6350TIP3   OH240464   5.402   2.602   3.749  0.3724 -0.3613  0.3665
 6350TIP3    H140465   5.402   2.525   3.692 -2.7204 -0.0343 -0.2504
 6350TIP3    H240466   5.338   2.581   3.817 -1.1711  1.8886 -0.2778
 6351TIP3   OH240467   2.599   4.678  16.684  0.0460 -0.2439  0.5130
 6351TIP3    H140468   2.586   4.770  16.711  0.4779 -0.2966  0.9119
 6351TIP3    H240469   2.588   4.628  16.765  2.2354 -0.3389  0.7989
 6352TIP3   OH240470   3.009   6.434  16.336  0.3480 -0.3871 -0.3896
 6352TIP3    H140471   2.990   6.387  16.418  0.9837  0.7489  0.4431
 6352TIP3    H240472   2.933   6.417  16.281 -0.4354 -0.5963  0.7099
 6353TIP3   OH240473   5.795   5.961  13.850  0.7711 -0.3776 -0.4444
 6353TIP3    H140474   5.704   5.977  13.872  0.7848 -0.5265 -0.2721
 6353TIP3    H240475   5.803   5.865  13.846  0.7256 -0.3483 -1.3017
 6354TIP3   OH240476   5.842   4.288   0.159 -0.3478 -0.0488 -0.2400
 6354TIP3    H140477   5.766   4.332   0.122 -1.0732 -0.2713  0.9705
 6354TIP3    H240478   5.823   4.195   0.150  0.1213 -0.1150 -0.6075
 6355TIP3   OH240479   0.199   1.246   4.170 -0.0191  0.0054 -0.1803
 6355TIP3    H140480   0.176   1.159   4.202 -0.2665  1.0453  2.7904
 6355TIP3    H240481   0.292   1.241   4.148 -0.2737 -1.2290 -1.0536
 6356TIP3   OH240482   6.772   5.207   6.396 -0.0849 -0.0228  0.3214
 6356TIP3    H140483   6.714   5.282   6.385 -4.1444 -2.8460 -0.0796
 6356TIP3    H240484   6.795   5.180   6.307  0.8711  0.3721  0.4408
 6357TIP3   OH240485   4.387   1.269   4.988 -0.0345  0.5887  0.6097
 6357TIP3    H140486   4.403   1.294   5.079 -1.9569 -0.1947  1.2154
 6357TIP3    H240487   4.310   1.320   4.962 -0.1967 -0.0412 -0.1966
 6358TIP3   OH240488   3.143   5.191   1.996  0.0416 -0.1534  0.5427
 6358TIP3    H140489   3.062   5.240   1.999 -0.6360 -1.0787 -1.2886
 6358TIP3    H240490   3.208   5.252   1.960 -0.0348  0.3149  1.1860
 6359TIP3   OH240491   4.255   2.054  16.263  0.0660  0.4316 -0.1634
 6359TIP3    H140492   4.309   2.029  16.187 -0.7211 -0.9654 -0.2976
 6359TIP3    H240493   4.186   1.988  16.265  0.3120  0.1864  2.0288
 6360TIP3   OH240494   4.470   0.759   2.145 -0.3360  0.0759  0.1871
 6360TIP3    H140495   4.502   0.849   2.156  0.2123 -0.3017  2.1561
 6360TIP3    H240496   4.447   0.731   2.234 -1.0414 -1.5515 -0.4586
 6361TIP3   OH240497   4.137   6.107  13.176 -0.2351  0.7141  0.5041
 6361TIP3    H140498   4.194   6.164  13.228  0.2219 -1.6946  2.8781
 6361TIP3    H240499   4.056   6.102  13.227  0.0363 -1.3083  0.8287
 6362TIP3   OH240500   2.880   4.956  11.179 -0.5461 -0.2963 -0.0019
 6362TIP3    H140501   2.941   4.899  11.226  0.0259  0.3796  0.0899
 6362TIP3    H240502   2.797   4.908  11.178  0.4078 -2.0320 -1.6637
 6363TIP3   OH240503   6.255   3.606  12.639  0.2047  0.3213  0.4223
 6363TIP3    H140504   6.328   3.568  12.687  1.5730  2.4915  0.2143
 6363TIP3    H240505   6.223   3.675  12.697 -0.1407  0.9343 -0.4809
 6364TIP3   OH240506   3.336   2.651  14.635  0.1506 -0.2024  0.1191
 6364TIP3    H140507   3.323   2.582  14.569  1.0016  0.0790 -0.3630
 6364TIP3    H240508   3.375   2.723  14.586  0.2607  0.2263  0.8307
 6365TIP3   OH240509   6.309   2.588  11.590 -0.2770 -0.6022 -0.3113
 6365TIP3    H140510   6.318   2.598  11.685 -1.5024 -0.1746 -0.2177
 6365TIP3    H240511   6.226   2.632  11.570 -1.5530 -3.2253 -1.1681
 6366TIP3   OH240512   3.987   6.008  11.886 -0.1963 -0.2098 -0.0868
 6366TIP3    H140513   3.946   6.086  11.849  1.1049  0.1142 -0.9348
 6366TIP3    H240514   3.914   5.950  11.907 -1.0986  0.3814 -1.4309
 6367TIP3   OH240515   4.700   4.760  12.219  0.1554 -0.1212  0.2450
 6367TIP3    H140516   4.623   4.813  12.236  0.4277  0.0331  1.0419
 6367TIP3    H240517   4.733   4.792  12.135 -0.5276 -0.0512 -0.0022
 6368TIP3   OH240518   1.646   6.380   5.768 -0.0120  0.3126 -0.6852
 6368TIP3    H140519   1.692   6.305   5.804  0.2690  0.5202 -0.6097
 6368TIP3    H240520   1.556   6.370   5.798 -0.0531 -0.1809 -0.9710
 6369TIP3   OH240521   5.902   0.069  15.748  0.0470  0.2829 -0.0925
 6369TIP3    H140522   5.992   0.035  15.751 -0.4799 -1.4190 -1.6941
 6369TIP3    H240523   5.898   0.131  15.821  1.8617 -1.2483  1.4436
 6370TIP3   OH240524   4.674   3.798   3.400  0.0911 -0.2781  0.5151
 6370TIP3    H140525   4.617   3.722   3.393 -0.7242  0.2217  1.4326
 6370TIP3    H240526   4.617   3.868   3.432  0.9528  0.5630  0.2675
 6371TIP3   OH240527   4.827   3.142   5.320  0.5439 -0.9401 -0.0614
 6371TIP3    H140528   4.875   3.100   5.248  1.4830  0.5621 -0.3538
 6371TIP3    H240529   4.808   3.230   5.288  0.0080 -0.6058  1.1277
 6372TIP3   OH240530   4.666   1.495   4.540 -0.2671  0.0620 -0.0988
 6372TIP3    H140531   4.749   1.446   4.541 -0.9037 -1.0513  0.5886
 6372TIP3    H240532   4.609   1.442   4.484 -0.7951  0.3254  0.1894
 6373TIP3   OH240533   1.433   5.629  14.056  0.3689  0.8025 -0.0655
 6373TIP3    H140534   1.506   5.690  14.066  1.3609 -0.4126  0.3558
 6373TIP3    H240535   1.382   5.641  14.136  1.3744  0.0507  0.7139
 6374TIP3   OH240536   4.065   2.294   6.491 -0.4264 -0.4075  0.0601
 6374TIP3    H140537   4.074   2.249   6.407  1.2033  0.4539 -0.2636
 6374TIP3    H240538   4.152   2.294   6.528 -0.3987  2.1091  0.2085
 6375TIP3   OH240539   2.425   1.845  16.023  0.5816 -0.7995  0.2409
 6375TIP3    H140540   2.439   1.872  16.113 -1.0828  2.0736 -0.2208
 6375TIP3    H240541   2.334   1.813  16.022 -0.0010  0.7927 -0.6795
 6376TIP3   OH240542   6.621   2.635  16.855 -0.0670 -0.4402  0.1464
 6376TIP3    H140543   6.693   2.667  16.799 -0.4192 -1.3385 -0.8547
 6376TIP3    H240544   6.602   2.548  16.821 -1.2448 -0.4452  0.7924
 6377TIP3   OH240545   5.814   0.981   1.310 -0.0012 -0.1572  0.5045
 6377TIP3    H140546   5.898   1.027   1.299 -0.2890  0.8193  2.0478
 6377TIP3    H240547   5.770   1.029   1.380 -1.7107 -0.8839 -0.0305
 6378TIP3   OH240548   5.914   1.449   4.350  0.4201 -0.0141 -0.5787
 6378TIP3    H140549   5.986   1.393   4.320  1.0787  1.2625 -1.4595
 6378TIP3    H240550   5.838   1.419   4.299  0.7905 -0.0332 -1.1253
 6379TIP3   OH240551   1.487   0.779   2.009 -0.5983 -0.4837 -0.7548
 6379TIP3    H140552   1.540   0.713   2.053 -0.4229 -0.6525 -1.2084
 6379TIP3    H240553   1.396   0.754   2.028 -0.5279 -0.1530  0.0826
 6380TIP3   OH240554   6.082   6.095  14.123  0.6649 -0.3832 -0.1841
 6380TIP3    H140555   6.091   6.004  14.093 -2.3218 -0.1667 -2.1337
 6380TIP3    H240556   6.056   6.087  14.215  2.8150 -1.3362  0.4169
 6381TIP3   OH240557   5.572   0.074  15.112 -0.0251 -0.2636  0.3404
 6381TIP3    H140558   5.542   0.142  15.172 -1.0339  1.1184 -1.6344
 6381TIP3    H240559   5.583  -0.003  15.168 -0.5362  1.0352  2.3515
 6382TIP3   OH240560   1.320   1.438  13.858 -0.2678  0.3831  0.4247
 6382TIP3    H140561   1.237   1.469  13.894 -0.5321  2.7103 -1.9116
 6382TIP3    H240562   1.295   1.373  13.792 -0.2528  1.0130 -0.2108
 6383TIP3   OH240563   3.899   2.060   2.957 -0.0803  0.4553  0.2537
 6383TIP3    H140564   3.851   2.069   2.875  0.2297 -0.1668 -0.0044
 6383TIP3    H240565   3.946   1.977   2.948  2.5663  1.8806 -0.3299
 6384TIP3   OH240566   4.496   1.555   3.322  0.5672  0.1088 -0.3514
 6384TIP3    H140567   4.444   1.477   3.337 -0.2257  0.5545 -0.7226
 6384TIP3    H240568   4.553   1.532   3.248 -0.9475  0.4652 -1.6782
 6385TIP3   OH240569   5.390   0.471  17.058  0.0442 -1.0214 -0.8767
 6385TIP3    H140570   5.444   0.508  16.988  1.0176  0.3996  0.5481
 6385TIP3    H240571   5.368   0.547  17.113  1.4979 -2.3915  1.7848
 6386TIP3   OH240572   4.669   3.122   6.040  0.7530  0.4117 -0.3856
 6386TIP3    H140573   4.650   3.037   6.000  1.1931  0.4976 -0.7919
 6386TIP3    H240574   4.657   3.108   6.134 -1.3426  0.4710 -0.5849
 6387TIP3   OH240575   4.269   1.972   3.201  0.1745  0.0919  0.0200
 6387TIP3    H140576   4.180   1.994   3.227  0.7985  1.0923  1.4445
 6387TIP3    H240577   4.315   2.056   3.199  1.5575 -0.5980  1.3006
 6388TIP3   OH240578   4.605   4.761  17.060  0.3441 -0.9856 -0.0795
 6388TIP3    H140579   4.668   4.690  17.068  0.9466 -0.4477  0.0067
 6388TIP3    H240580   4.583   4.783  17.151  0.9661 -0.3553 -0.0778
 6389TIP3   OH240581   6.274   4.150  12.987  0.1066  0.1426  0.2483
 6389TIP3    H140582   6.233   4.188  12.910  1.9766  0.8816 -0.4372
 6389TIP3    H240583   6.351   4.105  12.954  0.8851  0.3671  1.6513
 6390TIP3   OH240584   6.415   2.280  13.964  0.0040 -0.2060 -0.0828
 6390TIP3    H140585   6.419   2.196  13.918  0.9455 -1.2669  1.7886
 6390TIP3    H240586   6.370   2.260  14.046  0.0553  1.1854  0.3180
 6391TIP3   OH240587   0.799   3.491   0.118  0.9724 -0.3529 -0.0237
 6391TIP3    H140588   0.725   3.435   0.097  2.6864 -2.7667  0.0171
 6391TIP3    H240589   0.832   3.520   0.032 -0.7858  1.9611 -0.0207
 6392TIP3   OH240590   1.329   5.605  13.800  0.3980 -0.3737  0.6569
 6392TIP3    H140591   1.410   5.614  13.850  1.3891 -3.1336 -0.2976
 6392TIP3    H240592   1.263   5.583  13.867  0.8524 -0.1787  1.1806
 6393TIP3   OH240593   1.980   4.126  14.342  0.4186  0.3702  0.4894
 6393TIP3    H140594   1.954   4.107  14.432 -1.8563 -0.3988 -0.2370
 6393TIP3    H240595   1.903   4.170  14.304  1.6217  1.4071 -0.8650
 6394TIP3   OH240596   3.238   1.890  16.586 -0.0646  0.2999  0.5371
 6394TIP3    H140597   3.268   1.818  16.641 -0.1758 -0.5127 -0.4250
 6394TIP3    H240598   3.192   1.949  16.646  2.6365  1.1563  1.8982
 6395TIP3   OH240599   5.630   1.818   0.055 -0.1711 -1.1407 -0.2716
 6395TIP3    H140600   5.624   1.860   0.141  2.7850 -2.2824  0.6162
 6395TIP3    H240601   5.573   1.741   0.063 -1.9279  0.1205 -0.2800
 6396TIP3   OH240602   3.796   4.157  13.844  0.0368  0.3137 -0.2336
 6396TIP3    H140603   3.757   4.149  13.931  0.2037 -1.0407 -0.2524
 6396TIP3    H240604   3.872   4.098  13.846  1.4152  2.0130 -0.5728
 6397TIP3   OH240605   3.774   1.557  16.575 -0.4153 -0.3737  0.2381
 6397TIP3    H140606   3.783   1.513  16.490 -0.3178 -0.2635  0.1923
 6397TIP3    H240607   3.726   1.494  16.629 -0.7702 -0.3150  0.0009
 6398TIP3   OH240608   3.365   2.306   4.567  0.0609 -0.1035 -0.2001
 6398TIP3    H140609   3.344   2.378   4.626  0.9607 -0.0179  0.0218
 6398TIP3    H240610   3.352   2.227   4.620  0.5590 -0.0406  0.0156
 6399TIP3   OH240611   4.227   1.184   5.972  0.4197 -0.0975 -0.3340
 6399TIP3    H140612   4.138   1.156   5.951  0.0571  0.6599  0.1387
 6399TIP3    H240613   4.273   1.181   5.889 -0.2564  0.2295 -0.7298
 6400TIP3   OH240614   3.460   3.694  14.924 -0.1556  0.5328  0.1728
 6400TIP3    H140615   3.413   3.658  14.849 -2.1844  0.8376  1.2208
 6400TIP3    H240616   3.505   3.619  14.963 -0.0001  0.1701 -0.6795
 6401TIP3   OH240617   0.619   3.851   1.954  0.3311  0.0376  0.2630
 6401TIP3    H140618   0.644   3.874   1.864  1.0563  0.6290  0.6099
 6401TIP3    H240619   0.592   3.934   1.993 -1.3755 -0.4299  0.1796
 6402TIP3   OH240620   5.140   6.183   0.017  0.5304 -0.3769  0.8367
 6402TIP3    H140621   5.114   6.270  -0.013 -0.5050 -1.0498 -0.3448
 6402TIP3    H240622   5.177   6.197   0.104  2.9199  1.6100 -0.3669
 6403TIP3   OH240623   0.912   1.377   5.024  0.7936 -0.3611  0.2345
 6403TIP3    H140624   0.913   1.301   5.083  2.5809  0.0704  0.7979
 6403TIP3    H240625   0.971   1.354   4.953  0.1768 -0.0734 -0.3896
 6404TIP3   OH240626   0.143   3.593  17.034  0.2360  0.3950 -0.7610
 6404TIP3    H140627   0.184   3.672  17.068  0.8782 -1.2420  2.7802
 6404TIP3    H240628   0.051   3.600  17.060  0.5803 -0.5421  0.8820
 6405TIP3   OH240629   3.049   0.267   2.146  0.2481  0.1277  0.1457
 6405TIP3    H140630   3.036   0.195   2.085  1.0109 -0.2985  0.4781
 6405TIP3    H240631   2.967   0.272   2.195 -0.1692  0.1241 -0.5360
 6406TIP3   OH240632   0.250   6.216   0.849 -0.2158 -0.1755 -0.7569
 6406TIP3    H140633   0.248   6.199   0.943  1.0956  0.7705 -0.5247
 6406TIP3    H240634   0.314   6.153   0.815 -1.5445 -1.3135 -1.2260
 6407TIP3   OH240635   5.815   5.217  11.102  0.0487 -0.5526  0.1188
 6407TIP3    H140636   5.758   5.149  11.067  0.0447 -1.1065  1.1718
 6407TIP3    H240637   5.900   5.201  11.060 -0.0456 -0.9922  0.0908
 6408TIP3   OH240638   2.771   4.373  16.431  0.0950 -0.1878  0.2230
 6408TIP3    H140639   2.749   4.310  16.500 -0.7773  0.2120  0.3161
 6408TIP3    H240640   2.695   4.430  16.424  0.0363 -0.4059 -1.3003
 6409TIP3   OH240641   2.085   5.110   0.009 -0.0362  0.4334 -0.3722
 6409TIP3    H140642   2.139   5.189   0.000 -1.2840  1.1745 -1.8193
 6409TIP3    H240643   2.088   5.090   0.103  1.0080  1.6811 -0.1045
 6410TIP3   OH240644   4.684   2.743  11.597 -0.0056 -0.3247 -0.4059
 6410TIP3    H140645   4.699   2.835  11.576 -1.1708 -0.1343 -0.4566
 6410TIP3    H240646   4.702   2.736  11.690 -1.0562  0.2199 -0.1490
 6411TIP3   OH240647   5.498   1.181   0.615  0.2096 -0.1495 -0.3310
 6411TIP3    H140648   5.466   1.228   0.537 -0.0989  0.7763  0.3298
 6411TIP3    H240649   5.588   1.157   0.593 -0.8268 -2.7572 -2.2175
 6412TIP3   OH240650   6.008   5.112  12.982 -0.1515 -0.8144  0.3800
 6412TIP3    H140651   5.999   5.147  13.071 -0.4748  0.3171 -0.0835
 6412TIP3    H240652   5.971   5.024  12.988  0.1086 -0.8751  1.4343
 6413TIP3   OH240653   0.003   0.527   4.809  0.4977  0.1112  0.4758
 6413TIP3    H140654   0.095   0.508   4.789  0.5053  0.6906 -0.1052
 6413TIP3    H240655  -0.044   0.448   4.783  0.8348 -0.1954  0.7930
 6414TIP3   OH240656   1.996   2.514   0.742 -0.1318 -0.7055  0.1670
 6414TIP3    H140657   1.970   2.558   0.661 -0.3631 -2.3802 -0.7001
 6414TIP3    H240658   1.915   2.504   0.792 -0.3853 -1.6502 -0.4073
 6415TIP3   OH240659   3.225   5.342  13.063  0.4613  0.1943 -0.0189
 6415TIP3    H140660   3.233   5.324  12.969  2.5172 -1.0069  0.3296
 6415TIP3    H240661   3.134   5.321  13.083  0.3762 -1.0254 -1.4616
 6416TIP3   OH240662   2.587   4.549  16.938  0.2019  0.3320 -0.4569
 6416TIP3    H140663   2.648   4.475  16.932  1.1862  0.8877  1.5693
 6416TIP3    H240664   2.500   4.510  16.928  0.7598 -0.9007 -0.6947
 6417TIP3   OH240665   6.635   4.782   1.593  0.0108 -0.2083 -0.4648
 6417TIP3    H140666   6.600   4.865   1.561 -0.3388 -0.3396 -0.4264
 6417TIP3    H240667   6.723   4.777   1.556  0.7120  1.0098  0.9553
 6418TIP3   OH240668   4.017   6.193  17.195 -0.4584 -0.0100  0.2179
 6418TIP3    H140669   4.009   6.159  17.285 -0.3523 -1.6398 -0.3448
 6418TIP3    H240670   3.942   6.154  17.149  1.6794 -2.5859 -1.3477
 6419TIP3   OH240671   6.534   3.053  11.616  0.0512  0.3623  0.0975
 6419TIP3    H140672   6.459   3.108  11.641  0.0972  1.7373 -2.4010
 6419TIP3    H240673   6.496   2.986  11.559  0.5032 -0.0581  0.2833
 6420TIP3   OH240674   0.116   2.384  13.164  0.5672  0.0306 -0.0563
 6420TIP3    H140675   0.206   2.376  13.195  0.8677 -0.0501 -0.9173
 6420TIP3    H240676   0.071   2.433  13.233  0.9653 -0.9671  0.9546
 6421TIP3   OH240677   5.691   2.389  12.285 -0.0833 -0.3680 -0.2274
 6421TIP3    H140678   5.639   2.387  12.365 -1.6270  1.0807 -1.1169
 6421TIP3    H240679   5.730   2.477  12.284 -0.8648 -0.0017 -1.4827
 6422TIP3   OH240680   0.607   1.005  17.020 -0.0453 -0.3543 -0.3128
 6422TIP3    H140681   0.538   1.057  17.060  0.7222  0.0719  0.5163
 6422TIP3    H240682   0.582   0.914  17.038 -0.9343 -0.2557 -0.9865
 6423TIP3   OH240683   4.465   2.104   2.655  0.3324  0.1272  0.3938
 6423TIP3    H140684   4.416   2.093   2.573  0.9422  0.4869 -0.0264
 6423TIP3    H240685   4.438   2.189   2.688  0.4710  0.2104  0.2958
 6424TIP3   OH240686   4.867   1.078  11.426 -0.1304  0.0269  0.3700
 6424TIP3    H140687   4.951   1.062  11.383  0.1797  0.1500  0.9297
 6424TIP3    H240688   4.817   0.998  11.411 -1.3405  1.2188 -3.1791
 6425TIP3   OH240689   4.835   2.346  14.173 -0.0976  0.2829  0.6219
 6425TIP3    H140690   4.883   2.423  14.202 -0.5091  0.9062 -0.3029
 6425TIP3    H240691   4.902   2.278  14.163  0.9706  1.5952 -2.3317
 6426TIP3   OH240692   1.769   3.365  10.879  0.0177  0.0576  0.0864
 6426TIP3    H140693   1.766   3.279  10.922  1.1064 -0.4137 -0.7166
 6426TIP3    H240694   1.837   3.413  10.926 -0.1233  0.2386  0.1070
 6427TIP3   OH240695   2.612   5.166   3.617  0.2086 -0.1530  0.1061
 6427TIP3    H140696   2.613   5.096   3.681 -1.0571  0.9572  1.3998
 6427TIP3    H240697   2.601   5.122   3.533 -2.2341 -1.4525  1.0148
 6428TIP3   OH240698   2.932   0.311   6.421 -0.1724  0.3185  0.0578
 6428TIP3    H140699   2.966   0.322   6.510  1.2632  1.5802 -0.5927
 6428TIP3    H240700   2.853   0.366   6.419 -1.8042 -1.8024  1.2709
 6429TIP3   OH240701   5.005   2.099  17.225 -0.1503 -0.2015 -0.2772
 6429TIP3    H140702   5.056   2.071  17.301  1.6973  0.1710 -1.3264
 6429TIP3    H240703   4.985   2.017  17.179 -1.1300 -0.4121  0.5003
 6430TIP3   OH240704   3.011   1.565   1.926  0.1206 -0.2399 -0.7343
 6430TIP3    H140705   3.006   1.508   2.003  2.6455  1.9089  1.1818
 6430TIP3    H240706   3.082   1.527   1.873  3.2194  1.9229  1.5135
 6431TIP3   OH240707   5.291   1.772   5.796 -0.2419 -0.1219  0.3949
 6431TIP3    H140708   5.273   1.699   5.737  2.1721  0.3676 -1.0779
 6431TIP3    H240709   5.311   1.730   5.880  1.4042 -1.2440 -0.4999
 6432TIP3   OH240710   6.273   4.188  15.800  0.1198 -0.2882 -0.2554
 6432TIP3    H140711   6.317   4.272  15.816  1.1431 -0.7813 -0.3494
 6432TIP3    H240712   6.259   4.152  15.888  0.6929 -0.5055 -0.2463
 6433TIP3   OH240713   4.562   1.483  13.330  0.0350 -0.5034  0.1516
 6433TIP3    H140714   4.578   1.461  13.422 -0.2951 -1.5144 -0.0207
 6433TIP3    H240715   4.525   1.403  13.292 -0.4656  0.1175 -0.7046
 6434TIP3   OH240716   0.417   2.822   2.977 -0.6750 -0.9297 -0.9081
 6434TIP3    H140717   0.410   2.834   2.883 -1.2291  0.2581 -0.7248
 6434TIP3    H240718   0.428   2.910   3.013 -0.1059 -1.3949  0.1111
 6435TIP3   OH240719   1.454   1.124  15.075 -0.4016 -0.3207  0.5262
 6435TIP3    H140720   1.445   1.112  14.980  0.1290 -0.7089  0.5187
 6435TIP3    H240721   1.412   1.208  15.093 -0.0536  0.0065 -0.1328
 6436TIP3   OH240722   1.434   6.249  10.997 -0.0514 -0.1179  0.1846
 6436TIP3    H140723   1.395   6.231  10.911 -0.7963 -0.4351  0.5859
 6436TIP3    H240724   1.500   6.180  11.006 -1.1273 -1.1320  0.5843
 6437TIP3   OH240725   0.505   3.429  13.586 -0.5351 -0.3713  0.0030
 6437TIP3    H140726   0.419   3.443  13.624  0.0614  0.6033  1.0564
 6437TIP3    H240727   0.506   3.336  13.561 -1.1045 -0.9691  2.0131
 6438TIP3   OH240728   6.255   5.053  11.576  0.2219  0.3068 -0.0428
 6438TIP3    H140729   6.194   5.126  11.568 -0.5164 -0.2974 -0.0526
 6438TIP3    H240730   6.199   4.976  11.591  1.0308 -0.1184  0.9067
 6439TIP3   OH240731   5.717   5.696  13.914  0.1688 -0.0737  0.4894
 6439TIP3    H140732   5.655   5.663  13.979 -0.9215 -0.4804 -0.7255
 6439TIP3    H240733   5.779   5.624  13.902  0.6388  0.1688  1.3872
 6440TIP3   OH240734   0.529   4.350  12.330 -0.3968 -0.4028  0.4381
 6440TIP3    H140735   0.532   4.267  12.283  0.6201 -0.1397  0.0189
 6440TIP3    H240736   0.620   4.380  12.333 -0.7339  0.6514  0.6547
 6441TIP3   OH240737   3.831   6.368  13.563  0.4185 -0.2438  0.3006
 6441TIP3    H140738   3.925   6.378  13.576  0.2241  0.2594  1.5550
 6441TIP3    H240739   3.792   6.412  13.639 -0.8221 -0.6464 -0.0752
 6442TIP3   OH240740   3.786   1.161   1.853 -0.0558 -0.4279 -0.1978
 6442TIP3    H140741   3.868   1.138   1.809  0.0384  1.1350 -0.9422
 6442TIP3    H240742   3.718   1.138   1.791  0.0667  1.5985 -1.1764
 6443TIP3   OH240743   6.540   2.095  14.462  0.2858  0.2514 -0.5987
 6443TIP3    H140744   6.542   2.050  14.377  0.5383 -1.1857  0.1354
 6443TIP3    H240745   6.528   2.187  14.440 -1.7751 -0.3034 -2.1213
 6444TIP3   OH240746   6.218   3.206  15.794 -0.0695 -0.0600 -0.2767
 6444TIP3    H140747   6.221   3.301  15.798 -0.9994 -0.0695  2.3234
 6444TIP3    H240748   6.304   3.180  15.760  1.0357  1.6549  1.0639
 6445TIP3   OH240749   0.728   0.560   4.062  0.2082 -0.9202 -0.5254
 6445TIP3    H140750   0.742   0.522   3.976  0.0006 -1.3508 -0.3713
 6445TIP3    H240751   0.781   0.640   4.062 -1.5410  0.3175 -1.8823
 6446TIP3   OH240752   5.530   2.606   6.358 -0.1289  0.5109 -0.4443
 6446TIP3    H140753   5.624   2.626   6.350  0.2330 -1.6364 -3.7252
 6446TIP3    H240754   5.487   2.686   6.327  0.5256  1.5416  1.1416
 6447TIP3   OH240755   2.552   4.869   0.624 -0.5068  0.3606  0.2440
 6447TIP3    H140756   2.602   4.824   0.556 -1.5383  0.6090 -0.7002
 6447TIP3    H240757   2.478   4.811   0.642  0.5441 -0.4390  2.2819
 6448TIP3   OH240758   2.592   4.270   4.918  0.0850  0.0118  0.1419
 6448TIP3    H140759   2.528   4.210   4.880 -1.9022  1.1621  1.4394
 6448TIP3    H240760   2.674   4.251   4.873 -0.7862 -2.6598 -0.4607
 6449TIP3   OH240761   2.971   6.390   5.120 -0.8539  0.1337  0.8560
 6449TIP3    H140762   3.000   6.444   5.193  3.0441 -2.0344  1.1980
 6449TIP3    H240763   3.052   6.366   5.074 -2.9622  0.9436 -3.9938
 6450TIP3   OH240764   0.992   4.890   0.934  0.3841  0.3011 -0.8950
 6450TIP3    H140765   0.935   4.906   0.859  0.1019  1.9448 -0.3760
 6450TIP3    H240766   0.939   4.836   0.993 -0.3889  1.2086 -0.7341
 6451TIP3   OH240767   3.662   4.890   1.428 -0.2759  0.1809 -0.0158
 6451TIP3    H140768   3.700   4.867   1.343  0.1788  1.3916 -0.1623
 6451TIP3    H240769   3.691   4.820   1.486  0.6200  0.0931 -0.5419
 6452TIP3   OH240770   6.050   4.203  11.183  0.1231 -0.0486 -0.4978
 6452TIP3    H140771   6.103   4.228  11.107 -0.3030 -0.2522 -0.8669
 6452TIP3    H240772   6.096   4.128  11.220  0.3952  0.1228 -0.4809
 6453TIP3   OH240773   2.632   1.994  13.877  0.6098  0.3704  0.4624
 6453TIP3    H140774   2.558   1.952  13.921  0.3956 -0.6916 -0.8492
 6453TIP3    H240775   2.705   1.933  13.889  0.0753 -0.9698 -2.2447
 6454TIP3   OH240776   5.980   3.952   0.997  0.3254 -0.2440 -0.2747
 6454TIP3    H140777   5.957   4.031   1.045  1.6010  0.1376 -0.2482
 6454TIP3    H240778   5.903   3.932   0.945 -0.7652 -0.1609  1.2502
 6455TIP3   OH240779   5.798   0.208  14.297 -0.2461  0.1561 -0.8703
 6455TIP3    H140780   5.847   0.150  14.355 -0.8205 -1.4959 -1.9911
 6455TIP3    H240781   5.795   0.291  14.345 -0.3807 -1.0182  1.2968
 6456TIP3   OH240782   4.647   4.783  12.626 -0.1814  0.9378  0.0252
 6456TIP3    H140783   4.568   4.834  12.604 -0.5417 -0.2011 -1.5240
 6456TIP3    H240784   4.719   4.838  12.596 -0.4920  1.1359 -0.3758
 6457TIP3   OH240785   4.397   3.667   1.696 -0.4612  0.8686  0.5909
 6457TIP3    H140786   4.398   3.641   1.604  1.2194  0.5964  0.6623
 6457TIP3    H240787   4.474   3.624   1.734 -1.8661 -0.1436  2.4485
 6458TIP3   OH240788   3.887   6.574   5.208 -0.2483 -0.7376 -0.0298
 6458TIP3    H140789   3.810   6.623   5.177 -1.0593 -1.1812  1.1996
 6458TIP3    H240790   3.960   6.612   5.160 -1.2292 -0.3100 -1.2573
 6459TIP3   OH240791   4.601   4.389   5.610  0.0635 -0.2798  0.1671
 6459TIP3    H140792   4.581   4.429   5.695 -0.6025  0.3383 -0.2672
 6459TIP3    H240793   4.568   4.299   5.617 -0.2218 -0.1539  0.4820
 6460TIP3   OH240794   0.985   4.144  15.448  0.2783  0.0731 -0.6675
 6460TIP3    H140795   0.992   4.182  15.360  2.2486  2.5004  0.4027
 6460TIP3    H240796   1.072   4.108  15.465 -0.1678 -0.6141  0.1999
 6461TIP3   OH240797   1.380   4.479   0.592 -0.1114 -0.5700 -0.0741
 6461TIP3    H140798   1.446   4.512   0.652  0.0194  1.9142 -1.4275
 6461TIP3    H240799   1.410   4.509   0.506 -2.2587 -0.5893 -0.8880
 6462TIP3   OH240800   2.191   4.593  13.380 -0.3293  0.0875 -0.1832
 6462TIP3    H140801   2.193   4.506  13.340 -1.6346  0.3624 -0.8847
 6462TIP3    H240802   2.204   4.576  13.474  0.7817 -0.7281 -0.4549
 6463TIP3   OH240803   6.287   2.724  13.454 -0.1564 -0.1711 -0.3487
 6463TIP3    H140804   6.365   2.680  13.487 -0.6956 -0.5108  0.4977
 6463TIP3    H240805   6.214   2.674  13.490 -0.7844  1.1774  0.3380
 6464TIP3   OH240806   2.919   0.021  15.423  0.6270  0.5065  0.1963
 6464TIP3    H140807   2.922   0.102  15.474  0.3756  1.2905 -1.0150
 6464TIP3    H240808   2.863  -0.037  15.475  0.5744  1.2003  0.9345
 6465TIP3   OH240809   1.496   2.651  14.366 -0.1090 -0.0119  0.2645
 6465TIP3    H140810   1.442   2.635  14.289 -1.3795 -0.0304  1.1400
 6465TIP3    H240811   1.484   2.574  14.421  1.6212 -0.4877  0.0427
 6466TIP3   OH240812   4.427   0.957  14.896 -0.1370  0.6996 -0.1723
 6466TIP3    H140813   4.442   0.944  14.803  3.0583 -0.0526  0.3368
 6466TIP3    H240814   4.474   1.038  14.917  0.3257  0.1470  1.0139
 6467TIP3   OH240815   3.005   2.985  14.006 -0.0206  0.5453 -0.2732
 6467TIP3    H140816   3.099   2.976  13.986  0.4389  1.9189  1.0911
 6467TIP3    H240817   2.990   3.079  14.012 -0.9571  0.3243  1.7550
 6468TIP3   OH240818   0.638   5.296   4.641 -0.3364 -0.4608  0.4301
 6468TIP3    H140819   0.584   5.227   4.679 -2.0448  0.1034 -0.8229
 6468TIP3    H240820   0.594   5.377   4.668 -1.1571 -0.0289 -1.9725
 6469TIP3   OH240821   2.223   0.412   0.593 -0.2245 -0.1188 -0.2306
 6469TIP3    H140822   2.231   0.507   0.601  2.5878 -0.3516  0.8361
 6469TIP3    H240823   2.163   0.388   0.663  0.6522  0.7245  0.8573
 6470TIP3   OH240824   2.103   0.502  12.942 -0.5519  0.0090 -0.1690
 6470TIP3    H140825   2.183   0.523  12.990  0.1896  0.6227 -1.5884
 6470TIP3    H240826   2.033   0.544  12.991  0.4580  2.7098 -0.8695
 6471TIP3   OH240827   3.475   3.482  11.892 -0.5385 -0.0769  0.0219
 6471TIP3    H140828   3.536   3.446  11.827  0.5675  4.0189 -1.4829
 6471TIP3    H240829   3.388   3.454  11.862  0.0659  0.4284 -2.3982
 6472TIP3   OH240830   3.652   2.007   0.384  0.7677 -0.0626 -0.0120
 6472TIP3    H140831   3.626   2.068   0.315  2.8728  0.0195 -0.8065
 6472TIP3    H240832   3.574   1.998   0.439 -1.2049 -0.5760 -2.6791
 6473TIP3   OH240833   1.237   0.142  13.118 -0.1798 -0.2358 -0.6424
 6473TIP3    H140834   1.187   0.186  13.050  2.5092  2.2038 -1.2527
 6473TIP3    H240835   1.328   0.158  13.095  0.8820 -0.4764  2.7913
 6474TIP3   OH240836   4.313   3.019  13.082  0.4929 -0.0794  0.0676
 6474TIP3    H140837   4.253   2.944  13.075  0.9673 -0.4315 -0.2770
 6474TIP3    H240838   4.286   3.077  13.011 -1.3539  1.1768  1.6863
 6475TIP3   OH240839   0.584   3.488   1.063 -0.0314  0.2924 -0.0628
 6475TIP3    H140840   0.674   3.519   1.062 -0.5757  1.9797  0.0792
 6475TIP3    H240841   0.585   3.412   1.121  1.3732  0.0225 -0.4182
 6476TIP3   OH240842   2.030   0.535  10.638 -0.0976 -0.7280  0.3204
 6476TIP3    H140843   2.032   0.626  10.608  0.1896 -1.3163 -1.6293
 6476TIP3    H240844   2.107   0.527  10.695  0.3249  0.0606 -0.1101
 6477TIP3   OH240845   4.317   5.557   3.628  0.0109  0.0882 -0.1581
 6477TIP3    H140846   4.358   5.533   3.545  0.4377  1.1136 -0.2509
 6477TIP3    H240847   4.387   5.598   3.679 -0.1933 -0.6909  0.7896
 6478TIP3   OH240848   0.247   0.936   0.017 -0.2412 -0.8646  0.0242
 6478TIP3    H140849   0.226   0.857  -0.032 -1.7479 -1.1253  0.9875
 6478TIP3    H240850   0.284   0.904   0.099  2.8009 -0.4229 -1.0713
 6479TIP3   OH240851   6.531   0.434   3.455  0.1423 -0.1358 -0.3034
 6479TIP3    H140852   6.549   0.360   3.513 -1.5146 -0.3599 -0.0323
 6479TIP3    H240853   6.521   0.395   3.368  0.1646 -0.1046 -0.3203
 6480TIP3   OH240854   5.836   6.429   4.939  0.0667 -0.8962 -0.4106
 6480TIP3    H140855   5.764   6.410   4.879 -0.8906  0.8910  0.0943
 6480TIP3    H240856   5.836   6.356   5.001 -1.1433 -1.0462 -0.5677
 6481TIP3   OH240857   2.590   2.939  11.772 -0.0847  0.2294  0.8205
 6481TIP3    H140858   2.572   2.907  11.861 -0.4441  0.8666  0.9843
 6481TIP3    H240859   2.683   2.963  11.774  0.6540 -2.2702  0.2251
 6482TIP3   OH240860   0.353   4.946  11.818  0.0594 -0.1396  0.4722
 6482TIP3    H140861   0.399   4.867  11.791 -0.3852 -0.0771 -0.4935
 6482TIP3    H240862   0.265   4.915  11.842 -0.2904  0.1299 -0.4366
 6483TIP3   OH240863   3.439   5.334   5.855  0.6452  0.4555  0.0122
 6483TIP3    H140864   3.374   5.266   5.873  1.2309 -0.0468  0.2274
 6483TIP3    H240865   3.457   5.326   5.761 -0.3630  1.2817 -0.2808
 6484TIP3   OH240866   4.321   2.393  12.836 -0.2682  0.5835 -0.4051
 6484TIP3    H140867   4.262   2.468  12.831  1.7142  2.1147 -2.0536
 6484TIP3    H240868   4.324   2.372  12.930 -2.8039  0.8880 -0.1845
 6485TIP3   OH240869   2.414   5.667  16.813  0.1993 -0.2314 -0.4199
 6485TIP3    H140870   2.476   5.613  16.863  0.4010 -0.5762 -1.0405
 6485TIP3    H240871   2.436   5.757  16.838  0.0276 -0.4095  0.4265
 6486TIP3   OH240872   6.688   5.753   5.191  0.0652  0.5126 -0.1250
 6486TIP3    H140873   6.598   5.722   5.202  0.2069  0.5115  1.1649
 6486TIP3    H240874   6.713   5.787   5.277  1.6113 -0.3325 -0.2003
 6487TIP3   OH240875   1.256   1.498  11.580 -0.5365 -0.9546  0.2975
 6487TIP3    H140876   1.178   1.550  11.597 -0.9351 -1.9060  1.5174
 6487TIP3    H240877   1.312   1.555  11.527 -1.2619  0.4281  0.9725
 6488TIP3   OH240878   2.011   6.472  13.966 -0.2339  0.0923 -0.2105
 6488TIP3    H140879   2.036   6.441  14.053 -0.4408 -0.3101 -0.2908
 6488TIP3    H240880   2.087   6.454  13.911 -1.0111 -2.0785 -0.6816
 6489TIP3   OH240881   1.504   3.040   4.497  0.1806 -0.1224 -0.2197
 6489TIP3    H140882   1.458   2.969   4.541  0.2139  0.2369  0.4050
 6489TIP3    H240883   1.547   3.088   4.568 -0.9266  1.3028 -0.4794
 6490TIP3   OH240884   1.959   2.081  12.022 -0.0836  0.0707 -0.3057
 6490TIP3    H140885   1.976   2.175  12.020 -2.4924  0.5813  0.2813
 6490TIP3    H240886   1.888   2.068  11.960  1.9974 -1.8710 -2.4860
 6491TIP3   OH240887   2.338   5.270  17.189  0.3949  0.0309  0.0407
 6491TIP3    H140888   2.417   5.281  17.137 -0.2158  1.5849 -0.6081
 6491TIP3    H240889   2.369   5.256  17.278  1.4040 -0.4984 -0.3787
 6492TIP3   OH240890   1.421   0.962  11.718 -0.0692  0.2095  0.3973
 6492TIP3    H140891   1.465   0.959  11.633 -0.5538  0.0814  0.1469
 6492TIP3    H240892   1.380   1.048  11.721  1.8185  1.1357  1.4702
 6493TIP3   OH240893   0.962   3.270   0.921  0.3784 -0.7417  0.6234
 6493TIP3    H140894   1.049   3.278   0.881 -0.2054  1.0935 -0.4262
 6493TIP3    H240895   0.902   3.298   0.851 -0.8437  0.5982  2.1357
 6494TIP3   OH240896   4.432   1.179  17.072 -0.0269  0.0929  0.1801
 6494TIP3    H140897   4.402   1.108  17.128  3.5371 -1.3961  0.4785
 6494TIP3    H240898   4.469   1.136  16.995 -1.2606  1.9083 -1.5457
 6495TIP3   OH240899   1.195   4.080   1.035 -0.3101 -1.0409  0.1685
 6495TIP3    H140900   1.182   4.164   1.079 -1.0521 -0.9213 -0.2787
 6495TIP3    H240901   1.247   4.029   1.097 -0.5604 -0.5455  0.7955
 6496TIP3   OH240902   4.899   4.275  11.558  0.6699  0.1507 -0.0108
 6496TIP3    H140903   4.995   4.276  11.561  0.6722  0.5140 -0.0883
 6496TIP3    H240904   4.877   4.338  11.489  0.3349  1.2967  1.1079
 6497TIP3   OH240905   6.080   6.731  10.721  0.9080  0.1242  0.6189
 6497TIP3    H140906   6.160   6.776  10.747  0.7429  0.3923  0.6617
 6497TIP3    H240907   6.016   6.801  10.705 -0.1506 -0.0937  3.2752
 6498TIP3   OH240908   4.126   4.239  14.820  0.6119 -0.4095  0.3297
 6498TIP3    H140909   4.131   4.334  14.822 -1.3156 -0.1960 -1.4616
 6498TIP3    H240910   4.161   4.215  14.734 -0.8959 -1.1212 -0.1050
 6499TIP3   OH240911   1.533   3.655   0.953  0.2744 -0.6435 -0.0677
 6499TIP3    H140912   1.515   3.692   1.039 -0.5025 -0.8111 -0.1468
 6499TIP3    H240913   1.594   3.583   0.969  0.7905 -0.1475  0.2359
 6500TIP3   OH240914   4.907   4.278  14.274 -0.4854 -0.3360 -0.0932
 6500TIP3    H140915   4.886   4.243  14.187 -0.0133 -1.3778  0.2054
 6500TIP3    H240916   4.954   4.208  14.318 -0.7054  0.1880  1.0101
 6501TIP3   OH240917   3.970   3.590  12.989  0.1331  0.1766  0.2200
 6501TIP3    H140918   3.979   3.527  12.918 -0.7866 -0.6649  0.8208
 6501TIP3    H240919   3.907   3.550  13.049 -0.3456  1.5899  0.7043
 6502TIP3   OH240920   3.326   5.991  13.856  0.0062  0.2111 -0.0047
 6502TIP3    H140921   3.330   5.909  13.906 -3.1461  0.0593  0.1991
 6502TIP3    H240922   3.279   5.967  13.775  1.5835  1.2702 -1.2861
 6503TIP3   OH240923   5.962   2.585   3.928  0.3910 -0.8497 -0.5737
 6503TIP3    H140924   5.928   2.556   4.013 -1.0733 -0.6145 -1.0639
 6503TIP3    H240925   5.917   2.667   3.910 -1.0562 -1.9986 -2.5973
 6504TIP3   OH240926   3.030   0.944   4.637 -0.1607 -1.0024  0.0870
 6504TIP3    H140927   3.105   0.898   4.676  1.0626  0.7011 -0.1520
 6504TIP3    H240928   3.057   0.961   4.547 -0.5974  0.0739  0.1460
 6505TIP3   OH240929   0.442   4.245   0.209 -0.2566 -0.3658  0.4047
 6505TIP3    H140930   0.419   4.163   0.252  0.1485 -0.3124  0.7222
 6505TIP3    H240931   0.367   4.302   0.224  0.5135  0.1843  2.3881
 6506TIP3   OH240932   1.686   2.295   1.167  0.1926 -0.4686 -0.0561
 6506TIP3    H140933   1.687   2.216   1.222 -1.2250 -0.1262  0.4973
 6506TIP3    H240934   1.739   2.358   1.216 -0.4003 -0.4230  0.5496
 6507TIP3   OH240935   3.643   2.850   5.373  0.7685  0.5484  0.2028
 6507TIP3    H140936   3.721   2.879   5.325  1.1287 -0.4130  0.1879
 6507TIP3    H240937   3.675   2.828   5.460  0.3882  0.7934  0.4074
 6508TIP3   OH240938   0.993   5.910   1.773 -0.3517  0.4968  0.1862
 6508TIP3    H140939   1.037   5.847   1.716 -0.1020 -0.7669  1.6910
 6508TIP3    H240940   0.978   5.987   1.718 -0.0297 -0.6143 -1.5180
 6509TIP3   OH240941   0.598   6.404   1.656 -0.2477  0.3136  0.0861
 6509TIP3    H140942   0.676   6.429   1.706 -0.0663 -1.5665  0.8283
 6509TIP3    H240943   0.535   6.472   1.675  0.3376  0.4495  1.6856
 6510TIP3   OH240944   3.623   0.847  11.993  0.1553  0.0415  1.0076
 6510TIP3    H140945   3.563   0.781  11.958  1.1211 -0.4185  0.1595
 6510TIP3    H240946   3.667   0.883  11.916  1.5939 -0.2608  1.6495
 6511TIP3   OH240947   6.480   3.584   0.859  0.1231 -0.0442 -0.1047
 6511TIP3    H140948   6.509   3.508   0.910  1.9472  0.5167 -0.2265
 6511TIP3    H240949   6.455   3.548   0.774  1.3244 -0.5077 -0.2885
 6512TIP3   OH240950   0.635   3.403  11.295 -0.2967 -0.1863  0.3040
 6512TIP3    H140951   0.679   3.464  11.236  1.6994 -0.4243  1.4464
 6512TIP3    H240952   0.578   3.459  11.349  0.6457  0.5425  0.5737
 6513TIP3   OH240953   0.399   2.206   0.824 -0.4562  0.8748  0.2932
 6513TIP3    H140954   0.371   2.130   0.773  0.0434  0.5738  0.4566
 6513TIP3    H240955   0.429   2.269   0.757 -0.2728  0.6764  0.1862
 6514TIP3   OH240956   1.743   4.491   6.095  0.0985 -0.5061 -0.0182
 6514TIP3    H140957   1.738   4.480   6.190  2.0355 -0.2274  0.1515
 6514TIP3    H240958   1.802   4.566   6.083 -0.2240 -0.4619 -1.4358
 6515TIP3   OH240959   0.426   3.113   5.596  0.3766  0.6461 -0.2339
 6515TIP3    H140960   0.460   3.184   5.542  1.7925  0.2762  0.1298
 6515TIP3    H240961   0.331   3.127   5.597  0.3301  0.8753 -2.4771
 6516TIP3   OH240962   6.164   3.617  14.906  0.2416 -0.0902  0.6069
 6516TIP3    H140963   6.248   3.594  14.948  1.0589 -1.2779 -1.5133
 6516TIP3    H240964   6.117   3.534  14.902  0.6457 -0.2571 -1.6955
 6517TIP3   OH240965   6.453   1.569  13.822 -0.5003  0.0909 -0.6239
 6517TIP3    H140966   6.398   1.563  13.900 -0.5269  3.6296 -0.2343
 6517TIP3    H240967   6.538   1.535  13.850 -0.8155  0.2916  0.6218
 6518TIP3   OH240968   0.409   6.251  11.032 -0.1126 -0.3627  0.3982
 6518TIP3    H140969   0.403   6.262  10.937 -0.4320  0.3207  0.4930
 6518TIP3    H240970   0.406   6.340  11.067  0.3449 -0.5880  1.0334
 6519TIP3   OH240971   3.274   5.212   0.008 -0.1762 -0.1926 -0.2443
 6519TIP3    H140972   3.236   5.279  -0.048  1.2142  0.9939  0.1765
 6519TIP3    H240973   3.347   5.256   0.052  0.5047 -1.8665  0.3708
 6520TIP3   OH240974   3.674   0.796   1.987 -0.2805  0.2843  0.3338
 6520TIP3    H140975   3.720   0.751   1.916 -0.3301  1.2290 -0.3115
 6520TIP3    H240976   3.744   0.818   2.049  0.2159  1.8484 -0.7154
 6521TIP3   OH240977   2.016   2.032   1.527  0.5666 -0.2078 -0.3136
 6521TIP3    H140978   2.011   2.085   1.447 -0.8167  1.0778  0.5617
 6521TIP3    H240979   1.924   2.023   1.555  1.0046 -0.8030  1.0106
 6522TIP3   OH240980   0.717   4.547   4.435  0.3426 -0.0772  0.3564
 6522TIP3    H140981   0.738   4.458   4.406 -2.3936 -1.0316  0.9682
 6522TIP3    H240982   0.679   4.589   4.358  0.3323  0.0875  0.4507
 6523TIP3   OH240983   0.612   2.937   5.626 -0.4205 -0.3643  0.0428
 6523TIP3    H140984   0.557   2.859   5.635 -0.8212 -0.0490  0.3682
 6523TIP3    H240985   0.551   3.007   5.605  0.1052 -0.4100 -1.7332
 6524TIP3   OH240986   3.861   1.790   3.502 -0.0062  0.2346 -0.2559
 6524TIP3    H140987   3.820   1.822   3.582  0.0234  2.3295 -1.0271
 6524TIP3    H240988   3.912   1.864   3.470 -0.3381 -0.4179 -2.4309
 6525TIP3   OH240989   5.891   2.468  13.025 -0.0733  0.0421  0.4927
 6525TIP3    H140990   5.952   2.444  13.094  2.0245  0.9734 -0.9402
 6525TIP3    H240991   5.912   2.559  13.006 -0.8237 -0.0970 -1.1380
 6526TIP3   OH240992   5.194   4.199  12.813  0.1237 -0.0894 -0.3293
 6526TIP3    H140993   5.256   4.127  12.802  0.7954  0.4847 -0.4056
 6526TIP3    H240994   5.116   4.158  12.849  0.7473 -0.7549  0.3184
 6527TIP3   OH240995   1.064   3.101  12.895  0.0881  0.3220 -0.2321
 6527TIP3    H140996   1.083   3.030  12.957  0.7652  0.4302 -0.3042
 6527TIP3    H240997   1.054   3.056  12.810  3.3102  0.5086 -0.8274
 6528TIP3   OH240998   4.254   1.683   1.807 -0.0952 -0.0883 -0.1331
 6528TIP3    H140999   4.322   1.631   1.851 -0.4121 -0.7292 -0.3979
 6528TIP3    H241000   4.172   1.636   1.825 -0.0253 -1.4909 -3.0355
 6529TIP3   OH241001   2.276   1.010   0.294  0.1659  0.3736  0.2957
 6529TIP3    H141002   2.187   0.974   0.292  0.3296 -0.0475  0.5584
 6529TIP3    H241003   2.323   0.955   0.356  1.0666 -0.4547 -1.0742
 6530TIP3   OH241004   2.174   5.272  12.008 -0.6588 -0.5928  0.5149
 6530TIP3    H141005   2.140   5.230  11.929  1.1324 -1.9366  0.3853
 6530TIP3    H241006   2.137   5.221  12.080 -2.7363  0.9704  0.6419
 6531TIP3   OH241007   3.686   0.177   4.311  0.4670 -0.4467 -0.5831
 6531TIP3    H141008   3.742   0.242   4.269  2.1601  0.4693  2.7756
 6531TIP3    H241009   3.694   0.099   4.255  0.7813  1.2362 -3.0433
 6532TIP3   OH241010   5.035   4.637   5.557 -0.1767 -0.3271 -0.1267
 6532TIP3    H141011   4.997   4.617   5.471 -0.6731  0.3627 -0.0765
 6532TIP3    H241012   5.090   4.562   5.577  1.7019  0.4372 -2.0403
 6533TIP3   OH241013   2.324   2.239  15.575  0.6560 -0.0638 -0.0557
 6533TIP3    H141014   2.267   2.307  15.611  0.7860  0.6415 -1.1628
 6533TIP3    H241015   2.405   2.247  15.625 -0.6611 -2.1377  2.6898
 6534TIP3   OH241016   0.791   0.265  11.562  0.0085  0.1065 -0.0318
 6534TIP3    H141017   0.801   0.277  11.656  0.6726 -0.8324  0.0279
 6534TIP3    H241018   0.831   0.180  11.544  1.6673  1.0964 -1.4266
 6535TIP3   OH241019   1.853   2.816   5.592  0.6952  0.6660 -0.4013
 6535TIP3    H141020   1.852   2.770   5.509 -0.0129 -0.0375 -0.0138
 6535TIP3    H241021   1.857   2.909   5.568  3.2151  0.4328 -1.1873
 6536TIP3   OH241022   0.981   2.725   6.604 -0.3260  0.0174 -0.0210
 6536TIP3    H141023   0.947   2.752   6.519 -0.1825 -0.6447 -0.2972
 6536TIP3    H241024   0.903   2.716   6.659 -0.3388  1.4512  0.2271
 6537TIP3   OH241025   0.239   2.984  16.900  0.4900 -0.0508 -0.0011
 6537TIP3    H141026   0.223   2.891  16.883 -0.1850  0.2428 -1.0314
 6537TIP3    H241027   0.276   2.986  16.988  2.4127 -1.4819 -0.7152
 6538TIP3   OH241028   5.570   4.158   5.949 -0.6193 -0.2405 -0.0464
 6538TIP3    H141029   5.521   4.211   6.012 -1.5248  0.6672 -1.4586
 6538TIP3    H241030   5.503   4.112   5.898 -0.1959  1.7806 -2.6840
 6539TIP3   OH241031   3.495   0.089   2.425  0.0036 -0.0386  0.4086
 6539TIP3    H141032   3.505   0.080   2.520 -0.9867  0.2052  0.5500
 6539TIP3    H241033   3.408   0.055   2.406 -0.1723  0.7433 -0.2854
 6540TIP3   OH241034   4.095   6.503  14.660 -0.1147  0.1912 -0.0343
 6540TIP3    H141035   4.066   6.552  14.737 -1.2585  0.7878 -0.8160
 6540TIP3    H241036   4.092   6.567  14.588  1.1726 -0.2894 -0.5481
 6541TIP3   OH241037   4.879   1.021  11.879  0.0514  0.2006  0.2500
 6541TIP3    H141038   4.892   1.076  11.802  2.2440  0.7226  0.9244
 6541TIP3    H241039   4.824   0.949  11.848  0.0329  0.9264 -1.5292
 6542TIP3   OH241040   6.737   3.607  14.018 -0.5627  0.3927 -0.5077
 6542TIP3    H141041   6.681   3.535  14.047 -1.7786  0.9461 -1.4259
 6542TIP3    H241042   6.788   3.569  13.945 -0.5709  0.2217 -0.4253
 6543TIP3   OH241043   4.268   2.413  10.759 -0.5521 -0.2526 -0.1769
 6543TIP3    H141044   4.340   2.455  10.807  0.9088 -1.7165 -1.0027
 6543TIP3    H241045   4.252   2.331  10.806 -1.1540 -0.3101 -0.4694
 6544TIP3   OH241046   2.969   2.421   3.145  0.6361 -0.2545 -0.1031
 6544TIP3    H141047   3.056   2.395   3.176  2.1803  3.5195 -0.7330
 6544TIP3    H241048   2.913   2.415   3.222  1.6345 -1.8899  0.5367
 6545TIP3   OH241049   1.524   3.455  12.477  0.6007 -0.2442 -0.2395
 6545TIP3    H141050   1.434   3.421  12.473  0.4228  0.1738  0.0887
 6545TIP3    H241051   1.550   3.465  12.385  0.9552 -2.0030 -0.3694
 6546TIP3   OH241052   1.058   5.688   0.880  0.0191 -0.1813 -0.2247
 6546TIP3    H141053   1.089   5.599   0.898 -0.5996 -0.1857  0.8905
 6546TIP3    H241054   1.041   5.688   0.785 -0.8911 -1.5665 -0.1015
 6547TIP3   OH241055   4.614   2.532   2.143 -0.1457 -0.6353  0.3966
 6547TIP3    H141056   4.611   2.444   2.182  1.3114 -1.6978 -1.7188
 6547TIP3    H241057   4.691   2.573   2.183  0.2677 -1.0305  0.0125
 6548TIP3   OH241058   2.132   3.358  13.668 -0.5164  0.2633  0.3164
 6548TIP3    H141059   2.080   3.279  13.682  0.3400 -0.3540  0.0780
 6548TIP3    H241060   2.223   3.328  13.665 -0.1924  1.2155 -0.0757
 6549TIP3   OH241061   0.767   1.308   3.774  0.2945 -0.2811  0.7013
 6549TIP3    H141062   0.784   1.360   3.852  2.9195 -0.0448  0.0685
 6549TIP3    H241063   0.672   1.306   3.767 -0.0516 -0.2610  3.8317
 6550TIP3   OH241064   4.255   0.628  11.304 -0.1885 -0.0421  0.3936
 6550TIP3    H141065   4.209   0.702  11.264 -0.5470 -1.3482 -1.7468
 6550TIP3    H241066   4.229   0.552  11.252  2.5992 -1.2071  0.5233
 6551TIP3   OH241067   3.321   5.740   1.176 -0.0937  0.2702  0.1577
 6551TIP3    H141068   3.409   5.706   1.194 -1.6334 -3.7250  1.2076
 6551TIP3    H241069   3.272   5.724   1.256 -1.9264  2.0645 -0.5274
 6552TIP3   OH241070   0.723   5.069  16.853 -0.3967  0.3523  0.5476
 6552TIP3    H141071   0.805   5.056  16.900 -0.9604 -0.4762  1.3368
 6552TIP3    H241072   0.690   4.981  16.837  0.4413  0.5000 -2.7167
 6553TIP3   OH241073   4.748   5.474  15.849  0.2742 -0.1396 -0.4990
 6553TIP3    H141074   4.812   5.409  15.820  2.9498  2.0595  0.0765
 6553TIP3    H241075   4.790   5.558  15.833 -1.7354  1.4055  1.6163
 6554TIP3   OH241076   0.380   4.404  15.548  0.6840  0.1869 -0.3328
 6554TIP3    H141077   0.444   4.359  15.492 -0.9026 -1.7236 -0.7239
 6554TIP3    H241078   0.307   4.342  15.555 -0.2852  1.4658  1.7307
 6555TIP3   OH241079   5.259   1.189  13.058 -0.4448  0.1484  0.2523
 6555TIP3    H141080   5.163   1.186  13.067 -0.4176 -0.0331  0.4750
 6555TIP3    H241081   5.283   1.278  13.084 -0.8165  1.0855 -2.2839
 6556TIP3   OH241082   5.678   1.842   3.969  0.3607  0.2875  0.4201
 6556TIP3    H141083   5.683   1.937   3.959  0.6376  0.5300  2.4688
 6556TIP3    H241084   5.671   1.828   4.063 -2.3491 -1.6212  0.0519
 6557TIP3   OH241085   3.437   5.513   0.944 -0.2121 -0.1418  0.3794
 6557TIP3    H141086   3.424   5.568   0.867 -0.8408 -0.6859  0.0871
 6557TIP3    H241087   3.530   5.492   0.944  0.1353  1.2610  0.7390
 6558TIP3   OH241088   2.906   5.862   0.914 -0.3195 -0.0153 -0.1778
 6558TIP3    H141089   2.836   5.824   0.860  1.5682 -2.1571 -1.2853
 6558TIP3    H241090   2.936   5.937   0.864 -1.1415  0.3115 -0.1907
 6559TIP3   OH241091   4.086   6.318   1.619  0.1765 -0.3025 -0.5513
 6559TIP3    H141092   4.121   6.231   1.603  0.4557 -0.6546  1.6408
 6559TIP3    H241093   3.992   6.304   1.632  0.2098 -0.2700 -0.2698
 6560TIP3   OH241094   0.203   3.883  13.738 -0.3904 -0.0043 -0.3362
 6560TIP3    H141095   0.164   3.945  13.799 -0.7129 -0.9923  0.4864
 6560TIP3    H241096   0.297   3.885  13.757 -0.6414 -1.4419  1.3247
 6561TIP3   OH241097   5.287   6.291   1.721 -0.0717 -0.2511 -0.0986
 6561TIP3    H141098   5.267   6.202   1.691 -1.0781 -0.0200 -0.1565
 6561TIP3    H241099   5.247   6.297   1.808  0.4148 -0.0069  0.1138
 6562TIP3   OH241100   1.976   0.663  12.331 -0.1378  0.1776 -0.3029
 6562TIP3    H141101   2.037   0.728  12.297 -0.8168  0.6253 -0.6930
 6562TIP3    H241102   1.897   0.675  12.279 -1.1192  0.6905  1.2420
 6563TIP3   OH241103   2.404   6.639  13.393  0.0761 -0.8689 -0.9079
 6563TIP3    H141104   2.366   6.571  13.338 -3.5722 -0.3096  0.6209
 6563TIP3    H241105   2.343   6.712  13.387 -0.6900 -0.7903  3.7627
 6564TIP3   OH241106   6.514   2.721   4.750 -0.2767  0.4255  0.1061
 6564TIP3    H141107   6.548   2.647   4.699 -1.1455  0.3500 -0.3906
 6564TIP3    H241108   6.470   2.777   4.686 -0.7361  0.7163  0.6595
 6565TIP3   OH241109   1.201   2.884   0.281  0.6025  0.4920 -0.0898
 6565TIP3    H141110   1.120   2.846   0.248 -0.2057  0.2527  1.9936
 6565TIP3    H241111   1.186   2.979   0.279  0.4807  0.4694 -0.2456
 6566TIP3   OH241112   6.272   4.909   3.119  0.3797 -0.2127  0.2204
 6566TIP3    H141113   6.229   4.825   3.131  0.6573 -0.3096  0.5612
 6566TIP3    H241114   6.224   4.969   3.176  1.5157 -0.6099  1.6557
 6567TIP3   OH241115   3.388   5.080   5.438 -0.0597  0.4810  0.3926
 6567TIP3    H141116   3.330   5.024   5.490  0.1679 -0.1152  0.0088
 6567TIP3    H241117   3.354   5.072   5.349 -0.1330  1.0959  0.3631
 6568TIP3   OH241118   2.678   5.764   4.626 -0.8689 -0.1292  0.1662
 6568TIP3    H141119   2.744   5.788   4.562 -0.4047  0.7782  0.9539
 6568TIP3    H241120   2.702   5.813   4.705 -1.3770 -1.2744  1.0631
 6569TIP3   OH241121   4.304   2.692   2.857  0.0482  0.0926 -0.2037
 6569TIP3    H141122   4.352   2.743   2.792 -0.8385  0.3431 -0.6758
 6569TIP3    H241123   4.259   2.625   2.807 -0.1066 -0.1342  0.2302
 6570TIP3   OH241124   1.593   2.029   1.809  0.2552  0.1592  0.3120
 6570TIP3    H141125   1.505   2.018   1.845  0.2966  0.8838  0.6607
 6570TIP3    H241126   1.591   2.115   1.766  0.5092 -0.2496 -0.5416
 6571TIP3   OH241127   4.844   6.404  16.345  0.6611 -0.7487 -0.1322
 6571TIP3    H141128   4.918   6.398  16.285  1.1223 -0.1501  0.3709
 6571TIP3    H241129   4.873   6.463  16.414  0.9626 -3.1171  1.8983
 6572TIP3   OH241130   5.889   1.211  14.995  0.0865 -0.3076  0.1802
 6572TIP3    H141131   5.842   1.227  14.913 -0.2151  0.3370  0.4715
 6572TIP3    H241132   5.840   1.142  15.038 -0.2382 -0.0707  0.1954
 6573TIP3   OH241133   0.044   2.406  12.006 -0.3788 -0.4019 -0.4779
 6573TIP3    H141134   0.024   2.492  11.969 -1.2253 -0.8503 -1.0992
 6573TIP3    H241135   0.127   2.381  11.966 -0.0936  0.1569 -0.2410
 6574TIP3   OH241136   0.931   1.104   3.327 -0.6511 -0.6908 -0.5971
 6574TIP3    H141137   0.938   1.177   3.388 -1.2397  0.2277 -1.6102
 6574TIP3    H241138   0.998   1.042   3.356  0.8937  0.8969 -0.6220
 6575TIP3   OH241139   3.972   2.695  13.405  0.9036 -0.6674  0.5400
 6575TIP3    H141140   3.974   2.791  13.398  0.8779 -0.5278  2.0431
 6575TIP3    H241141   3.918   2.666  13.332 -0.6053  0.6069  1.1069
 6576TIP3   OH241142   2.092   2.346  12.836  0.7357  0.6593  0.7478
 6576TIP3    H141143   2.140   2.336  12.753 -1.3598 -0.8970 -0.3656
 6576TIP3    H241144   2.153   2.316  12.903  1.7430 -0.0809 -0.4584
 6577TIP3   OH241145   5.212   6.409  12.325  0.4207  0.0061 -0.0153
 6577TIP3    H141146   5.223   6.350  12.400 -0.4024  0.3824  0.4166
 6577TIP3    H241147   5.218   6.497  12.362 -2.3742  0.2617  0.0939
 6578TIP3   OH241148   3.583   4.233   1.240  0.0499  0.2246  0.0655
 6578TIP3    H141149   3.535   4.245   1.322 -0.8152 -0.1986 -0.3675
 6578TIP3    H241150   3.645   4.161   1.258 -0.6879 -0.4073  0.1200
 6579TIP3   OH241151   0.890   0.411  13.918 -0.1578  0.2727  0.7366
 6579TIP3    H141152   0.872   0.448  13.832 -0.6937  0.9070  1.1093
 6579TIP3    H241153   0.810   0.362  13.940  0.5075 -1.0594  0.2864
 6580TIP3   OH241154   4.813   4.992   2.611 -0.4257 -0.1192 -0.5006
 6580TIP3    H141155   4.905   4.972   2.632 -0.3619 -0.8944 -1.4667
 6580TIP3    H241156   4.818   5.064   2.549 -0.5743  1.2503  0.9911
 6581TIP3   OH241157   2.485   2.168   3.732 -0.2824  1.2455  0.1352
 6581TIP3    H141158   2.394   2.197   3.741 -0.5582  0.0207  1.8411
 6581TIP3    H241159   2.478   2.077   3.703  0.2731  0.4073  2.4292
 6582TIP3   OH241160   2.210   1.902  13.697  0.2011  0.3223 -0.1351
 6582TIP3    H141161   2.270   1.829  13.682  1.6628  1.5874 -0.7000
 6582TIP3    H241162   2.168   1.883  13.781  1.2909 -0.6753  0.1967
 6583TIP3   OH241163   1.098   5.962  16.283 -0.1795 -1.0530  0.1091
 6583TIP3    H141164   1.193   5.964  16.297 -0.1108 -0.5176 -0.3931
 6583TIP3    H241165   1.063   6.022  16.348  0.1916  1.9332 -2.1930
 6584TIP3   OH241166   0.974   4.467   2.286  0.2461  0.0405 -0.2910
 6584TIP3    H141167   0.959   4.391   2.230 -1.4525 -1.4066  1.9678
 6584TIP3    H241168   0.936   4.540   2.238 -1.2528 -1.1539 -1.0076
 6585TIP3   OH241169   1.600   1.987  14.545  0.5760  0.2246  0.4434
 6585TIP3    H141170   1.566   1.989  14.634  0.9724 -2.1384  0.7110
 6585TIP3    H241171   1.693   1.970  14.555  0.7934  0.8418 -0.4098
 6586TIP3   OH241172   5.585   2.171   6.483  0.0341 -0.3741  0.2709
 6586TIP3    H141173   5.495   2.200   6.500 -0.0450 -0.5236  0.1129
 6586TIP3    H241174   5.627   2.171   6.569 -0.7445 -2.4836  0.7115
 6587TIP3   OH241175   3.011   1.318   1.208 -0.3859  0.1853  0.0252
 6587TIP3    H141176   2.994   1.304   1.115 -0.8456 -0.1999  0.1584
 6587TIP3    H241177   2.956   1.393   1.232 -2.1037 -1.1383  0.4834
 6588TIP3   OH241178   6.605   2.777  10.343 -0.3622  0.6034  0.6207
 6588TIP3    H141179   6.637   2.867  10.343 -0.8411  0.7764  0.8643
 6588TIP3    H241180   6.661   2.733  10.407  0.5899  0.4547 -0.2838
 6589TIP3   OH241181   6.061   3.458   2.755 -0.5995 -0.5831  0.1748
 6589TIP3    H141182   6.089   3.532   2.700 -1.6989  0.0536  0.4452
 6589TIP3    H241183   6.057   3.384   2.695 -1.9262  0.1347 -0.6703
 6590TIP3   OH241184   4.235   4.236   2.487 -0.0805 -0.2317  0.0788
 6590TIP3    H141185   4.300   4.167   2.473 -0.2685 -0.0590 -1.7623
 6590TIP3    H241186   4.275   4.315   2.453 -0.1807  0.4617  1.4728
 6591TIP3   OH241187   0.045   0.744  16.915  0.4527 -0.1399  0.2016
 6591TIP3    H141188   0.122   0.783  16.873 -0.5218  0.3630 -1.2039
 6591TIP3    H241189   0.021   0.671  16.858 -1.2720  0.9438 -0.5289
 6592TIP3   OH241190   5.639   6.567   0.441 -0.1808 -0.0736  0.5300
 6592TIP3    H141191   5.569   6.536   0.499 -0.2649 -0.7612  0.0708
 6592TIP3    H241192   5.711   6.506   0.455 -0.0711 -0.0257  0.1820
 6593TIP3   OH241193   1.653   1.955   3.635 -0.6266 -0.2521 -0.1403
 6593TIP3    H141194   1.595   2.013   3.586 -0.0575 -0.1331 -0.7043
 6593TIP3    H241195   1.738   1.999   3.631 -0.2708 -0.9378 -0.2497
 6594TIP3   OH241196   5.615   5.399  13.824  0.0708 -0.0532  0.2307
 6594TIP3    H141197   5.614   5.471  13.761  0.0978 -0.8162 -0.6503
 6594TIP3    H241198   5.708   5.378  13.834  0.0022 -0.5930 -0.2421
 6595TIP3   OH241199   1.511   2.489   4.056 -0.2327  0.5492 -0.1229
 6595TIP3    H141200   1.481   2.578   4.038  0.1786  0.2605 -2.5216
 6595TIP3    H241201   1.435   2.445   4.096 -0.7277  1.7011  0.2268
 6596TIP3   OH241202   5.648   1.134   0.295 -0.0405  0.8661 -0.3061
 6596TIP3    H141203   5.739   1.158   0.313  0.4092 -0.2220 -1.0197
 6596TIP3    H241204   5.609   1.215   0.262  0.0793  1.9143  1.9531
 6597TIP3   OH241205   5.657   0.376  12.552  0.3588  0.4237 -0.0294
 6597TIP3    H141206   5.749   0.354  12.569  0.3260 -0.9991 -1.5391
 6597TIP3    H241207   5.661   0.437  12.479  0.1759  2.0567  1.2621
 6598TIP3   OH241208   0.442   5.440  13.374 -0.4513 -0.8821 -0.0068
 6598TIP3    H141209   0.458   5.488  13.456  0.7466 -0.2603 -0.5875
 6598TIP3    H241210   0.412   5.354  13.403 -0.7675 -0.4333  1.0772
 6599TIP3   OH241211   5.745   2.349   0.539  0.9675  0.2572  0.3014
 6599TIP3    H141212   5.691   2.291   0.485  1.5098 -0.5916  0.6477
 6599TIP3    H241213   5.815   2.292   0.572  1.2110  0.9943  1.0835
 6600TIP3   OH241214   2.229   5.770   3.087  0.8249  0.2227 -0.0077
 6600TIP3    H141215   2.183   5.817   3.018  1.6575  1.2918  0.1486
 6600TIP3    H241216   2.167   5.766   3.160  1.1645  2.2258  0.4410
 6601TIP3   OH241217   1.722   1.539  11.559 -0.2658  0.1180  0.0204
 6601TIP3    H141218   1.704   1.503  11.472  0.0456 -0.0822  0.0368
 6601TIP3    H241219   1.669   1.618  11.564  0.0303  0.3545 -0.5129
 6602TIP3   OH241220   2.403   0.994  11.745 -0.1104  0.1669 -0.6043
 6602TIP3    H141221   2.463   1.027  11.678  0.0241 -0.1940 -0.6613
 6602TIP3    H241222   2.450   0.921  11.786  0.0148  0.7040  0.2262
 6603TIP3   OH241223   1.391   0.988  10.928  0.1872 -0.3259 -0.0873
 6603TIP3    H141224   1.417   1.024  10.843  1.4079  0.8753  0.7574
 6603TIP3    H241225   1.317   0.930  10.908  0.1251  0.3194 -1.8926
 6604TIP3   OH241226   4.514   5.961  15.495  0.3065  0.2480  0.1500
 6604TIP3    H141227   4.552   6.046  15.519 -0.1419  1.1387 -2.0770
 6604TIP3    H241228   4.431   5.984  15.453  0.3739 -1.2849 -0.8547
 6605TIP3   OH241229   5.777   1.702  15.168  0.4271 -0.5067  0.1823
 6605TIP3    H141230   5.846   1.705  15.101  0.5186 -0.8134  0.2618
 6605TIP3    H241231   5.765   1.793  15.194  0.7594 -0.4448  0.1233
 6606TIP3   OH241232   4.102   1.539  16.788  0.1173 -0.0338  0.7094
 6606TIP3    H141233   4.041   1.604  16.824  1.3127  2.4142 -1.3951
 6606TIP3    H241234   4.170   1.530  16.855 -0.7861 -0.2150  1.6208
 6607TIP3   OH241235   0.958   4.811  16.417  0.2245  0.2773  0.3438
 6607TIP3    H141236   1.053   4.800  16.415  0.3945  1.5535  0.7278
 6607TIP3    H241237   0.927   4.734  16.466  0.8046 -1.4111 -1.7845
 6608TIP3   OH241238   2.226   0.774  17.142  0.0687  0.0275  0.1422
 6608TIP3    H141239   2.169   0.844  17.111 -0.7585  0.2325  2.0260
 6608TIP3    H241240   2.187   0.694  17.106 -0.8623  0.2503  0.6329
 6609TIP3   OH241241   1.612   5.406   2.625  0.5188  0.2837 -0.0470
 6609TIP3    H141242   1.641   5.323   2.588 -0.7227 -0.2740  0.1934
 6609TIP3    H241243   1.677   5.470   2.594  0.9666 -0.6031 -0.9931
 6610TIP3   OH241244   1.510   4.452   1.911 -0.3893  0.2431  0.3245
 6610TIP3    H141245   1.493   4.438   2.004 -0.5712 -1.1571  0.1022
 6610TIP3    H241246   1.594   4.498   1.909  0.8769 -1.8510  1.1639
 6611TIP3   OH241247   4.349   1.451  14.998 -0.9615 -0.1397 -0.8234
 6611TIP3    H141248   4.376   1.486  14.913 -0.5068  0.6325 -0.3669
 6611TIP3    H241249   4.285   1.383  14.976 -0.0861 -0.6755 -1.8373
 6612TIP3   OH241250   1.805   4.826  10.665 -0.7754  0.2083  0.1363
 6612TIP3    H141251   1.828   4.865  10.580 -1.8557 -3.0763 -1.8374
 6612TIP3    H241252   1.887   4.788  10.696 -0.5546  0.7212  0.2073
 6613TIP3   OH241253   6.325   0.353   5.424  0.0615 -0.0141  0.2730
 6613TIP3    H141254   6.345   0.259   5.424 -0.9153 -0.3688  3.5522
 6613TIP3    H241255   6.230   0.358   5.422 -0.0785  1.2918 -5.2282
 6614TIP3   OH241256   0.426   5.404   2.820  0.5157  0.2570  0.4987
 6614TIP3    H141257   0.385   5.324   2.853  1.5673 -1.4184 -1.9168
 6614TIP3    H241258   0.496   5.423   2.883 -0.1820 -0.3098  1.4719
 6615TIP3   OH241259   2.163   4.628  16.268  0.1096  0.3808 -0.2833
 6615TIP3    H141260   2.078   4.665  16.243  0.1325  0.6161 -0.0289
 6615TIP3    H241261   2.225   4.664  16.204  0.1643  0.9543  0.0824
 6616TIP3   OH241262   3.690   6.091   3.119  0.2873  0.5686 -0.4932
 6616TIP3    H141263   3.609   6.065   3.075  0.6225 -0.3349 -0.5830
 6616TIP3    H241264   3.699   6.184   3.099  0.0492  0.3424 -1.7291
 6617TIP3   OH241265   2.215   4.209  12.217 -0.2347  0.2316 -0.3140
 6617TIP3    H141266   2.246   4.192  12.128  0.8685 -1.2441  0.3067
 6617TIP3    H241267   2.127   4.244  12.206  0.1595  0.7510 -2.0055
 6618TIP3   OH241268   5.355   0.140   6.204  0.3664 -0.5713 -0.1971
 6618TIP3    H141269   5.380   0.112   6.292  0.4783 -1.2361 -0.4402
 6618TIP3    H241270   5.280   0.086   6.181 -0.6023  0.6071  0.0589
 6619TIP3   OH241271   3.391   4.336   1.859  0.4528 -0.1148 -0.2534
 6619TIP3    H141272   3.326   4.369   1.921  1.8717  1.4607  0.4595
 6619TIP3    H241273   3.458   4.404   1.856  2.2197 -1.7909 -0.7440
 6620TIP3   OH241274   0.296   5.911   6.055  0.5712  0.0797  0.6675
 6620TIP3    H141275   0.266   5.822   6.073 -1.5353  0.8232  1.1721
 6620TIP3    H241276   0.339   5.905   5.970 -0.2574 -1.2970  0.3083
 6621TIP3   OH241277   2.667   2.623  11.259  0.5438 -0.6590  0.0856
 6621TIP3    H141278   2.731   2.691  11.236 -0.2457  0.9090  2.1444
 6621TIP3    H241279   2.584   2.658  11.227  0.4421 -1.9570 -1.1787
 6622TIP3   OH241280   4.659   5.085  11.669 -0.5559 -0.0823 -0.2934
 6622TIP3    H141281   4.746   5.081  11.707 -2.2866 -0.7067  4.2346
 6622TIP3    H241282   4.655   5.011  11.608  2.2177  0.4856 -1.2806
 6623TIP3   OH241283   5.868   0.509   1.148 -0.2521 -0.3719  0.6817
 6623TIP3    H141284   5.910   0.443   1.093 -0.3787  0.0524  0.0806
 6623TIP3    H241285   5.889   0.593   1.107 -1.0938 -0.1128  0.7648
 6624TIP3   OH241286   5.008   2.981   4.305  0.1265 -0.5247 -0.4512
 6624TIP3    H141287   5.066   2.917   4.264  0.0118 -0.2468 -1.0588
 6624TIP3    H241288   5.045   2.995   4.392  0.1647 -1.3964 -0.3243
 6625TIP3   OH241289   2.274   0.564   5.416 -0.6450 -0.3746  0.3133
 6625TIP3    H141290   2.216   0.496   5.382  0.0778 -1.2379  0.7534
 6625TIP3    H241291   2.264   0.637   5.355 -2.6107 -0.2594  0.6876
 6626TIP3   OH241292   0.580   5.164   3.380  0.1769  0.1895 -0.1329
 6626TIP3    H141293   0.495   5.192   3.413 -0.0493  0.3605 -0.8508
 6626TIP3    H241294   0.642   5.225   3.420 -0.3675  2.2293 -2.2008
 6627TIP3   OH241295   2.327   4.863   0.872 -0.0168  0.0053  0.0159
 6627TIP3    H141296   2.401   4.849   0.931  0.1565  2.9416  0.6666
 6627TIP3    H241297   2.250   4.868   0.929 -0.3420 -0.4433 -0.3732
 6628TIP3   OH241298   0.445   4.520  14.914 -0.2151 -0.1041 -0.7131
 6628TIP3    H141299   0.353   4.496  14.901 -0.8993  1.0332  1.5242
 6628TIP3    H241300   0.442   4.613  14.938  1.2329 -0.6050  1.7633
 6629TIP3   OH241301   2.483   5.210  15.065 -0.3316  0.2851 -0.3416
 6629TIP3    H141302   2.466   5.119  15.040 -0.2057  0.1101  0.2047
 6629TIP3    H241303   2.434   5.223  15.146  0.6702  0.3114  0.2851
 6630TIP3   OH241304   3.860   0.254   2.242 -0.0187  0.3861 -0.8886
 6630TIP3    H141305   3.830   0.333   2.287  0.2637 -0.1963  0.3540
 6630TIP3    H241306   3.930   0.285   2.184  0.3982  0.9844 -0.0835
 6631TIP3   OH241307   0.623   1.713  16.116  0.8653  0.4953 -0.1705
 6631TIP3    H141308   0.698   1.736  16.171  0.1845  0.1597  0.9067
 6631TIP3    H241309   0.549   1.707  16.176  0.2929 -0.8273 -0.9678
 6632TIP3   OH241310   4.579   5.652   1.403 -0.6536  0.1532 -0.2212
 6632TIP3    H141311   4.586   5.659   1.308 -0.2608 -0.4945 -0.2416
 6632TIP3    H241312   4.636   5.721   1.437 -0.8964  0.4719 -0.4485
 6633TIP3   OH241313   1.895   1.541  15.723  0.2095  0.6295  0.0156
 6633TIP3    H141314   1.880   1.457  15.680  0.3805  1.1804 -1.1555
 6633TIP3    H241315   1.926   1.518  15.811 -0.3802 -0.5211 -0.0613
 6634TIP3   OH241316   1.126   3.716   3.480  0.0191  0.6343 -0.0810
 6634TIP3    H141317   1.170   3.745   3.560 -0.3642 -1.3491  0.9195
 6634TIP3    H241318   1.197   3.685   3.424  0.3226  2.3619 -0.7061
 6635TIP3   OH241319   0.086   0.761  14.430 -0.7942  1.1138 -0.3899
 6635TIP3    H141320   0.162   0.715  14.395  0.1821  1.1276  1.5719
 6635TIP3    H241321   0.117   0.850  14.446 -2.0504  1.9139 -2.1169
 6636TIP3   OH241322   2.019   1.469  13.227 -0.2336 -0.4458 -0.2618
 6636TIP3    H141323   2.095   1.524  13.210  0.1392 -0.9928 -0.3853
 6636TIP3    H241324   2.024   1.450  13.321 -0.3046 -0.3578 -0.2396
 6637TIP3   OH241325   4.998   1.589  14.142  0.0036  0.0647  0.4568
 6637TIP3    H141326   4.922   1.548  14.100 -0.1563  0.9488 -0.1336
 6637TIP3    H241327   5.065   1.520  14.143 -0.7891 -0.7246  0.9901
 6638TIP3   OH241328   1.023   5.245   4.902 -0.2242  0.0956  0.3839
 6638TIP3    H141329   1.029   5.331   4.943  3.4942 -0.2018  0.8987
 6638TIP3    H241330   1.001   5.262   4.811  2.2873  1.9079 -0.0035
 6639TIP3   OH241331   0.834   2.437  13.413 -0.0926 -0.4810  0.1268
 6639TIP3    H141332   0.866   2.447  13.324 -1.6421 -2.6885 -0.7917
 6639TIP3    H241333   0.909   2.404  13.463  0.8185  0.8866 -0.3077
 6640TIP3   OH241334   0.397   4.861   5.163  0.1660  0.1379  0.0374
 6640TIP3    H141335   0.371   4.824   5.079 -1.2782 -1.2130  1.0384
 6640TIP3    H241336   0.337   4.934   5.177  0.5450  0.4979 -0.1850
 6641TIP3   OH241337   1.665   4.599  12.252 -0.5481 -0.2204  0.1277
 6641TIP3    H141338   1.662   4.504  12.262 -0.4860 -0.3873 -1.2436
 6641TIP3    H241339   1.752   4.624  12.282  0.4386 -0.9447 -2.0079
 6642TIP3   OH241340   5.469   4.936  12.542 -0.4161  0.1762 -0.5940
 6642TIP3    H141341   5.529   4.900  12.608 -1.6113 -0.0731  0.3923
 6642TIP3    H241342   5.474   4.875  12.469  1.1551  0.6107 -0.8838
 6643TIP3   OH241343   4.895   0.871   5.448 -0.6559  0.1606  0.1968
 6643TIP3    H141344   4.904   0.934   5.520 -1.4250 -1.0657  1.4012
 6643TIP3    H241345   4.819   0.901   5.399 -1.7169 -0.4335  1.4323
 6644TIP3   OH241346   2.815   1.001   3.938 -0.5405 -0.4972  0.1469
 6644TIP3    H141347   2.789   0.968   4.024 -1.8370 -0.2080 -0.1131
 6644TIP3    H241348   2.735   0.996   3.885 -0.2008  0.9199 -0.5414
 6645TIP3   OH241349   2.881   4.393   0.832 -0.6546 -0.5384 -0.1282
 6645TIP3    H141350   2.955   4.423   0.884 -0.5432  1.0974 -1.1548
 6645TIP3    H241351   2.864   4.304   0.863  1.8866 -1.0519 -0.0515
 6646TIP3   OH241352   1.087   3.457   4.943  0.7631 -0.3749 -0.5607
 6646TIP3    H141353   1.051   3.369   4.933  0.1531 -0.0275 -1.5905
 6646TIP3    H241354   1.168   3.455   4.892 -0.2474  0.2014 -2.2631
 6647TIP3   OH241355   0.176   0.588  15.564  0.0451  0.2560  0.0461
 6647TIP3    H141356   0.082   0.603  15.556  0.0153 -0.5380 -1.2042
 6647TIP3    H241357   0.189   0.567  15.657 -1.1978 -0.8557 -0.0104
 6648TIP3   OH241358   2.382   2.465  15.998 -0.6082  0.3163  0.0271
 6648TIP3    H141359   2.324   2.517  15.943  0.2807  0.2134 -1.0519
 6648TIP3    H241360   2.441   2.529  16.039  1.0138  0.1967 -1.9254
 6649TIP3   OH241361   0.960   5.560  15.651  0.0888  0.3603 -0.3281
 6649TIP3    H141362   1.021   5.633  15.646  2.7244 -1.5566  1.2782
 6649TIP3    H241363   0.972   5.514  15.568 -0.7894  1.1212 -0.8951
 6650TIP3   OH241364   4.907   5.899   4.795 -0.0375  0.3111 -0.6200
 6650TIP3    H141365   4.850   5.975   4.801  1.3341  1.2309  2.3681
 6650TIP3    H241366   4.987   5.933   4.754  0.6095  0.5765  0.7980
 6651TIP3   OH241367   6.197   1.150   4.893  0.0642  0.2421  1.1289
 6651TIP3    H141368   6.277   1.135   4.942  1.5250  0.0937 -1.1957
 6651TIP3    H241369   6.203   1.241   4.863 -1.2369  0.6225  1.8971
 6652TIP3   OH241370   0.478   6.715  15.751  0.1526  0.2426 -0.7007
 6652TIP3    H141371   0.533   6.659  15.806  0.3024 -0.9752 -2.0465
 6652TIP3    H241372   0.510   6.804  15.768  0.4419 -0.1260  0.8675
 6653TIP3   OH241373   1.026   1.499   3.423  0.6207 -0.2338 -0.2934
 6653TIP3    H141374   0.999   1.414   3.456  0.3785 -0.3942 -0.8811
 6653TIP3    H241375   1.116   1.485   3.392  1.4297  0.3059  1.6837
 6654TIP3   OH241376   4.407   4.706   2.041 -0.9175 -0.6648  0.4199
 6654TIP3    H141377   4.341   4.690   1.974  0.8629 -0.5242 -1.4487
 6654TIP3    H241378   4.389   4.796   2.071 -0.5267  0.0694 -1.3871
 6655TIP3   OH241379   0.149   3.946  14.183  0.1320 -0.4260 -0.6051
 6655TIP3    H141380   0.203   3.965  14.107  1.0926  1.9364  0.5639
 6655TIP3    H241381   0.184   3.864  14.218  0.2551 -1.0655 -2.1332
 6656TIP3   OH241382   5.537   0.228  12.753  0.1919  0.4562 -0.3037
 6656TIP3    H141383   5.448   0.262  12.743  0.6187  1.5410 -0.5608
 6656TIP3    H241384   5.573   0.227  12.664  0.2310 -0.5888 -0.2879
 6657TIP3   OH241385   1.387   4.026   1.626  0.6801  0.2100 -0.7421
 6657TIP3    H141386   1.439   4.102   1.654 -0.0453 -0.1399  1.8134
 6657TIP3    H241387   1.442   3.983   1.561  1.7623  2.0958 -1.1654
 6658TIP3   OH241388   1.125   6.420  13.750  0.2664  0.1240  0.5832
 6658TIP3    H141389   1.130   6.343  13.807  1.3776 -2.0286 -2.1772
 6658TIP3    H241390   1.215   6.451  13.744  0.7689 -1.5115 -2.1176
 6659TIP3   OH241391   6.120   2.137  12.428  0.1928  0.4336  0.4094
 6659TIP3    H141392   6.027   2.119  12.439  0.3372  0.1735  1.2355
 6659TIP3    H241393   6.143   2.196  12.500  0.9356 -0.5171  0.9874
 6660TIP3   OH241394   0.504   4.767  11.524  0.0386  0.2478 -0.2040
 6660TIP3    H141395   0.492   4.683  11.480 -2.2430  0.8192 -0.8100
 6660TIP3    H241396   0.479   4.750  11.615 -5.0915  1.0773 -1.1518
 6661TIP3   OH241397   6.503   2.680  12.456  0.2399 -0.0034 -0.0684
 6661TIP3    H141398   6.576   2.644  12.405  0.3496  2.5242 -1.9375
 6661TIP3    H241399   6.544   2.717  12.534  0.7952  0.2264 -0.4590
 6662TIP3   OH241400   4.116   6.408  11.836 -0.4165  0.5931 -0.0116
 6662TIP3    H141401   4.157   6.452  11.761  0.1797 -0.9231 -0.6003
 6662TIP3    H241402   4.114   6.475  11.904  1.6837  1.1565 -0.4453
 6663TIP3   OH241403   2.767   4.529   6.320  0.0136  0.2156 -0.0710
 6663TIP3    H141404   2.811   4.557   6.240 -0.3971 -0.3237 -0.4998
 6663TIP3    H241405   2.836   4.495   6.376  0.4150  1.3551  0.1462
 6664TIP3   OH241406   0.472   3.073  15.555  0.1723 -0.1849  0.7971
 6664TIP3    H141407   0.393   3.028  15.583  1.2819 -2.0811  1.0840
 6664TIP3    H241408   0.537   3.050  15.622  1.3509  0.0438 -0.2356
 6665TIP3   OH241409   6.276   5.363  16.628 -0.4848  0.5875 -0.4218
 6665TIP3    H141410   6.256   5.305  16.555  0.5178 -0.5671  0.1848
 6665TIP3    H241411   6.221   5.331  16.700  0.8150 -0.3323  0.2131
 6666TIP3   OH241412   0.437   2.081  15.475  0.1736 -0.1978 -0.7711
 6666TIP3    H141413   0.453   2.137  15.399  2.1600  0.2664 -0.0721
 6666TIP3    H241414   0.381   2.011  15.441  0.4561  0.3473 -2.5008
 6667TIP3   OH241415   3.498   3.779   0.099 -0.3562  0.1085  0.1243
 6667TIP3    H141416   3.551   3.710   0.058 -0.9443 -0.6058  0.5457
 6667TIP3    H241417   3.476   3.838   0.027 -1.4845 -1.2003 -0.6593
 6668TIP3   OH241418   5.106   2.364  15.426 -0.7900  0.0323  0.1192
 6668TIP3    H141419   5.147   2.295  15.477 -0.5672  0.3235  0.3378
 6668TIP3    H241420   5.175   2.429  15.413 -0.3500 -0.7511 -1.9283
 6669TIP3   OH241421   3.979   0.899   3.693  0.6586  0.2559 -0.4062
 6669TIP3    H141422   3.940   0.813   3.676  0.6139  0.4653 -1.4251
 6669TIP3    H241423   3.905   0.959   3.692  0.6404  0.2758  0.6771
 6670TIP3   OH241424   5.659   2.731  14.788  0.5731 -0.2671  0.2980
 6670TIP3    H141425   5.579   2.679  14.797 -1.2816  2.1394 -0.9617
 6670TIP3    H241426   5.712   2.707  14.863 -1.7530 -1.3154  1.7181
 6671TIP3   OH241427   3.852   1.383   3.245 -0.2481  0.0712 -0.2777
 6671TIP3    H141428   3.822   1.463   3.288  1.9632  0.5780  0.4578
 6671TIP3    H241429   3.843   1.400   3.152 -1.9275  0.2639 -0.1064
 6672TIP3   OH241430   5.504   2.226  11.957 -0.2757 -0.1136 -0.1162
 6672TIP3    H141431   5.437   2.288  11.988 -0.6010 -0.0967 -0.8385
 6672TIP3    H241432   5.459   2.172  11.893  0.5765  0.3804 -1.1749
 6673TIP3   OH241433   2.083   6.109   5.029  0.1444 -0.6531 -0.4790
 6673TIP3    H141434   2.033   6.027   5.030 -0.0008 -0.5821 -1.1869
 6673TIP3    H241435   2.116   6.118   5.118  0.1438 -1.4699 -0.3868
 6674TIP3   OH241436   5.755   0.153   3.846 -0.8429 -0.1661  0.2752
 6674TIP3    H141437   5.785   0.081   3.902 -0.0841 -0.4736 -0.4943
 6674TIP3    H241438   5.771   0.232   3.898  3.3238 -0.1018 -0.7652
 6675TIP3   OH241439   5.277   5.802  12.864 -0.2321 -0.1459  0.3918
 6675TIP3    H141440   5.312   5.744  12.932 -0.9960 -0.4703  0.5132
 6675TIP3    H241441   5.205   5.848  12.906  1.8797  2.7832  1.0759
 6676TIP3   OH241442   3.268   3.607  15.310  0.1505 -0.0431 -0.1854
 6676TIP3    H141443   3.233   3.582  15.224  0.1053 -0.0295 -0.1705
 6676TIP3    H241444   3.256   3.702  15.314  1.0189  0.0905 -0.5577
 6677TIP3   OH241445   6.744   2.068   4.745  0.1317 -0.3820 -0.8472
 6677TIP3    H141446   6.714   1.998   4.687  0.5271 -2.6389  1.5230
 6677TIP3    H241447   6.675   2.077   4.810  0.2086  1.3024 -0.9473
 6678TIP3   OH241448   4.528   2.322   1.851 -0.4648  0.0374 -0.0700
 6678TIP3    H141449   4.556   2.408   1.881 -1.7333  0.8293 -1.0644
 6678TIP3    H241450   4.433   2.325   1.856 -0.5236 -1.4211  0.1491
 6679TIP3   OH241451   6.417   0.827   0.731  0.0883 -0.1929  0.0555
 6679TIP3    H141452   6.345   0.765   0.738 -0.3089  0.3352  0.7919
 6679TIP3    H241453   6.460   0.804   0.649  0.0283 -1.5100  0.3694
 6680TIP3   OH241454   6.338   3.624  11.624 -0.4211  0.6956  0.4509
 6680TIP3    H141455   6.273   3.620  11.553  0.4697  3.0053 -0.5763
 6680TIP3    H241456   6.290   3.591  11.701 -2.5707  1.5417 -0.4319
 6681TIP3   OH241457   0.351   0.010   4.331 -0.3535  0.3324 -0.3264
 6681TIP3    H141458   0.419  -0.056   4.337 -1.1075 -0.4168  0.1437
 6681TIP3    H241459   0.296  -0.019   4.258 -0.4481  0.6708 -0.3917
 6682TIP3   OH241460   5.860   0.303  16.982  0.0403  0.3011 -0.0491
 6682TIP3    H141461   5.776   0.314  16.936  0.1710  0.8881 -0.1590
 6682TIP3    H241462   5.847   0.346  17.066 -0.5180 -1.6114  0.8958
 6683TIP3   OH241463   3.980   4.396   2.975  0.1711  0.7705 -0.2558
 6683TIP3    H141464   4.053   4.361   2.924 -1.0054 -1.2589 -0.6883
 6683TIP3    H241465   3.985   4.349   3.059 -1.3209 -0.3943 -0.7678
 6684TIP3   OH241466   3.762   6.538  16.258  0.3616  0.0259  0.5553
 6684TIP3    H141467   3.684   6.495  16.293  1.0788 -0.6809  1.3123
 6684TIP3    H241468   3.835   6.492  16.299  1.1684  1.7737  1.1568
 6685TIP3   OH241469   4.095   6.434  13.589 -0.0157  0.3940  0.4062
 6685TIP3    H141470   4.164   6.447  13.653  1.0983  1.4670 -0.9384
 6685TIP3    H241471   4.047   6.517  13.588  1.8329  1.5630 -2.1776
 6686TIP3   OH241472   0.796   0.115   1.662  0.2615  0.1413 -0.3601
 6686TIP3    H141473   0.858   0.048   1.694  0.6352 -0.2664 -1.8736
 6686TIP3    H241474   0.777   0.168   1.739 -0.7389 -2.2164  1.1252
 6687TIP3   OH241475   6.630   4.800   4.732 -0.2464  0.1631 -0.2041
 6687TIP3    H141476   6.643   4.726   4.790 -0.7935  0.0174 -0.2682
 6687TIP3    H241477   6.717   4.841   4.725 -0.0831 -0.0947  0.3319
 6688TIP3   OH241478   0.049   1.627   2.787  0.5627 -0.0100  0.4095
 6688TIP3    H141479   0.039   1.703   2.844 -0.7551  1.4724 -1.6527
 6688TIP3    H241480   0.064   1.554   2.847 -0.5274  1.4625  2.6296
 6689TIP3   OH241481   4.797   0.577  12.705  0.3365  0.7790  0.6386
 6689TIP3    H141482   4.705   0.602  12.712  0.3943  1.0091  0.5893
 6689TIP3    H241483   4.810   0.514  12.775  0.7422  2.5406  2.2501
 6690TIP3   OH241484   3.511   3.460   0.750  0.1328 -0.3307 -0.5896
 6690TIP3    H141485   3.525   3.539   0.801  1.7331 -0.2476 -1.0889
 6690TIP3    H241486   3.526   3.388   0.811  1.2076 -0.2331 -0.7282
 6691TIP3   OH241487   1.960   1.250  15.659  0.6865 -0.1974 -0.0504
 6691TIP3    H141488   1.887   1.228  15.601  0.7379  3.2264 -1.6827
 6691TIP3    H241489   2.038   1.223  15.610  0.6365 -0.8795  0.2334
 6692TIP3   OH241490   1.351   5.118  14.577  0.2328  0.6484  0.6254
 6692TIP3    H141491   1.298   5.105  14.655  0.5651 -0.2306  0.7153
 6692TIP3    H241492   1.419   5.180  14.605 -0.9172  2.0851  0.4030
 6693TIP3   OH241493   5.829   5.957  13.377  0.0132  0.5096 -0.6188
 6693TIP3    H141494   5.743   5.945  13.336  0.0567 -0.8739 -0.3663
 6693TIP3    H241495   5.836   6.051  13.391 -1.4147  0.6606 -0.7541
 6694TIP3   OH241496   0.667   4.005  13.990 -0.2175 -0.0395 -0.0690
 6694TIP3    H141497   0.617   4.069  13.938  0.2910  0.8461  0.5127
 6694TIP3    H241498   0.688   4.051  14.071  0.7296 -0.7264  0.0886
 6695TIP3   OH241499   5.526   5.060   3.330  0.5389  0.0514 -0.1363
 6695TIP3    H141500   5.487   5.143   3.302  1.3297  0.3357 -0.4263
 6695TIP3    H241501   5.532   5.008   3.250 -1.0253 -0.7473  0.2423
 6696TIP3   OH241502   6.650   3.526   3.389  0.1345 -0.2695 -0.3742
 6696TIP3    H141503   6.594   3.458   3.351  1.3055 -0.6000 -1.5738
 6696TIP3    H241504   6.701   3.480   3.455 -0.7465 -0.0302  0.5044
 6697TIP3   OH241505   3.788   6.445   2.157  0.6260 -0.2578 -0.9458
 6697TIP3    H141506   3.829   6.434   2.242  0.3632 -0.0402 -0.7897
 6697TIP3    H241507   3.701   6.407   2.167  0.1787  0.7713 -0.7802
 6698TIP3   OH241508   2.115   4.602  10.936  0.6106  0.3333 -0.8473
 6698TIP3    H141509   2.088   4.620  10.846 -0.9894  0.9938 -0.2797
 6698TIP3    H241510   2.037   4.564  10.977  1.6621 -1.0366 -0.0259
 6699TIP3   OH241511   3.512   3.891   4.737  0.4954  0.1015 -0.1307
 6699TIP3    H141512   3.578   3.939   4.786  2.0777 -1.5084 -0.5520
 6699TIP3    H241513   3.549   3.803   4.727 -1.0652 -0.4494 -1.6661
 6700TIP3   OH241514   5.444   0.866   2.022  0.3479 -0.3257  0.3042
 6700TIP3    H141515   5.383   0.859   1.948  0.4474 -0.2461  0.2132
 6700TIP3    H241516   5.391   0.895   2.095  0.3254 -0.0121  0.1627
 6701TIP3   OH241517   1.439   2.404  14.420  0.4927  0.0523 -0.7589
 6701TIP3    H141518   1.362   2.412  14.364  1.3441  0.3095 -1.9232
 6701TIP3    H241519   1.463   2.312  14.415  0.7980  0.1500 -1.1410
 6702TIP3   OH241520   1.734   4.200   0.147 -0.9785  0.6018  0.1777
 6702TIP3    H141521   1.816   4.243   0.170 -0.2713 -0.5411 -0.1091
 6702TIP3    H241522   1.666   4.251   0.192  0.1527 -0.5556  3.5265
 6703TIP3   OH241523   6.372   4.140  17.010 -0.2725 -0.6103 -0.1415
 6703TIP3    H141524   6.467   4.148  17.024  0.1828 -1.5267 -2.3052
 6703TIP3    H241525   6.335   4.215  17.057  1.9404  2.3861 -2.6883
 6704TIP3   OH241526   0.493   5.361   0.633 -0.7979  0.2739 -0.0517
 6704TIP3    H141527   0.403   5.345   0.663 -0.7893  1.1615  0.4846
 6704TIP3    H241528   0.526   5.429   0.692  0.3098 -0.2011 -0.0936
 6705TIP3   OH241529   3.045   0.248   1.763 -0.4961 -0.2133 -0.2892
 6705TIP3    H141530   3.131   0.218   1.733 -0.8735 -0.7412 -0.8590
 6705TIP3    H241531   3.039   0.338   1.730  0.1713  0.1146  0.4592
 6706TIP3   OH241532   0.432   3.594  16.847 -1.0228  0.0036  0.1490
 6706TIP3    H141533   0.460   3.535  16.916 -1.4187 -0.1670  0.1676
 6706TIP3    H241534   0.425   3.680  16.890  0.5799  0.2994 -0.1169
 6707TIP3   OH241535   6.099   5.698  12.745  0.2344 -0.1092 -0.0385
 6707TIP3    H141536   6.180   5.659  12.776 -0.4919 -2.2528 -0.6976
 6707TIP3    H241537   6.034   5.676  12.812  0.1511  1.6704  0.5318
 6708TIP3   OH241538   6.764   5.690  15.698 -0.1526  0.1283  0.2455
 6708TIP3    H141539   6.771   5.785  15.708 -1.6001  0.3546 -0.6457
 6708TIP3    H241540   6.769   5.675  15.604  1.7720 -0.8702  0.4550
 6709TIP3   OH241541   3.854   3.821   4.627  0.0772  0.6853 -0.2145
 6709TIP3    H141542   3.943   3.788   4.638 -0.5680 -1.0041  0.2425
 6709TIP3    H241543   3.840   3.822   4.533 -0.1419 -1.1732 -0.2317
 6710TIP3   OH241544   6.621   5.853  13.217  0.1128 -0.2355  0.1569
 6710TIP3    H141545   6.608   5.766  13.181 -0.9866 -1.0036  2.2643
 6710TIP3    H241546   6.634   5.839  13.310 -1.2703  1.9212  0.7476
 6711TIP3   OH241547   4.921   6.311   1.045  0.0638  0.4557  0.0374
 6711TIP3    H141548   4.878   6.272   0.968  0.4590 -0.5598  0.3188
 6711TIP3    H241549   4.859   6.298   1.116  0.3552 -0.0379  0.2124
 6712TIP3   OH241550   2.895   3.605  11.348  0.3284 -0.1608 -0.0167
 6712TIP3    H141551   2.873   3.590  11.256  0.4566 -2.0684  0.2118
 6712TIP3    H241552   2.987   3.580  11.356  0.2253 -0.3566  0.6912
 6713TIP3   OH241553   6.514   4.498   2.299  0.1683 -0.2303  0.0681
 6713TIP3    H141554   6.545   4.582   2.265  0.1632 -0.9397 -1.8157
 6713TIP3    H241555   6.503   4.513   2.393  0.7283  1.6917 -0.1220
 6714TIP3   OH241556   3.604   5.699  11.329 -0.0475 -0.0782  0.4387
 6714TIP3    H141557   3.535   5.753  11.290  0.7931 -0.2248 -1.3361
 6714TIP3    H241558   3.556   5.630  11.375 -1.1337 -0.7211 -1.5356
 6715TIP3   OH241559   6.138   1.310  13.264  0.0315  0.1405  0.4956
 6715TIP3    H141560   6.048   1.293  13.237  0.5191 -2.0105 -0.0199
 6715TIP3    H241561   6.171   1.372  13.199 -0.7196  0.0033 -0.0389
 6716TIP3   OH241562   6.359   0.256  15.544  0.1000  0.4228  0.6745
 6716TIP3    H141563   6.440   0.227  15.501 -0.8416 -0.1253 -0.8110
 6716TIP3    H241564   6.387   0.323  15.605  1.9738 -1.2673  1.8014
 6717TIP3   OH241565   1.030   4.338   5.782  0.1441  0.3445  0.3447
 6717TIP3    H141566   0.999   4.339   5.873 -0.1492  1.1334  0.2455
 6717TIP3    H241567   0.978   4.268   5.740  1.0294 -0.7496  1.0173
 6718TIP3   OH241568   1.832   4.721  15.059  0.0962 -0.0485  0.0678
 6718TIP3    H141569   1.854   4.639  15.103  1.8660  0.1745 -0.3362
 6718TIP3    H241570   1.888   4.722  14.981  0.1256  1.5550  0.0851
 6719TIP3   OH241571   6.530   2.126  15.636  0.5653 -0.7380 -0.3647
 6719TIP3    H141572   6.613   2.141  15.681 -0.5439 -0.8073  1.8337
 6719TIP3    H241573   6.534   2.035  15.608  1.7538 -0.3616 -1.5097
 6720TIP3   OH241574   2.044   3.546  13.475  0.7830  0.3553  0.0711
 6720TIP3    H141575   2.054   3.473  13.537  2.0678 -0.3115 -0.8644
 6720TIP3    H241576   2.092   3.618  13.516 -0.1573  0.5769  0.8162
 6721TIP3   OH241577   5.554   1.211  12.445 -0.3286  0.0972  0.2346
 6721TIP3    H141578   5.492   1.138  12.436 -1.7759  1.2491  0.5783
 6721TIP3    H241579   5.618   1.180  12.509 -1.6858 -0.3915  1.4134
 6722TIP3   OH241580   3.148   5.123   5.191  0.5063 -0.2104 -0.2898
 6722TIP3    H141581   3.093   5.165   5.257  2.2534  2.1078 -0.1998
 6722TIP3    H241582   3.198   5.194   5.152 -0.3096 -1.4846 -4.0781
 6723TIP3   OH241583   6.204   6.248  11.816 -0.4193  0.0089  0.1359
 6723TIP3    H141584   6.260   6.208  11.749 -0.7509 -0.9730  0.4145
 6723TIP3    H241585   6.239   6.216  11.899 -0.4446  0.6503  0.3974
 6724TIP3   OH241586   5.159   5.313  14.865  0.7444 -0.7394 -0.3510
 6724TIP3    H141587   5.164   5.275  14.953  0.7544 -0.2916 -0.1593
 6724TIP3    H241588   5.080   5.367  14.866  0.3527 -1.2748 -0.8367
 6725TIP3   OH241589   2.908   4.451   0.528 -0.2135  0.0968  0.4552
 6725TIP3    H141590   2.847   4.438   0.455 -0.7874  2.8058  0.3382
 6725TIP3    H241591   2.854   4.438   0.606  0.1520 -1.7823  0.4237
 6726TIP3   OH241592   3.069   1.354   0.259  0.7969  0.6284  0.3849
 6726TIP3    H141593   3.026   1.331   0.177  0.2385  0.0801  0.8196
 6726TIP3    H241594   3.155   1.386   0.233  0.6459  0.4048 -0.4085
 6727TIP3   OH241595   4.073   0.833   5.299  0.7295  0.4948  0.2040
 6727TIP3    H141596   4.086   0.872   5.385  0.7162  0.2110  0.3345
 6727TIP3    H241597   3.978   0.831   5.288  0.6683 -0.7936  0.7955
 6728TIP3   OH241598   2.257   2.654  15.793 -0.0341  0.6818 -0.1338
 6728TIP3    H141599   2.229   2.573  15.751  1.6250 -0.2593  0.4740
 6728TIP3    H241600   2.317   2.694  15.731 -0.4064  1.1524 -0.1903
 6729TIP3   OH241601   3.034   3.085  14.855  0.2360  0.1035 -0.1453
 6729TIP3    H141602   2.963   3.045  14.806 -1.1654  0.9000  1.1670
 6729TIP3    H241603   3.085   3.133  14.789 -0.5853 -0.2513 -1.0552
 6730TIP3   OH241604   5.566   4.277  12.876 -0.2911 -0.1355  0.1175
 6730TIP3    H141605   5.610   4.225  12.943  0.5240  0.1312 -0.1995
 6730TIP3    H241606   5.608   4.363  12.881  0.4759 -0.4021 -1.4092
 6731TIP3   OH241607   4.362   5.851   1.691 -0.5063  0.4521  0.3496
 6731TIP3    H141608   4.428   5.782   1.687 -2.1725 -1.2421  0.4798
 6731TIP3    H241609   4.380   5.906   1.615  2.3887  1.4179  1.5824
 6732TIP3   OH241610   5.613   4.376   1.601 -0.0525  0.4008  0.1113
 6732TIP3    H141611   5.568   4.460   1.607 -0.6331  0.0629  0.6370
 6732TIP3    H241612   5.653   4.376   1.513 -1.5606  0.4741 -0.6033
 6733TIP3   OH241613   3.511   0.936   3.900  0.8836  0.4020  0.2713
 6733TIP3    H141614   3.446   0.939   3.970 -0.4461 -1.5342 -0.7798
 6733TIP3    H241615   3.564   0.859   3.919  0.7500  0.0753 -0.6088
 6734TIP3   OH241616   6.345   5.565  15.455 -0.1799  0.2166 -0.0565
 6734TIP3    H141617   6.324   5.658  15.448 -0.8755  0.1088  0.5060
 6734TIP3    H241618   6.260   5.521  15.459  0.1430 -0.4142  0.0709
 6735TIP3   OH241619   3.581   1.409  13.930  0.3587 -0.0536  0.2283
 6735TIP3    H141620   3.661   1.358  13.941  0.8704  0.4215 -1.1550
 6735TIP3    H241621   3.513   1.344  13.911  1.0615 -0.2358 -1.8274
 6736TIP3   OH241622   3.329   6.503   0.630 -0.1540 -0.3987 -0.3942
 6736TIP3    H141623   3.354   6.486   0.539  0.9265 -0.1168 -0.1600
 6736TIP3    H241624   3.391   6.452   0.682 -0.0142  0.3863  0.2171
 6737TIP3   OH241625   0.087   3.567   1.835 -0.3605 -0.2643  0.1825
 6737TIP3    H141626   0.153   3.536   1.773 -0.9442  1.2418 -1.2727
 6737TIP3    H241627   0.087   3.502   1.905  1.5255 -1.1391 -0.5641
 6738TIP3   OH241628   2.428   2.644  14.496 -0.0582  0.1047  0.5797
 6738TIP3    H141629   2.341   2.624  14.531 -0.3092 -0.3910 -0.2810
 6738TIP3    H241630   2.451   2.728  14.535 -1.2855  0.6498  0.1727
 6739TIP3   OH241631   2.292   2.236   5.548  0.0408  0.0682 -0.7721
 6739TIP3    H141632   2.258   2.245   5.459 -0.7572  2.2592 -0.3094
 6739TIP3    H241633   2.384   2.211   5.536 -0.5104 -1.5588 -2.1216
 6740TIP3   OH241634   0.234   2.973   0.792  0.1332 -0.1860  0.0014
 6740TIP3    H141635   0.247   2.880   0.813  2.4141  0.6124  2.6250
 6740TIP3    H241636   0.283   2.986   0.711 -0.6490 -1.3342 -0.6891
 6741TIP3   OH241637   6.146   0.011   0.428 -0.5686  0.6378 -0.0356
 6741TIP3    H141638   6.065   0.061   0.419 -1.3430 -0.5052  0.2424
 6741TIP3    H241639   6.120  -0.080   0.408  0.1962 -0.0616  1.9150
 6742TIP3   OH241640   6.263   3.514   1.134  0.1382 -0.2097 -0.4692
 6742TIP3    H141641   6.210   3.573   1.080 -0.9298 -0.7150 -0.0091
 6742TIP3    H241642   6.211   3.434   1.139  0.7002 -0.5235  0.4599
 6743TIP3   OH241643   4.258   0.579   1.056 -0.1328 -0.6277 -0.1939
 6743TIP3    H141644   4.212   0.526   0.991  0.3088 -3.2711  1.4953
 6743TIP3    H241645   4.193   0.594   1.124 -0.2212  1.0278 -0.6065
 6744TIP3   OH241646   2.693   3.288  15.114  0.0270 -0.7703 -0.0799
 6744TIP3    H141647   2.614   3.272  15.063 -0.5287 -0.4610  0.6537
 6744TIP3    H241648   2.721   3.377  15.090  0.0578 -0.8195 -0.2226
 6745TIP3   OH241649   4.741   4.530  17.042 -0.4147  0.1337  0.3700
 6745TIP3    H141650   4.673   4.521  16.976  0.1735  0.6404 -0.3206
 6745TIP3    H241651   4.780   4.442  17.049  1.8441  0.7530 -2.5575
 6746TIP3   OH241652   5.981   5.440  12.603  0.9961  0.1969 -0.0530
 6746TIP3    H141653   5.948   5.371  12.545  1.9864 -0.1092 -0.2705
 6746TIP3    H241654   6.047   5.485  12.551  0.9551  0.7742  0.3881
 6747TIP3   OH241655   4.332   3.284   3.340 -0.2016 -0.4616  0.0177
 6747TIP3    H141656   4.377   3.241   3.412  2.9810  1.8284 -0.4032
 6747TIP3    H241657   4.319   3.374   3.369 -0.9185 -0.0698 -1.4056
 6748TIP3   OH241658   3.624   6.129   2.128  0.0907  0.2676  1.0300
 6748TIP3    H141659   3.659   6.093   2.047 -0.1312 -1.0467  1.4859
 6748TIP3    H241660   3.571   6.204   2.101  2.1145  1.4711  0.2124
 6749TIP3   OH241661   3.409   0.800   5.508 -0.2701 -0.4997  0.3738
 6749TIP3    H141662   3.466   0.875   5.523 -2.6647  1.2592  1.3826
 6749TIP3    H241663   3.403   0.793   5.412  2.1082 -1.2264  0.2095
 6750TIP3   OH241664   0.024   6.588   5.909  0.1513  0.3951 -0.1252
 6750TIP3    H141665  -0.068   6.613   5.907 -0.8846 -2.9651  0.6312
 6750TIP3    H241666   0.032   6.530   5.984  2.3820 -1.1132 -1.4272
 6751TIP3   OH241667   1.435   4.894  15.174 -0.0042  0.2283  0.6086
 6751TIP3    H141668   1.486   4.958  15.126 -0.9999  0.0233 -0.7926
 6751TIP3    H241669   1.396   4.943  15.247 -1.7918  1.5897 -1.1544
 6752TIP3   OH241670   1.155   5.704   1.591 -0.1362 -0.3928  0.3045
 6752TIP3    H141671   1.069   5.687   1.554 -0.9531 -0.5275  2.1373
 6752TIP3    H241672   1.199   5.619   1.591 -0.6825 -0.6797  0.9634
 6753TIP3   OH241673   6.754   3.785   0.332 -0.3709  0.2453 -0.4341
 6753TIP3    H141674   6.800   3.785   0.416  0.1122  0.0230 -0.6974
 6753TIP3    H241675   6.741   3.877   0.312 -0.0049  0.3108 -0.3765
 6754TIP3   OH241676   1.085   2.083  13.561  0.0071  0.1083 -0.2848
 6754TIP3    H141677   1.057   2.160  13.512  1.7913  0.4274 -0.8664
 6754TIP3    H241678   1.171   2.061  13.524  0.5028 -0.8499  1.3449
 6755TIP3   OH241679   5.022   4.149  15.570  0.0330  0.4233  0.0724
 6755TIP3    H141680   4.982   4.237  15.568 -0.0791  0.5042  2.6857
 6755TIP3    H241681   4.978   4.105  15.643  1.0943 -1.3391 -0.3072
 6756TIP3   OH241682   0.386   0.940   5.652  0.0370 -0.3100  0.2603
 6756TIP3    H141683   0.373   1.013   5.713  0.3180 -1.0138  1.1938
 6756TIP3    H241684   0.419   0.981   5.572 -1.1683  0.7315  0.2753
 6757TIP3   OH241685   2.515   1.736  14.695 -0.2109  0.3030 -0.0468
 6757TIP3    H141686   2.449   1.697  14.638 -1.3535  0.0899  1.3607
 6757TIP3    H241687   2.578   1.666  14.711 -2.0737 -1.0034  2.1976
 6758TIP3   OH241688   1.004   5.004   5.644  0.6037 -0.6350 -0.3987
 6758TIP3    H141689   0.926   5.001   5.587  0.0338 -3.1416  0.3862
 6758TIP3    H241690   0.971   5.034   5.728  0.8478  0.0182 -0.5306
 6759TIP3   OH241691   6.325   0.298   0.863  0.2158 -0.1525  0.1726
 6759TIP3    H141692   6.262   0.252   0.807  2.4828 -1.1756 -1.7165
 6759TIP3    H241693   6.377   0.351   0.803  0.6259  1.3903  1.7821
 6760TIP3   OH241694   2.018   0.953  13.513  0.3462  0.0521  0.7899
 6760TIP3    H141695   2.052   0.864  13.518 -0.7225 -0.3452  1.7447
 6760TIP3    H241696   1.940   0.951  13.569 -0.6310  1.1619 -0.4664
 6761TIP3   OH241697   3.772   3.913   2.457  0.1151  0.1022  0.0760
 6761TIP3    H141698   3.729   3.952   2.380  1.8508  1.4991 -0.2506
 6761TIP3    H241699   3.742   3.967   2.530  0.9527  0.8137 -0.0935
 6762TIP3   OH241700   4.367   1.152  13.768 -0.0975  0.2213  0.1001
 6762TIP3    H141701   4.368   1.215  13.841 -1.3823 -0.1018  0.4174
 6762TIP3    H241702   4.320   1.076  13.802  0.3789 -0.4422 -0.6758
 6763TIP3   OH241703   6.396   5.560  13.802  0.5530  0.0967 -0.6855
 6763TIP3    H141704   6.446   5.638  13.775 -1.1287  1.1868 -0.7976
 6763TIP3    H241705   6.330   5.594  13.863  0.0327 -1.3152 -0.4321
 6764TIP3   OH241706   0.260   0.637  10.376  0.0784  0.4362 -0.0371
 6764TIP3    H141707   0.190   0.699  10.355  0.9461  1.1803 -0.7933
 6764TIP3    H241708   0.333   0.691  10.404  0.7701 -0.2632 -0.4459
 6765TIP3   OH241709   4.144   4.133   1.983 -0.0939 -0.1755  0.3787
 6765TIP3    H141710   4.195   4.149   2.062 -1.8844 -0.5294  1.6719
 6765TIP3    H241711   4.196   4.071   1.932  1.4311  0.6345  0.8977
 6766TIP3   OH241712   6.022   4.119  12.815  0.0390  0.4741 -0.1724
 6766TIP3    H141713   6.082   4.074  12.756 -0.0052  0.7208 -0.4097
 6766TIP3    H241714   5.986   4.190  12.762  1.0800  1.5875  0.5668
 6767TIP3   OH241715   4.527   3.502   3.185 -0.2065  0.4440  0.0534
 6767TIP3    H141716   4.594   3.443   3.150 -0.7969  0.3149 -0.8993
 6767TIP3    H241717   4.495   3.549   3.108 -1.7532 -0.0564  0.3710
 6768TIP3   OH241718   5.856   1.124  11.784 -0.1761 -0.3002  0.5148
 6768TIP3    H141719   5.895   1.129  11.697 -1.9557  0.6718 -0.2892
 6768TIP3    H241720   5.847   1.030  11.801 -0.0740 -0.5037 -0.4860
 6769TIP3   OH241721   1.097   5.545   4.454  0.0474  0.3589  0.1021
 6769TIP3    H141722   1.033   5.521   4.387 -0.0655 -1.3580  0.7732
 6769TIP3    H241723   1.139   5.624   4.420  0.0608 -0.4959 -2.0475
 6770TIP3   OH241724   1.961   3.103  13.831  0.1302  0.2339  0.1355
 6770TIP3    H141725   1.925   3.042  13.895  0.0267 -1.5647 -1.5521
 6770TIP3    H241726   2.056   3.098  13.844  0.0652  1.0905  1.1473
 6771TIP3   OH241727   4.874   0.751  11.041  0.3795 -0.1321  0.7268
 6771TIP3    H141728   4.964   0.729  11.018  0.7314  2.6648 -1.1504
 6771TIP3    H241729   4.832   0.771  10.957 -2.1138 -1.5831  1.5190
 6772TIP3   OH241730   5.651   5.255   4.328 -0.0966  0.0710  0.4992
 6772TIP3    H141731   5.733   5.212   4.350 -0.3048 -0.3654  0.4326
 6772TIP3    H241732   5.587   5.184   4.323 -0.1650  0.2063 -1.0390
 6773TIP3   OH241733   0.466   2.856   1.936  0.8337  0.1378 -0.3330
 6773TIP3    H141734   0.508   2.935   1.969  2.1596 -0.2577 -1.0066
 6773TIP3    H241735   0.431   2.882   1.851  2.3779 -0.2841 -1.1382
 6774TIP3   OH241736   0.923   1.053   2.367  0.1325 -0.2659  0.0997
 6774TIP3    H141737   0.859   1.094   2.425 -0.6237 -2.1598  0.6698
 6774TIP3    H241738   0.910   0.959   2.379  0.1503 -0.7633 -2.9203
 6775TIP3   OH241739   4.776   6.104   1.219 -0.3068  0.1799  0.3199
 6775TIP3    H141740   4.778   6.009   1.224  0.0890  0.0023 -1.8640
 6775TIP3    H241741   4.836   6.134   1.287 -0.8049 -1.0755  1.3516
 6776TIP3   OH241742   1.560   0.636  15.636  0.0259  0.5541 -0.0888
 6776TIP3    H141743   1.535   0.598  15.552  0.8063  0.1810 -0.1628
 6776TIP3    H241744   1.625   0.575  15.672 -0.1300  0.8234  0.6833
 6777TIP3   OH241745   1.091   4.077  11.283 -0.4177  0.1145 -0.7332
 6777TIP3    H141746   1.008   4.100  11.240 -0.4436  0.1636 -0.6567
 6777TIP3    H241747   1.158   4.101  11.218 -0.4949 -0.5595 -1.0694
 6778TIP3   OH241748   4.465   2.712   4.383  0.1420 -0.6107 -0.0992
 6778TIP3    H141749   4.420   2.768   4.321 -0.4932  0.1772  1.0315
 6778TIP3    H241750   4.396   2.656   4.419  0.0902  0.2805  1.2950
 6779TIP3   OH241751   6.251   3.493  14.590 -0.5581  0.1285 -0.4262
 6779TIP3    H141752   6.318   3.507  14.523 -0.4444  0.2525 -0.2849
 6779TIP3    H241753   6.222   3.581  14.614 -1.0697  0.0627 -0.7897
 6780TIP3   OH241754   3.354   2.978  11.622  0.4506 -0.1163 -0.3763
 6780TIP3    H141755   3.420   3.006  11.685  1.0740  0.9712 -1.4580
 6780TIP3    H241756   3.305   3.058  11.602 -0.8779 -0.7976  0.0141
 6781TIP3   OH241757   3.895   6.146  13.055  0.0377  0.1423  0.5795
 6781TIP3    H141758   3.890   6.144  13.151  0.3890 -0.9288  0.5919
 6781TIP3    H241759   3.986   6.123  13.036  0.3391  1.7571  0.0081
 6782TIP3   OH241760   0.748   5.359  16.872 -0.0784  0.4402  0.1932
 6782TIP3    H141761   0.814   5.361  16.942  0.3228  0.4723 -0.1785
 6782TIP3    H241762   0.740   5.267  16.850  1.1447  0.5831 -0.9581
 6783TIP3   OH241763   5.290   1.850   0.688 -0.2807 -0.0531 -0.3361
 6783TIP3    H141764   5.292   1.820   0.779 -0.3093 -0.3991 -0.4474
 6783TIP3    H241765   5.200   1.833   0.659  0.0492 -1.0964 -0.8066
 6784TIP3   OH241766   0.511   5.943  10.868  0.7783  0.5803 -0.0083
 6784TIP3    H141767   0.466   6.005  10.924 -0.9678 -0.9787  0.4130
 6784TIP3    H241768   0.451   5.928  10.795  0.9252 -0.9401  0.1509
 6785TIP3   OH241769   1.810   4.166   3.520  0.7232  0.0502  0.4305
 6785TIP3    H141770   1.899   4.150   3.551  1.3165  0.7042 -0.8438
 6785TIP3    H241771   1.821   4.187   3.427 -0.5824  1.7903  0.6314
 6786TIP3   OH241772   6.333   3.455  15.870 -0.6083  0.0757  0.6753
 6786TIP3    H141773   6.376   3.394  15.809  0.2855  1.7110 -0.3946
 6786TIP3    H241774   6.405   3.501  15.912 -1.2384 -0.5647  2.5398
 6787TIP3   OH241775   1.918   2.017   5.826  0.1258  0.1567 -0.6736
 6787TIP3    H141776   1.853   2.042   5.759  0.1192  1.6834 -0.1329
 6787TIP3    H241777   2.001   2.047   5.790  0.2068  0.4143 -0.2656
 6788TIP3   OH241778   1.447   0.362   4.669  0.2007  0.1030  0.8048
 6788TIP3    H141779   1.508   0.434   4.657  0.6344 -0.5735 -1.6120
 6788TIP3    H241780   1.477   0.295   4.608 -2.7854 -0.3477 -0.3464
 6789TIP3   OH241781   3.351   3.644  16.694  0.2395  0.3983  0.1670
 6789TIP3    H141782   3.369   3.659  16.601  1.9833  0.0190  0.4147
 6789TIP3    H241783   3.296   3.718  16.719  0.0481  0.7048 -1.0709
 6790TIP3   OH241784   1.151   3.721  16.791 -0.1429 -0.4128  0.0601
 6790TIP3    H141785   1.121   3.717  16.882  0.8267 -1.5855  0.3456
 6790TIP3    H241786   1.202   3.641  16.779 -0.5837 -0.4642 -1.6404
 6791TIP3   OH241787   0.399   3.741   1.436 -0.7345 -0.4895 -0.6594
 6791TIP3    H141788   0.314   3.771   1.470 -0.4508 -0.6204  0.1865
 6791TIP3    H241789   0.397   3.646   1.447 -0.4075 -0.4758 -0.4460
 6792TIP3   OH241790   5.612   3.099   0.041 -0.1776  0.7067 -0.1966
 6792TIP3    H141791   5.517   3.105   0.029 -0.5644 -2.7456  0.0897
 6792TIP3    H241792   5.647   3.078  -0.046 -0.0040 -0.2844  0.0958
 6793TIP3   OH241793   6.368   5.306  16.936  0.4186 -0.5570  0.2610
 6793TIP3    H141794   6.278   5.291  16.909  0.5871 -0.1405 -0.5479
 6793TIP3    H241795   6.421   5.264  16.868  0.8593  1.2477 -0.5543
 6794TIP3   OH241796   0.305   3.387   2.060 -0.2464 -0.0082 -0.0210
 6794TIP3    H141797   0.347   3.471   2.043  1.7550 -0.9463 -0.0374
 6794TIP3    H241798   0.371   3.337   2.109 -1.6452 -1.3275  0.5963
 6795TIP3   OH241799   0.484   4.040  11.424  0.5476  0.0081 -0.4078
 6795TIP3    H141800   0.518   4.071  11.340  2.1169  1.1531  0.5925
 6795TIP3    H241801   0.546   3.973  11.452 -1.1772 -2.0159 -1.1263
 6796TIP3   OH241802   1.207   1.488  15.405  0.3957  0.3402 -0.0452
 6796TIP3    H141803   1.277   1.428  15.429 -0.5242 -0.2332  1.3461
 6796TIP3    H241804   1.127   1.443  15.430 -0.3575  1.8778  0.4949
 6797TIP3   OH241805   4.393   5.123  16.969 -0.0618 -0.1121 -0.1410
 6797TIP3    H141806   4.327   5.059  16.996  0.9397 -1.6369 -1.1143
 6797TIP3    H241807   4.411   5.102  16.877  0.5336  1.3875 -0.3980
 6798TIP3   OH241808   1.382   5.249   0.421  0.2199  0.5706 -0.0777
 6798TIP3    H141809   1.309   5.306   0.397 -0.5536 -0.5544 -0.4430
 6798TIP3    H241810   1.369   5.231   0.515  0.3764  0.8621  0.0009
 6799TIP3   OH241811   6.154   5.580  12.401  0.1823 -0.0108  0.0610
 6799TIP3    H141812   6.222   5.605  12.462  0.4764 -1.2488  0.2487
 6799TIP3    H241813   6.191   5.508  12.350 -0.7862 -0.3542 -0.1919
 6800TIP3   OH241814   0.787   6.437  14.689  0.1898 -0.0338  0.1192
 6800TIP3    H141815   0.846   6.426  14.614 -0.2136  1.4245 -0.4289
 6800TIP3    H241816   0.826   6.508  14.740 -0.6069  0.3273  0.2303
 6801TIP3   OH241817   5.669   1.269  10.891 -0.2329  0.0280 -0.4966
 6801TIP3    H141818   5.644   1.217  10.968  2.3314 -0.2203  0.2359
 6801TIP3    H241819   5.597   1.332  10.881 -1.1339 -0.5971  1.4711
 6802TIP3   OH241820   2.028   0.333  15.366 -0.3640 -0.8573  0.0612
 6802TIP3    H141821   2.017   0.341  15.272  0.0830  0.3350  0.0925
 6802TIP3    H241822   2.122   0.340  15.381 -0.5914  2.2773  0.8019
 6803TIP3   OH241823   0.239   4.859   3.761 -0.3352  0.8241  0.2502
 6803TIP3    H141824   0.203   4.937   3.718  0.5801 -0.5326 -3.4140
 6803TIP3    H241825   0.329   4.884   3.785 -0.1226  1.0230 -0.7003
 6804TIP3   OH241826   3.565   5.377  14.044 -0.1219  0.3726  0.4268
 6804TIP3    H141827   3.603   5.450  14.093  0.2842  0.4662 -0.0189
 6804TIP3    H241828   3.470   5.386  14.057 -0.0139  0.2492  1.3854
 6805TIP3   OH241829   5.606   1.777  15.581 -0.0375 -0.0898 -0.5188
 6805TIP3    H141830   5.672   1.766  15.649 -0.7193  0.5427  0.2632
 6805TIP3    H241831   5.616   1.700  15.524 -1.8045 -2.6132  2.2939
 6806TIP3   OH241832   3.838   0.779  15.586 -0.3881 -0.0508 -0.8096
 6806TIP3    H141833   3.757   0.781  15.535 -2.6245  0.8985  2.4318
 6806TIP3    H241834   3.852   0.871  15.611  1.0777 -0.3661 -0.3844
 6807TIP3   OH241835   4.584   0.325   1.764  0.2840  0.4973 -0.2862
 6807TIP3    H141836   4.576   0.275   1.683  0.9041  0.6971 -0.4759
 6807TIP3    H241837   4.496   0.359   1.780 -0.2977 -1.1269  0.1688
 6808TIP3   OH241838   2.224   2.295   3.190 -0.5202 -0.1213  0.1098
 6808TIP3    H141839   2.198   2.208   3.162 -1.5787  0.1300  0.2731
 6808TIP3    H241840   2.230   2.346   3.110 -1.0448 -0.0476  0.1183
 6809TIP3   OH241841   1.680   5.646   4.909  0.2214 -0.0405  0.8825
 6809TIP3    H141842   1.745   5.579   4.931 -1.1081 -1.2583  1.1694
 6809TIP3    H241843   1.641   5.616   4.828 -0.9208 -0.0199  1.4104
 6810TIP3   OH241844   4.850   1.894   1.236 -0.4417  0.5257  0.4971
 6810TIP3    H141845   4.799   1.920   1.313 -0.2389  0.4349  0.6627
 6810TIP3    H241846   4.823   1.956   1.168 -0.5754  0.6451  0.6569
 6811TIP3   OH241847   2.357   4.478  11.941  0.2367 -0.4708 -0.0384
 6811TIP3    H141848   2.358   4.415  11.868  2.1620 -0.4656 -0.0709
 6811TIP3    H241849   2.417   4.441  12.005 -0.5376  0.1208  1.0613
 6812TIP3   OH241850   2.676   5.975  12.376 -0.2422  0.4957  0.0902
 6812TIP3    H141851   2.631   6.047  12.418  1.9917  1.8179  0.3538
 6812TIP3    H241852   2.665   5.991  12.282  0.9503  1.7076  0.1326
 6813TIP3   OH241853   5.120   0.492  10.429  0.1757  0.0285  0.0873
 6813TIP3    H141854   5.086   0.406  10.454  0.5570 -0.3553 -0.6936
 6813TIP3    H241855   5.166   0.477  10.347 -0.5441  1.1516 -0.5552
 6814TIP3   OH241856   1.799   1.720  13.398  0.5941 -0.3373 -0.3981
 6814TIP3    H141857   1.742   1.754  13.467  1.0417  0.4313 -0.3942
 6814TIP3    H241858   1.752   1.644  13.364  0.2086 -0.5200  0.5130
 6815TIP3   OH241859   3.829   3.822   4.348  0.4429  0.4105  0.7086
 6815TIP3    H141860   3.829   3.744   4.292  1.0305  0.6576  0.3513
 6815TIP3    H241861   3.783   3.888   4.296 -0.8452  0.0560  1.3779
 6816TIP3   OH241862   1.854   3.655  11.868 -0.0222  0.0322  0.2879
 6816TIP3    H141863   1.816   3.592  11.929  0.4787 -2.6869 -2.0245
 6816TIP3    H241864   1.790   3.726  11.865 -0.5917 -0.2251  3.0298
 6817TIP3   OH241865   5.105   0.781  10.734  0.0107 -0.1940  0.9229
 6817TIP3    H141866   5.056   0.784  10.652  0.6816 -0.0396  0.5291
 6817TIP3    H241867   5.104   0.689  10.760  1.8488 -0.6597 -0.5025
 6818TIP3   OH241868   1.217   2.923  16.126 -0.2572  0.3146 -0.1895
 6818TIP3    H141869   1.167   2.986  16.073 -2.9940 -0.0620  1.7333
 6818TIP3    H241870   1.309   2.946  16.110 -1.0189  2.0733 -2.7379
 6819TIP3   OH241871   0.701   3.969  15.017 -0.4228  0.2395  0.1659
 6819TIP3    H141872   0.715   4.039  14.953  0.2204  0.1173  0.1675
 6819TIP3    H241873   0.788   3.933  15.032 -0.6274  0.0178  0.8298
 6820TIP3   OH241874   3.972   0.690   1.512 -0.3803  0.1709 -0.1579
 6820TIP3    H141875   3.918   0.611   1.504 -0.3378  0.1344 -0.0808
 6820TIP3    H241876   3.909   0.763   1.509 -0.4160  0.1358 -0.2642
 6821TIP3   OH241877   1.057   6.741  15.955 -0.2339  0.0151  0.2586
 6821TIP3    H141878   1.015   6.816  15.912 -1.4193  0.0686  1.4455
 6821TIP3    H241879   1.132   6.721  15.900 -1.9542 -0.2581 -2.1643
 6822TIP3   OH241880   0.893   1.620   5.111  0.4519  0.6008 -0.5187
 6822TIP3    H141881   0.881   1.592   5.202  1.2529  1.5136 -0.1196
 6822TIP3    H241882   0.879   1.540   5.059  1.6427 -0.3273  0.5234
 6823TIP3   OH241883   1.077   4.137   0.627 -0.1299 -0.0396 -0.2223
 6823TIP3    H141884   1.053   4.212   0.573  1.0868 -0.2240 -1.0725
 6823TIP3    H241885   1.151   4.168   0.680  0.7165 -0.7478 -0.9431
 6824TIP3   OH241886   3.678   2.331  15.498 -0.5109  0.1873 -0.2509
 6824TIP3    H141887   3.623   2.351  15.573 -2.0030 -0.4733 -1.1255
 6824TIP3    H241888   3.686   2.414  15.451  0.1727  0.5303  0.4419
 6825TIP3   OH241889   2.224   4.761   1.563  0.1739  0.1429 -0.3830
 6825TIP3    H141890   2.314   4.744   1.534  0.9985  2.0954  0.7709
 6825TIP3    H241891   2.199   4.681   1.611  1.1174 -0.6030 -1.0962
 6826TIP3   OH241892   0.274   3.409   2.349 -0.6946  0.8417  0.3241
 6826TIP3    H141893   0.289   3.344   2.417 -2.1855  2.8802  2.7963
 6826TIP3    H241894   0.262   3.359   2.269  0.9915 -1.6947  1.5448
 6827TIP3   OH241895   4.309   3.293  16.791 -0.7036 -0.3007 -0.0208
 6827TIP3    H141896   4.275   3.265  16.706  0.2422  3.0760 -1.6878
 6827TIP3    H241897   4.311   3.388  16.786  2.3352 -0.0482  2.6084
 6828TIP3   OH241898   2.412   3.519  12.479  0.0187 -0.2209 -0.1689
 6828TIP3    H141899   2.409   3.461  12.403  1.5422 -1.3413  0.5745
 6828TIP3    H241900   2.504   3.520  12.505  0.2319  3.2871 -0.6505
 6829TIP3   OH241901   0.982   6.255   0.045  0.4552  0.0130  0.2694
 6829TIP3    H141902   1.057   6.285  -0.007 -0.5632  1.5760 -0.3486
 6829TIP3    H241903   1.022   6.208   0.119  1.9929 -0.3194 -0.7231
 6830TIP3   OH241904   1.043   1.972  14.895  0.0536  0.2317  0.4737
 6830TIP3    H141905   1.102   1.927  14.956 -0.0583 -0.1638  0.2958
 6830TIP3    H241906   0.986   1.902  14.862 -0.8628  0.6982  1.0434
 6831TIP3   OH241907   0.103   1.235  14.030  0.2785 -0.1559  0.2986
 6831TIP3    H141908   0.124   1.243  13.937  0.8030 -2.2828  0.1840
 6831TIP3    H241909   0.050   1.156  14.036  1.9149 -1.1962  2.0392
 6832TIP3   OH241910   1.112   3.999  16.709  0.1809 -0.0421  0.1850
 6832TIP3    H141911   1.162   4.058  16.765 -0.7997 -0.3298  1.4185
 6832TIP3    H241912   1.133   3.911  16.742 -0.5813 -0.1994  0.2739
 6833TIP3   OH241913   2.160   6.538  11.037 -0.2210 -0.4011 -0.5115
 6833TIP3    H141914   2.130   6.499  10.955 -0.2844  0.1268 -0.7442
 6833TIP3    H241915   2.175   6.630  11.016  1.9318 -0.6895 -0.5127
 6834TIP3   OH241916   5.008   6.163  11.504 -0.0787  0.3032 -0.2024
 6834TIP3    H141917   5.052   6.233  11.456 -0.0329  0.6759  0.3703
 6834TIP3    H241918   4.954   6.209  11.568  1.3330 -0.1930  1.4080
 6835TIP3   OH241919   5.944   3.340   3.207 -0.3003  0.5422  0.1006
 6835TIP3    H141920   5.926   3.434   3.202 -0.7022  0.4318 -0.5472
 6835TIP3    H241921   6.012   3.325   3.142 -1.4819  0.0921 -1.0672
 6836TIP3   OH241922   4.274   5.585  10.285  0.3316 -0.6517  0.0189
 6836TIP3    H141923   4.179   5.595  10.272  0.0897 -0.5936  1.6660
 6836TIP3    H241924   4.283   5.500  10.329  1.1967 -1.3362 -1.3858
 6837TIP3   OH241925   3.889   0.848  14.223 -0.2710 -0.2172  0.8299
 6837TIP3    H141926   3.922   0.759  14.224 -1.4268 -0.6604  1.8033
 6837TIP3    H241927   3.954   0.899  14.272 -0.1759 -0.7474  1.2580
 6838TIP3   OH241928   4.939   2.966  15.144 -0.1931 -0.3568 -0.4179
 6838TIP3    H141929   4.901   2.933  15.062 -0.1233 -1.8462  0.1269
 6838TIP3    H241930   5.018   3.013  15.116 -0.5446 -0.2289 -1.2487
 6839TIP3   OH241931   2.144   4.887  11.567  0.2152  0.0071 -0.1801
 6839TIP3    H141932   2.053   4.913  11.555  0.2456 -0.0434 -0.5133
 6839TIP3    H241933   2.180   4.882  11.479 -0.1516 -2.5056 -0.2525
 6840TIP3   OH241934   5.005   3.463  15.426  0.0132  0.6820 -0.9257
 6840TIP3    H141935   4.934   3.526  15.422 -1.2781 -0.7815 -1.7419
 6840TIP3    H241936   4.988   3.402  15.354  1.2691 -0.5424 -0.2306
 6841TIP3   OH241937   4.085   4.619   2.635 -0.4874 -0.2940  0.0171
 6841TIP3    H141938   4.107   4.580   2.720 -0.0199 -0.2532 -0.0847
 6841TIP3    H241939   4.138   4.698   2.630  0.5699 -1.0345 -0.9280
 6842TIP3   OH241940   5.284   5.364  12.459 -0.7002  0.3163  0.1413
 6842TIP3    H141941   5.284   5.354  12.554 -0.6006  1.5422  0.2875
 6842TIP3    H241942   5.360   5.313  12.430 -2.1874 -2.1953  0.4347
 6843TIP3   OH241943   1.442   3.563  16.983  0.7675  0.5408 -0.7269
 6843TIP3    H141944   1.457   3.600  17.070  1.7656  1.1406 -1.1446
 6843TIP3    H241945   1.515   3.502  16.970 -0.7969 -1.6143 -0.0809
 6844TIP3   OH241946   6.566   2.573   1.540 -0.5361  0.5005 -0.2113
 6844TIP3    H141947   6.474   2.598   1.536 -0.5393  0.6023  0.4955
 6844TIP3    H241948   6.569   2.486   1.500 -0.7264  1.0389 -1.4566
 6845TIP3   OH241949   0.536   4.256  16.234  0.5678 -0.2872  0.5810
 6845TIP3    H141950   0.589   4.201  16.292 -0.1681  0.5781  2.1582
 6845TIP3    H241951   0.495   4.320  16.293  1.0446  1.6814 -1.1061
 6846TIP3   OH241952   3.678   2.257   5.292  0.1934 -0.1034 -0.6601
 6846TIP3    H141953   3.697   2.238   5.201  0.5171  0.0262 -0.6225
 6846TIP3    H241954   3.682   2.171   5.336  0.9777 -0.0443 -0.6061
 6847TIP3   OH241955   2.900   3.461  14.285 -0.0187 -0.1156 -0.5413
 6847TIP3    H141956   2.941   3.381  14.253 -0.4053 -0.6286  0.2206
 6847TIP3    H241957   2.867   3.503  14.206 -0.8162 -1.2817 -0.8605
 6848TIP3   OH241958   3.479   2.270   1.906 -0.1760 -0.4077 -0.1466
 6848TIP3    H141959   3.445   2.330   1.840  0.3045 -0.8923 -0.8566
 6848TIP3    H241960   3.440   2.300   1.988  0.4682  1.1855 -0.3882
 6849TIP3   OH241961   1.960   0.542   5.516 -0.0218  0.5687 -0.1726
 6849TIP3    H141962   1.913   0.578   5.441 -1.0656 -1.7234 -0.6900
 6849TIP3    H241963   2.025   0.483   5.477 -0.0981 -0.1004  0.6937
 6850TIP3   OH241964   1.602   2.812  16.978 -0.0089  0.3009  0.1077
 6850TIP3    H141965   1.606   2.716  16.975 -0.6317  0.2590  0.5267
 6850TIP3    H241966   1.672   2.840  16.919 -2.0603 -0.3963 -2.8748
 6851TIP3   OH241967   6.152   5.344  14.811 -0.3675 -0.0767  0.7661
 6851TIP3    H141968   6.099   5.339  14.890  0.1683 -1.5163  1.0536
 6851TIP3    H241969   6.242   5.347  14.843 -0.2054  1.3414  0.2504
 6852TIP3   OH241970   6.527   4.556  16.107  0.2270  0.6302  0.7228
 6852TIP3    H141971   6.515   4.603  16.025 -1.1029  1.2297  1.2372
 6852TIP3    H241972   6.438   4.546  16.142  0.8039  0.7559  2.2940
 6853TIP3   OH241973   0.964   6.690   1.739  0.5639 -0.0742  0.2663
 6853TIP3    H141974   0.977   6.642   1.820  0.7744  0.1492  0.3658
 6853TIP3    H241975   1.002   6.634   1.671  2.3304  0.6825  0.5797
 6854TIP3   OH241976   2.236   4.087   2.715  0.0486  0.0673 -0.4707
 6854TIP3    H141977   2.246   4.072   2.621 -1.1556  0.1539 -0.6166
 6854TIP3    H241978   2.158   4.142   2.723 -0.1752 -0.3827  0.6165
 6855TIP3   OH241979   4.716   0.793   4.802  0.2642  0.1684 -0.7225
 6855TIP3    H141980   4.708   0.721   4.740  1.3438 -0.4829 -0.1316
 6855TIP3    H241981   4.743   0.868   4.749 -0.6057  0.0859 -1.3022
 6856TIP3   OH241982   1.333   5.287   5.000  0.4080 -0.0895 -0.0725
 6856TIP3    H141983   1.395   5.258   4.933  0.3760 -0.6769  0.1458
 6856TIP3    H241984   1.331   5.382   4.991  1.3506 -0.0607 -0.0760
 6857TIP3   OH241985   6.202   4.575   0.949  0.1738  0.6317  0.2374
 6857TIP3    H141986   6.277   4.585   1.008  0.3201  0.1618  0.1358
 6857TIP3    H241987   6.225   4.629   0.873  0.4725  0.3859  0.1508
 6858TIP3   OH241988   1.271   0.260   3.916  0.6439 -0.6572  0.0309
 6858TIP3    H141989   1.185   0.266   3.875 -0.3412 -1.8332  1.7761
 6858TIP3    H241990   1.309   0.179   3.881 -0.1599 -1.6146  1.2777
 6859TIP3   OH241991   2.130   5.119   1.164 -0.1582  0.3207 -0.4183
 6859TIP3    H141992   2.214   5.077   1.147 -0.7060 -0.8974 -0.1884
 6859TIP3    H241993   2.122   5.119   1.259 -0.2784  0.7211 -0.4263
 6860TIP3   OH241994   1.429   3.469  14.886 -0.6030  0.1884  0.3933
 6860TIP3    H141995   1.353   3.516  14.853 -0.7802 -0.9918 -0.9833
 6860TIP3    H241996   1.392   3.389  14.924 -0.0585 -0.6067 -0.6846
 6861TIP3   OH241997   1.380   3.621  14.600 -0.3807  0.3242  0.1645
 6861TIP3    H141998   1.460   3.571  14.618 -1.0555 -0.0849  2.3403
 6861TIP3    H241999   1.338   3.573  14.528  1.0401  0.2486 -0.6580
 6862TIP3   OH242000   3.506   0.891   1.028  0.3519 -0.0523  0.0617
 6862TIP3    H142001   3.413   0.872   1.013  0.3316 -0.1810  0.3257
 6862TIP3    H242002   3.524   0.853   1.115  1.0753 -1.5684 -0.7053
 6863TIP3   OH242003   2.364   0.206   5.182  0.6620  0.5515 -0.1416
 6863TIP3    H142004   2.311   0.275   5.141  1.1934  0.3021 -1.2951
 6863TIP3    H242005   2.356   0.132   5.122  0.5985 -0.1911  0.7718
 6864TIP3   OH242006   4.918   5.508   3.529 -0.3666  0.3093  0.4907
 6864TIP3    H142007   4.954   5.493   3.442 -0.7295 -0.0477  0.4013
 6864TIP3    H242008   4.842   5.450   3.534 -2.6249  2.9336 -0.3637
 6865TIP3   OH242009   3.826   3.456   5.195 -0.0642 -0.8118 -0.0891
 6865TIP3    H142010   3.913   3.423   5.215  1.0200  1.6586 -0.3184
 6865TIP3    H242011   3.792   3.487   5.279 -1.1636 -2.6190  0.1728
 6866TIP3   OH242012   3.878   3.213  13.472 -0.0498  0.5705  0.1085
 6866TIP3    H142013   3.846   3.240  13.558  0.5184 -0.1583  0.5553
 6866TIP3    H242014   3.800   3.181  13.427 -0.0736 -0.7948  1.0383
 6867TIP3   OH242015   2.405   6.457   2.687 -0.4477  0.2083 -0.1229
 6867TIP3    H142016   2.396   6.381   2.630 -0.8020  0.1156  0.0528
 6867TIP3    H242017   2.488   6.445   2.732  0.4451  0.8880 -1.5139
 6868TIP3   OH242018   1.334   2.120  12.949  0.2514 -0.4310  0.1433
 6868TIP3    H142019   1.361   2.077  13.030 -0.1614 -0.7980  0.0906
 6868TIP3    H242020   1.415   2.155  12.913  0.1695  1.5650  1.7331
 6869TIP3   OH242021   3.317   4.574   5.305 -0.3648 -0.5667 -0.2975
 6869TIP3    H142022   3.265   4.531   5.372 -0.3106  1.8947  1.4452
 6869TIP3    H242023   3.299   4.668   5.316  1.1297  0.0669 -2.4679
 6870TIP3   OH242024   2.838   1.607  17.162 -0.5172  0.2082  0.1537
 6870TIP3    H142025   2.763   1.551  17.179 -1.5778  1.9409  1.4891
 6870TIP3    H242026   2.901   1.585  17.230 -0.4817 -0.1133  0.0173
 6871TIP3   OH242027   6.518   2.268  12.764  0.2773  0.0049 -0.0040
 6871TIP3    H142028   6.466   2.283  12.685  2.6496 -0.4780 -1.7973
 6871TIP3    H242029   6.600   2.316  12.748  1.6269 -1.7273  1.2454
 6872TIP3   OH242030   1.877   2.767   3.250  0.4357 -0.4247  0.1374
 6872TIP3    H142031   1.823   2.689   3.239  0.8414 -0.9732  1.7429
 6872TIP3    H242032   1.815   2.840   3.246  0.0057 -0.8284 -1.0266
 6873TIP3   OH242033   0.728   0.833  13.495  0.8994 -0.0207 -0.0808
 6873TIP3    H142034   0.673   0.852  13.570 -1.3033 -0.3578 -1.5276
 6873TIP3    H242035   0.744   0.739  13.500  2.9840  0.3341  1.3240
 6874TIP3   OH242036   4.819   5.972  14.018  0.1411  0.0794  0.3223
 6874TIP3    H142037   4.771   6.046  14.056 -3.4890 -1.7154 -0.3662
 6874TIP3    H242038   4.787   5.967  13.928  0.4665 -2.1811  0.2879
 6875TIP3   OH242039   0.424   0.796  16.367 -0.3712 -0.1393 -0.4383
 6875TIP3    H142040   0.419   0.728  16.435  0.6022  1.2876  1.1397
 6875TIP3    H242041   0.377   0.871  16.404  0.0740  0.6363 -1.3931
 6876TIP3   OH242042   0.603   5.428   4.898  0.4491  0.4124 -0.6015
 6876TIP3    H142043   0.695   5.413   4.918  0.4434  1.4719  0.3550
 6876TIP3    H242044   0.558   5.418   4.982 -0.1146  1.2511 -0.7908
 6877TIP3   OH242045   6.605   2.942   2.739 -0.3456 -0.3313 -0.0015
 6877TIP3    H142046   6.665   2.902   2.801  0.0343 -0.0997 -0.2088
 6877TIP3    H242047   6.640   2.918   2.653 -0.7027 -0.4147 -0.1258
 6878TIP3   OH242048   5.774   3.070  11.430 -0.0064  0.0863 -0.0478
 6878TIP3    H142049   5.862   3.059  11.395  0.2709  1.5776  0.1088
 6878TIP3    H242050   5.722   3.002  11.387  0.7460  0.6102 -1.8761
 6879TIP3   OH242051   0.047   6.770   1.527 -0.2718 -0.5975 -1.0829
 6879TIP3    H142052  -0.018   6.815   1.580  0.2599  0.4468 -1.3000
 6879TIP3    H242053   0.096   6.716   1.590  0.2661  0.5227 -0.5038
 6880TIP3   OH242054   3.407   1.825   0.529 -0.2740 -0.6260  0.4273
 6880TIP3    H142055   3.392   1.736   0.561  0.1418 -0.8147  0.1071
 6880TIP3    H242056   3.412   1.879   0.609 -0.5384 -0.8864  0.6210
 6881TIP3   OH242057   5.107   0.139   1.758 -0.7337  0.5447  0.7261
 6881TIP3    H142058   5.021   0.105   1.735 -0.2933 -0.5397  0.6048
 6881TIP3    H242059   5.132   0.092   1.837  0.9512 -1.3794 -0.8090
 6882TIP3   OH242060   3.896   6.736  14.662  0.3859  0.1353 -0.1139
 6882TIP3    H142061   3.864   6.717  14.574 -0.6982 -2.1799  0.6965
 6882TIP3    H242062   3.820   6.722  14.719  0.8748  2.2177  1.1757
 6883TIP3   OH242063   0.605   0.171  15.711  0.3267 -0.2423  0.0187
 6883TIP3    H142064   0.571   0.245  15.660 -0.3674  1.4858  2.7766
 6883TIP3    H242065   0.700   0.179  15.705  0.2534  0.6209 -0.1191
 6884TIP3   OH242066   2.465   3.697  11.127  0.1572 -0.2197 -0.1730
 6884TIP3    H142067   2.375   3.704  11.098  0.3592 -0.2490 -0.8266
 6884TIP3    H242068   2.478   3.603  11.141 -0.8045 -0.0004  2.8986
 6885TIP3   OH242069   2.240   1.958   5.367 -0.1897 -0.1153 -0.4751
 6885TIP3    H142070   2.197   1.980   5.284 -0.5212  1.4582  0.0724
 6885TIP3    H242071   2.170   1.964   5.432  0.2260 -0.5737  0.0181
 6886TIP3   OH242072   2.907   1.345   3.143  0.6164  0.1831  0.5083
 6886TIP3    H142073   2.841   1.396   3.190 -2.5775 -1.9745 -1.2368
 6886TIP3    H242074   2.953   1.296   3.212 -2.3914 -1.2306  1.7119
 6887TIP3   OH242075   1.192   4.789  14.977  0.5170 -0.5979  0.1693
 6887TIP3    H142076   1.214   4.823  14.890 -1.0809  1.7292  0.5906
 6887TIP3    H242077   1.247   4.839  15.036  0.2512 -0.8457  0.6287
 6888TIP3   OH242078   3.849   1.826   4.208  0.3143  0.0822  0.6214
 6888TIP3    H142079   3.900   1.782   4.276 -0.5376 -0.3008  1.0166
 6888TIP3    H242080   3.913   1.842   4.138  0.8622 -0.8559  0.8891
 6889TIP3   OH242081   1.344   2.342   5.462 -0.1824  0.7859 -0.1635
 6889TIP3    H142082   1.430   2.347   5.420  0.5104  0.9145  1.2169
 6889TIP3    H242083   1.288   2.301   5.397  0.1183  3.5074 -2.3460
 6890TIP3   OH242084   6.504   0.124   3.984 -0.1271 -0.1825 -0.4929
 6890TIP3    H142085   6.413   0.128   4.015 -0.1818 -0.9200 -0.5220
 6890TIP3    H242086   6.554   0.171   4.050 -0.6993  1.4800 -1.2037
 6891TIP3   OH242087   6.252   4.713   5.929 -0.3689  0.1911  0.4869
 6891TIP3    H142088   6.181   4.770   5.899 -1.6122 -0.7942  1.4395
 6891TIP3    H242089   6.208   4.630   5.951  1.3060 -1.0000 -0.3972
 6892TIP3   OH242090   1.084   5.197  13.815 -0.1013 -0.0375  0.4159
 6892TIP3    H142091   1.078   5.251  13.736  3.1939 -2.0407 -1.4094
 6892TIP3    H242092   0.994   5.193  13.847 -1.3310  2.1982 -2.2633
 6893TIP3   OH242093   1.762   6.665  16.172 -0.2835 -0.4234  0.7182
 6893TIP3    H142094   1.749   6.623  16.087 -0.8085 -0.0229  0.5989
 6893TIP3    H242095   1.855   6.650  16.192  0.2325  0.7450 -0.6206
 6894TIP3   OH242096   0.139   6.396   4.997  0.6947  0.0427  0.1515
 6894TIP3    H142097   0.076   6.362   5.060 -1.8466 -0.0079 -2.1897
 6894TIP3    H242098   0.154   6.323   4.936  0.3888  1.0386 -1.1675
 6895TIP3   OH242099   1.727   6.302   4.595 -0.3167  0.4299  0.6550
 6895TIP3    H142100   1.658   6.314   4.530 -0.1087 -0.4496  0.2601
 6895TIP3    H242101   1.806   6.334   4.553 -0.1955 -0.0716  0.4931
 6896TIP3   OH242102   0.847   2.184  11.814  0.4141 -0.2128  0.4838
 6896TIP3    H142103   0.754   2.207  11.820  0.4954  0.2644 -0.0237
 6896TIP3    H242104   0.866   2.184  11.720  1.1587  0.6556  0.6216
 6897TIP3   OH242105   3.057   1.914   0.287  0.3392  0.1239  0.8272
 6897TIP3    H142106   3.080   1.993   0.335  0.5098  1.0863 -0.7962
 6897TIP3    H242107   3.124   1.850   0.313  1.3224  1.0792  0.6945
 6898TIP3   OH242108   2.139   0.514   2.773  0.4955 -0.3960 -0.3072
 6898TIP3    H142109   2.099   0.429   2.756 -0.1326 -0.0526 -0.5883
 6898TIP3    H242110   2.229   0.505   2.741  0.6249 -1.1521  0.2598
 6899TIP3   OH242111   1.323   5.323  13.176  0.2305  0.4433  0.0631
 6899TIP3    H142112   1.348   5.242  13.219  0.8778  1.0695  0.8950
 6899TIP3    H242113   1.227   5.319  13.170  0.3119 -0.7359 -0.6564
 6900TIP3   OH242114   1.705   5.395  16.817 -0.1647  0.5669  0.3753
 6900TIP3    H142115   1.768   5.426  16.751 -1.3082  0.9953 -0.5489
 6900TIP3    H242116   1.642   5.343  16.767 -0.7031  0.3738  1.2427
 6901TIP3   OH242117   0.229   5.951   3.327 -0.1619 -0.3656 -0.0843
 6901TIP3    H142118   0.135   5.955   3.309 -0.0959  1.8012 -0.2191
 6901TIP3    H242119   0.270   5.959   3.241  0.1326  1.3128  0.1905
 6902TIP3   OH242120   3.224   0.396   2.317  0.2543 -0.1826 -0.5655
 6902TIP3    H142121   3.306   0.377   2.272  0.7294 -0.6342  0.4418
 6902TIP3    H242122   3.155   0.365   2.257  0.7631  1.0666 -1.8266
 6903TIP3   OH242123   4.868   6.035   0.903  0.3919 -0.1715  0.2557
 6903TIP3    H142124   4.841   6.039   0.995  0.1788 -0.4568  0.2035
 6903TIP3    H242125   4.883   5.942   0.885  1.1407 -0.0526  0.2038
 6904TIP3   OH242126   3.674   0.545   0.856  0.1244  0.7040 -0.1129
 6904TIP3    H142127   3.669   0.581   0.767 -0.6708  0.8173 -0.0260
 6904TIP3    H242128   3.621   0.605   0.909  0.1753  0.3474  0.3418
 6905TIP3   OH242129   4.725   0.199  12.537 -0.1535 -0.3810 -0.3801
 6905TIP3    H142130   4.808   0.153  12.545  0.6462  0.9799 -0.4434
 6905TIP3    H242131   4.719   0.222  12.444 -1.2444 -1.5790 -0.6329
 6906TIP3   OH242132   2.023   0.786   2.473 -0.2144 -0.1611  0.2057
 6906TIP3    H142133   1.945   0.771   2.526  0.1912  1.0395  1.1733
 6906TIP3    H242134   2.088   0.820   2.534  0.6959 -0.0129 -0.8107
 6907TIP3   OH242135   0.048   0.869  15.670  0.5090  0.1255  0.1125
 6907TIP3    H142136   0.048   0.863  15.765  1.8815 -1.2049  0.0529
 6907TIP3    H242137   0.140   0.875  15.646  0.1259  1.8493 -1.0796
 6908TIP3   OH242138   4.569   5.662  13.853 -0.3700  0.4419  0.4509
 6908TIP3    H142139   4.596   5.706  13.772 -0.0769 -0.7313 -0.1278
 6908TIP3    H242140   4.525   5.729  13.904  0.6459  1.5554 -0.0895
 6909TIP3   OH242141   1.083   3.887   0.545  0.4720  0.3436  0.8812
 6909TIP3    H142142   1.090   3.899   0.450  0.9020  0.1142  0.8826
 6909TIP3    H242143   1.076   3.976   0.580  0.6933  0.4477  0.6629
 6910TIP3   OH242144   1.852   3.592  12.503 -0.4173 -0.7487  0.0565
 6910TIP3    H142145   1.895   3.510  12.476  2.2518  0.4816  0.2895
 6910TIP3    H242146   1.836   3.580  12.597  2.0676 -0.2206  0.6126
 6911TIP3   OH242147   2.806   5.557   0.515  0.0687 -0.0541 -0.5469
 6911TIP3    H142148   2.723   5.606   0.513  0.6376  0.9154 -1.7306
 6911TIP3    H242149   2.863   5.608   0.571 -0.1596 -0.7988  0.3838
 6912TIP3   OH242150   0.071   5.561  13.888  0.1129 -0.1707 -0.1003
 6912TIP3    H142151   0.029   5.621  13.826  1.9395 -0.3030 -1.5465
 6912TIP3    H242152   0.091   5.483  13.837  3.9831  0.6761 -0.1969
 6913TIP3   OH242153   2.570   2.460  15.753 -0.1310 -0.1076  0.2675
 6913TIP3    H142154   2.507   2.471  15.824  0.4960  1.3794  0.6192
 6913TIP3    H242155   2.539   2.517  15.683  0.5149  0.2107  0.2355
 6914TIP3   OH242156   3.233   2.312   5.809 -0.2306  0.3422  0.1034
 6914TIP3    H142157   3.199   2.299   5.898  1.1840  2.4462  1.0296
 6914TIP3    H242158   3.227   2.406   5.795  2.4574  0.4627 -0.7875
 6915TIP3   OH242159   2.814   2.066   3.913 -0.4267 -0.1577 -0.0551
 6915TIP3    H142160   2.839   1.976   3.934  0.7673  0.1660 -0.0118
 6915TIP3    H242161   2.722   2.072   3.939 -0.9508 -1.7685 -1.3480
 6916TIP3   OH242162   4.890   2.377   1.390  0.3416  0.0507 -0.4285
 6916TIP3    H142163   4.911   2.318   1.317 -0.0172 -0.5857 -0.0256
 6916TIP3    H242164   4.814   2.337   1.433 -0.4408  1.2425 -0.6340
 6917TIP3   OH242165   4.460   6.430  12.293 -0.2063 -0.2269  0.1916
 6917TIP3    H142166   4.492   6.516  12.320  1.1927 -0.0027 -1.9449
 6917TIP3    H242167   4.537   6.387  12.256 -1.6846 -0.8739 -2.3961
 6918TIP3   OH242168   4.202   5.665   5.325 -0.3369  0.2832  0.0459
 6918TIP3    H142169   4.200   5.666   5.229 -1.8245 -0.1561  0.0336
 6918TIP3    H242170   4.163   5.581   5.349 -0.4552  0.5982  1.0309
 6919TIP3   OH242171   3.274   3.293  11.816  0.0091  0.0095  0.3373
 6919TIP3    H142172   3.255   3.271  11.724 -0.7933 -0.2951  0.5626
 6919TIP3    H242173   3.206   3.247  11.865  1.1227 -0.7736  1.1815
 6920TIP3   OH242174   5.633   3.102   3.140  0.0127  0.3236  0.3693
 6920TIP3    H142175   5.584   3.107   3.221 -1.4738 -2.7354 -0.2079
 6920TIP3    H242176   5.710   3.048   3.161  0.8093  1.3523  0.2093
 6921TIP3   OH242177   2.085   4.174   3.059 -0.1109  0.5116 -0.1207
 6921TIP3    H142178   2.121   4.087   3.041 -0.5873  0.4101 -0.5846
 6921TIP3    H242179   2.016   4.186   2.994  0.4759  1.5657 -0.5779
 6922TIP3   OH242180   2.322   6.457   6.334  0.0405  0.5218  0.1842
 6922TIP3    H142181   2.354   6.390   6.273 -2.0107 -2.0984  1.7767
 6922TIP3    H242182   2.234   6.478   6.303 -0.1262  0.9248  0.9030
 6923TIP3   OH242183   4.570   1.710  11.247 -0.4744  0.5131  0.8268
 6923TIP3    H142184   4.602   1.726  11.158  0.4401 -3.2425  0.3160
 6923TIP3    H242185   4.488   1.759  11.252 -0.2208  1.3591 -1.8459
 6924TIP3   OH242186   6.377   3.747   3.564  0.5937 -0.1515 -0.3326
 6924TIP3    H142187   6.334   3.816   3.615  0.3864  0.5756 -1.4595
 6924TIP3    H242188   6.456   3.788   3.529  0.7303 -0.6397 -0.6053
 6925TIP3   OH242189   5.362   4.697  15.762 -0.2381 -0.9126  0.2637
 6925TIP3    H142190   5.453   4.726  15.761 -0.5151  0.0270  0.5661
 6925TIP3    H242191   5.325   4.728  15.680 -0.4877 -0.5622  0.5012
 6926TIP3   OH242192   3.508   3.358  15.935  0.0304  0.1790 -0.6106
 6926TIP3    H142193   3.555   3.406  16.003  0.3941 -0.7274 -0.2056
 6926TIP3    H242194   3.439   3.311  15.982  0.3433 -0.5271 -0.8386
 6927TIP3   OH242195   0.363   4.801  12.079 -0.3651 -0.0196  0.1164
 6927TIP3    H142196   0.433   4.746  12.115 -1.9481 -2.2752 -0.0871
 6927TIP3    H242197   0.376   4.798  11.985  0.6063  1.5131  0.1656
 6928TIP3   OH242198   4.791   4.121   5.928  0.7225 -0.1733 -0.1014
 6928TIP3    H142199   4.865   4.072   5.965  0.9228 -0.7829 -1.2557
 6928TIP3    H242200   4.717   4.060   5.933  0.9639 -0.6129 -1.5031
 6929TIP3   OH242201   4.639   4.534   5.065 -0.5598 -0.4109 -0.3015
 6929TIP3    H142202   4.555   4.567   5.034 -0.0154  0.7091 -0.6148
 6929TIP3    H242203   4.663   4.592   5.137  0.4235 -0.0919 -0.8698
 6930TIP3   OH242204   3.867   2.746  12.951  0.1359 -0.3815 -0.3187
 6930TIP3    H142205   3.936   2.812  12.947 -0.5389  0.3031 -0.9787
 6930TIP3    H242206   3.898   2.674  12.897  1.3919 -1.1407  1.3168
 6931TIP3   OH242207   3.507   2.543   2.405 -0.1586  0.6045 -0.4220
 6931TIP3    H142208   3.520   2.597   2.327  1.1803  1.6639  0.4810
 6931TIP3    H242209   3.594   2.507   2.424 -0.0273  1.7854  1.5438
 6932TIP3   OH242210   3.158   1.999  17.081  0.0275 -0.4811  0.4674
 6932TIP3    H142211   3.115   1.937  17.023  0.1992 -0.6133  0.4836
 6932TIP3    H242212   3.091   2.022  17.145  0.1149 -1.0272  0.7591
 6933TIP3   OH242213   6.720   0.023   0.599 -0.1305  0.5103  0.4538
 6933TIP3    H142214   6.652   0.050   0.661 -0.9112  1.3834 -0.7274
 6933TIP3    H242215   6.699  -0.068   0.579 -0.3496  0.4694  0.8501
 6934TIP3   OH242216   3.706   1.434   3.626  0.0237 -0.8150 -0.4391
 6934TIP3    H142217   3.747   1.375   3.689  3.1662 -0.3353 -1.8087
 6934TIP3    H242218   3.729   1.522   3.658 -1.1385 -0.4429 -0.5696
 6935TIP3   OH242219   6.455   1.573  12.081  0.1094 -0.2115 -0.7242
 6935TIP3    H142220   6.433   1.527  12.162 -2.9053  0.0687 -1.2537
 6935TIP3    H242221   6.440   1.509  12.012 -1.1730  0.6165 -1.2602
 6936TIP3   OH242222   1.354   5.364   3.174 -0.4315  0.2037  0.1862
 6936TIP3    H142223   1.360   5.280   3.220 -0.3263 -0.3271 -0.7679
 6936TIP3    H242224   1.444   5.385   3.148 -0.6980 -0.4474 -1.3804
 6937TIP3   OH242225   5.999   2.120   3.729  0.2757 -0.6282  0.2626
 6937TIP3    H142226   5.931   2.144   3.666 -0.4636  0.7573  1.5175
 6937TIP3    H242227   6.058   2.196   3.731 -0.3316 -0.1537  2.0112
 6938TIP3   OH242228   5.607   1.736  14.192  0.1040 -0.1301 -0.2014
 6938TIP3    H142229   5.571   1.673  14.255 -0.8244  0.8355  0.2529
 6938TIP3    H242230   5.635   1.810  14.246  0.4748  0.1731 -0.8045
 6939TIP3   OH242231   1.223   3.271   3.948  0.6274  0.4283 -0.2594
 6939TIP3    H142232   1.228   3.202   3.882 -3.2241  0.5786 -0.9074
 6939TIP3    H242233   1.309   3.314   3.944  2.1360 -2.4255 -1.8440
 6940TIP3   OH242234   6.685   0.262   4.802 -0.7240 -0.1398 -0.0014
 6940TIP3    H142235   6.637   0.179   4.799 -1.1759  0.1441 -1.2724
 6940TIP3    H242236   6.765   0.242   4.850 -0.4323 -1.5387 -1.0186
 6941TIP3   OH242237   0.187   1.680  11.288  0.4171  0.6567 -0.5992
 6941TIP3    H142238   0.136   1.599  11.290  0.6204  0.4611  2.5258
 6941TIP3    H242239   0.238   1.675  11.208 -0.5343 -1.6890 -1.1400
 6942TIP3   OH242240   6.383   1.361  11.944 -0.6815  0.0883 -0.4673
 6942TIP3    H142241   6.409   1.313  11.865 -0.2937  0.0508 -0.3178
 6942TIP3    H242242   6.293   1.389  11.926  0.0035  1.6803 -1.7004
 6943TIP3   OH242243   0.171   1.287   0.518  0.5854 -0.6523  0.2394
 6943TIP3    H142244   0.245   1.318   0.571  0.5691  1.4457 -0.8723
 6943TIP3    H242245   0.094   1.301   0.574  0.6680  0.6334  0.0585
 6944TIP3   OH242246   0.108   6.090  11.899  0.2435 -0.6585 -0.4153
 6944TIP3    H142247   0.152   6.092  11.814 -1.4076 -1.8829 -1.3506
 6944TIP3    H242248   0.167   6.138  11.958  0.8868  1.2191 -2.4744
 6945TIP3   OH242249   4.034   0.409   5.002 -0.1305  0.3049  0.7802
 6945TIP3    H142250   4.010   0.489   4.955  0.8991  0.5338  0.6001
 6945TIP3    H242251   4.040   0.342   4.934  3.1319  1.0246  0.1887
 6946TIP3   OH242252   6.197   0.389   2.844 -0.3499 -0.2450 -0.0883
 6946TIP3    H142253   6.197   0.471   2.894 -3.1823  0.2314 -0.7138
 6946TIP3    H242254   6.215   0.321   2.909  1.0079  0.7577  0.6291
 6947TIP3   OH242255   2.346   0.478   2.113 -0.1607 -0.0728 -0.1765
 6947TIP3    H142256   2.267   0.423   2.114 -0.0987 -0.1621 -0.1429
 6947TIP3    H242257   2.361   0.500   2.205 -0.7835  0.8688 -0.2905
 6948TIP3   OH242258   2.922   2.347   5.202 -0.3719  0.8011  0.1673
 6948TIP3    H142259   2.902   2.425   5.150 -3.1833 -0.3323 -0.6542
 6948TIP3    H242260   2.959   2.285   5.140 -2.0182  0.0880 -0.1463
 6949TIP3   OH242261   1.764   1.149  15.422  0.0354 -0.8114  0.2210
 6949TIP3    H142262   1.784   1.106  15.339  0.6987 -1.2023  0.5705
 6949TIP3    H242263   1.740   1.238  15.398 -1.1678 -1.3110 -0.5029
 6950TIP3   OH242264   2.500   6.440   5.693  0.1157  0.7121  0.2417
 6950TIP3    H142265   2.590   6.425   5.665 -0.0307 -2.6398  1.2223
 6950TIP3    H242266   2.453   6.459   5.611  0.9328 -2.0772 -1.0013
 6951TIP3   OH242267   2.742   2.754  10.528 -0.0361  0.2175 -0.1660
 6951TIP3    H142268   2.724   2.788  10.616  0.6209  0.1213  0.0093
 6951TIP3    H242269   2.814   2.809  10.495  2.2476 -2.0208  0.7821
 6952TIP3   OH242270   4.156   0.127  13.035  0.2685 -0.1906  0.2785
 6952TIP3    H142271   4.122   0.049  12.991 -0.6665  0.4934 -0.2481
 6952TIP3    H242272   4.186   0.095  13.120 -2.2928 -0.7820  1.0554
 6953TIP3   OH242273   0.961   6.567  14.200 -0.0829  0.5578  0.3439
 6953TIP3    H142274   0.888   6.590  14.257 -0.5237 -0.8777  0.4018
 6953TIP3    H242275   0.923   6.509  14.135  0.7076  1.0282 -0.5581
 6954TIP3   OH242276   0.013   1.725  13.098  0.4726 -0.6723 -0.4154
 6954TIP3    H142277   0.088   1.666  13.104  1.1803  0.1754 -0.7606
 6954TIP3    H242278  -0.061   1.668  13.075  0.7325 -1.7164  1.1362
 6955TIP3   OH242279   4.237   1.541   3.091 -0.9234  0.1049 -0.2228
 6955TIP3    H142280   4.233   1.583   3.005 -1.1199 -0.7541 -0.6452
 6955TIP3    H242281   4.270   1.453   3.073 -1.7167 -0.3487  0.4868
 6956TIP3   OH242282   1.440   1.957  11.745 -0.2438  0.2778  0.4490
 6956TIP3    H142283   1.386   1.908  11.683 -2.4949  2.1929  0.7562
 6956TIP3    H242284   1.452   2.043  11.705  3.0432 -0.1780  0.2189
 6957TIP3   OH242285   1.690   6.455  14.115 -0.1259  0.1155 -0.3102
 6957TIP3    H142286   1.740   6.382  14.152  0.1143  0.9906  1.1829
 6957TIP3    H242287   1.747   6.531  14.125 -1.9195  1.2848  2.0662
 6958TIP3   OH242288   0.385   0.514  16.426 -0.3917 -0.1308 -0.2545
 6958TIP3    H142289   0.385   0.501  16.331  0.8039  0.0317 -0.3009
 6958TIP3    H242290   0.396   0.427  16.462  0.6589 -0.0437 -0.3303
 6959TIP3   OH242291   2.305   1.886   1.029  0.3154 -0.1339 -0.7567
 6959TIP3    H142292   2.227   1.921   0.986 -0.8032 -0.7810  0.6770
 6959TIP3    H242293   2.369   1.957   1.025 -0.5529  0.6279 -1.3962
 6960TIP3   OH242294   2.852   3.468   1.445 -0.7038 -0.3995  0.1480
 6960TIP3    H142295   2.763   3.500   1.426 -0.5754  0.8265  1.4351
 6960TIP3    H242296   2.893   3.540   1.492  1.2436 -0.6608 -1.0565
 6961TIP3   OH242297   5.861   4.684   3.721 -0.3013 -0.5269 -0.3062
 6961TIP3    H142298   5.905   4.722   3.645 -1.6383  1.4731 -0.1474
 6961TIP3    H242299   5.883   4.743   3.793 -1.3424 -0.8135  0.2643
 6962TIP3   OH242300   2.456   3.019   0.543 -0.5498  0.3913  0.2987
 6962TIP3    H142301   2.484   2.930   0.562 -0.0175  0.4273 -0.2934
 6962TIP3    H242302   2.485   3.070   0.619  0.0431  0.2355  0.1770
 6963TIP3   OH242303   2.436   3.126   1.496 -0.2644  0.6639  0.4578
 6963TIP3    H142304   2.420   3.206   1.546  0.8873  1.9632 -1.1502
 6963TIP3    H242305   2.519   3.141   1.452  0.1740 -1.5950  0.3838
 6964TIP3   OH242306   1.427   5.463   0.784  0.0326  0.3321  0.6288
 6964TIP3    H142307   1.483   5.386   0.777  0.5357  0.7263  0.2594
 6964TIP3    H242308   1.488   5.537   0.784 -0.4841  0.7618  0.3280
 6965TIP3   OH242309   2.655   1.275  12.280 -0.1056  0.4979  0.2082
 6965TIP3    H142310   2.683   1.229  12.360 -1.6446 -0.0917  0.4433
 6965TIP3    H242311   2.714   1.350  12.274  0.1072  0.5122  1.8547
 6966TIP3   OH242312   6.447   0.295   1.528  0.1554  0.6297  0.1391
 6966TIP3    H142313   6.394   0.221   1.499  1.5559  0.0843 -1.2260
 6966TIP3    H242314   6.440   0.295   1.623 -0.7154 -0.6140  0.0948
 6967TIP3   OH242315   2.279   5.055   5.703  0.8308  0.4474 -0.1615
 6967TIP3    H142316   2.302   4.966   5.679 -2.5404 -0.1042 -2.0582
 6967TIP3    H242317   2.250   5.049   5.794 -1.3597 -0.9737 -0.8582
 6968TIP3   OH242318   6.070   6.420   0.807 -0.2987  0.1260  0.0340
 6968TIP3    H142319   6.082   6.513   0.788 -0.2727 -0.1456 -1.4663
 6968TIP3    H242320   5.976   6.412   0.825 -0.8410  0.1142 -2.3505
 6969TIP3   OH242321   5.751   5.651  16.489 -0.0952  0.2635 -0.1287
 6969TIP3    H142322   5.743   5.565  16.448  0.8133 -0.1482  0.5082
 6969TIP3    H242323   5.825   5.641  16.550  0.3315  1.6332 -0.3962
 6970TIP3   OH242324   0.139   3.818   3.715 -0.3328 -0.1018  0.4701
 6970TIP3    H142325   0.094   3.748   3.762 -0.7538 -0.3787 -0.3134
 6970TIP3    H242326   0.104   3.813   3.626  0.3603  0.4700  0.1524
 6971TIP3   OH242327   0.143   2.851  16.665 -0.4950  0.1820  0.1744
 6971TIP3    H142328   0.123   2.928  16.719 -1.2492  0.4985 -0.5218
 6971TIP3    H242329   0.229   2.822  16.695  0.3008  1.9519 -0.2741
 6972TIP3   OH242330   5.466   6.385  11.888 -0.3310  0.4548  0.2360
 6972TIP3    H142331   5.445   6.335  11.967 -2.2137 -1.0498 -1.1103
 6972TIP3    H242332   5.560   6.370  11.874 -0.3713 -0.8331  1.1431
 6973TIP3   OH242333   4.701   2.041  15.778 -0.2158 -1.1053 -0.0508
 6973TIP3    H142334   4.644   1.965  15.767  0.0218 -1.0806 -1.5882
 6973TIP3    H242335   4.789   2.004  15.786 -0.1386 -1.0057 -0.4465
 6974TIP3   OH242336   6.432   1.238  13.828  0.1723 -0.4535 -0.0916
 6974TIP3    H142337   6.517   1.243  13.784  0.0825 -1.1956 -0.3678
 6974TIP3    H242338   6.369   1.222  13.757 -0.0195 -1.3066  0.2606
 6975TIP3   OH242339   0.442   1.615  17.072 -0.5740  0.0285 -0.4409
 6975TIP3    H142340   0.512   1.631  17.009  1.6200  0.1576  1.8805
 6975TIP3    H242341   0.389   1.695  17.071  0.4219  0.6959 -0.9302
 6976TIP3   OH242342   4.491   0.462  13.102  0.1673 -0.0879 -0.0650
 6976TIP3    H142343   4.564   0.502  13.150 -0.2644 -0.1936  0.6919
 6976TIP3    H242344   4.500   0.496  13.012  0.9869  0.1065  0.0812
 6977TIP3   OH242345   5.152   5.414   5.232  0.2324 -0.5562 -0.4927
 6977TIP3    H142346   5.078   5.386   5.178  0.1878  0.5126 -1.0104
 6977TIP3    H242347   5.207   5.465   5.172  0.1340  0.7327  0.4669
 6978TIP3   OH242348   3.818   0.365  15.441  0.1079  0.4474 -0.0242
 6978TIP3    H142349   3.765   0.316  15.505  1.8290 -0.5736  0.6738
 6978TIP3    H242350   3.817   0.310  15.362 -0.0251  0.5298 -0.0808
 6979TIP3   OH242351   1.030   5.650  16.467  0.4497 -0.5402 -0.2007
 6979TIP3    H142352   1.108   5.661  16.522  0.6319 -1.5958 -0.2338
 6979TIP3    H242353   1.063   5.655  16.377  0.8773 -3.1887 -0.2640
 6980TIP3   OH242354   1.919   4.435   2.166  0.0463  0.1130 -0.0481
 6980TIP3    H142355   1.850   4.369   2.171  0.1321  0.1049  1.6887
 6980TIP3    H242356   1.981   4.400   2.102 -0.1919 -1.2414  0.4236
 6981TIP3   OH242357   1.594   1.932  14.095  0.0564 -0.2103 -0.1953
 6981TIP3    H142358   1.552   1.920  14.180 -0.8647  1.0063 -0.4473
 6981TIP3    H242359   1.537   1.886  14.033  0.4904 -0.7254 -0.2159
 6982TIP3   OH242360   4.354   3.183   1.841  0.2753 -0.1573  0.1835
 6982TIP3    H142361   4.291   3.254   1.832 -1.3423 -1.6853 -1.3162
 6982TIP3    H242362   4.345   3.155   1.932  1.9544  2.3471  1.2397
 6983TIP3   OH242363   6.191   1.014   1.814 -0.3994  0.4100 -0.6078
 6983TIP3    H142364   6.228   1.092   1.855 -1.5454  0.6759 -0.0447
 6983TIP3    H242365   6.250   0.995   1.741  1.1625  0.4736  0.5830
 6984TIP3   OH242366   3.177   4.151   5.174 -0.2683  0.5247  0.0560
 6984TIP3    H142367   3.163   4.080   5.111 -1.7772  0.8637 -0.0459
 6984TIP3    H242368   3.110   4.137   5.241 -0.0782  1.4021  0.4453
 6985TIP3   OH242369   0.601   3.581  15.196 -0.6714  1.0441  0.3247
 6985TIP3    H142370   0.663   3.622  15.257 -0.9198  2.6382 -0.4486
 6985TIP3    H242371   0.586   3.647  15.129 -3.7168  1.0017  0.8194
 6986TIP3   OH242372   3.117   5.130   1.252 -0.0555  1.1678  0.3444
 6986TIP3    H142373   3.148   5.120   1.162 -0.1019 -0.3422  0.4795
 6986TIP3    H242374   3.028   5.096   1.251 -0.4196  2.0696  0.7665
 6987TIP3   OH242375   3.252   4.000   3.895 -0.1911  0.2290  0.7540
 6987TIP3    H142376   3.252   4.016   3.800 -0.0169  0.5087  0.8020
 6987TIP3    H242377   3.324   4.052   3.928  0.1074 -0.3156  0.9672
 6988TIP3   OH242378   3.437   1.280  11.476 -0.1142  0.4658 -0.3988
 6988TIP3    H142379   3.510   1.289  11.537 -1.3550  0.8583  1.0990
 6988TIP3    H242380   3.465   1.214  11.414  2.9142  2.9886 -2.0147
 6989TIP3   OH242381   4.227   1.336  15.427  0.2876 -0.4893  0.0870
 6989TIP3    H142382   4.286   1.359  15.355 -0.2529  0.0291 -0.1889
 6989TIP3    H242383   4.198   1.419  15.462 -3.6780 -0.5183 -2.5297
 6990TIP3   OH242384   0.807   2.943   5.445 -0.3522 -0.0124 -0.5918
 6990TIP3    H142385   0.838   3.028   5.415  1.5846 -0.3574  0.2743
 6990TIP3    H242386   0.754   2.963   5.523  0.3400  0.3943 -0.2187
 6991TIP3   OH242387   0.533   5.989  10.493 -0.1913 -0.6103 -0.0347
 6991TIP3    H142388   0.486   5.913  10.527 -0.2706 -0.6307 -0.1880
 6991TIP3    H242389   0.516   5.987  10.399 -0.6862 -0.0620  0.0377
 6992TIP3   OH242390   4.750   3.141   2.374  0.2796 -0.5580  0.2829
 6992TIP3    H142391   4.743   3.120   2.467 -2.4994 -0.1673  0.2240
 6992TIP3    H242392   4.771   3.057   2.332 -0.4940 -1.1592  1.0637
 6993TIP3   OH242393   0.934   6.442  12.136  0.0576  0.3082 -0.1148
 6993TIP3    H142394   0.863   6.455  12.199 -0.0936 -0.3668 -0.1306
 6993TIP3    H242395   1.011   6.482  12.177 -0.0353 -0.1485  0.5161
 6994TIP3   OH242396   3.382   0.062  13.551  0.0296 -0.2557 -0.2318
 6994TIP3    H142397   3.455   0.124  13.544 -0.1736 -0.1746 -2.0882
 6994TIP3    H242398   3.367   0.053  13.646  0.3931  2.1147  0.0978
 6995TIP3   OH242399   3.078   3.477  12.770  0.2052  0.1343  0.1020
 6995TIP3    H142400   3.165   3.450  12.741 -0.9587 -3.7623 -0.4028
 6995TIP3    H242401   3.084   3.479  12.866  1.2150  1.6156  0.0375
 6996TIP3   OH242402   2.864   3.299   5.541 -0.3594  0.4487  0.8756
 6996TIP3    H142403   2.938   3.269   5.487  0.3225  0.3838  1.8240
 6996TIP3    H242404   2.874   3.394   5.545  0.3796  0.3456  1.9711
 6997TIP3   OH242405   4.290   2.937   1.103  0.0670 -0.2691 -0.1224
 6997TIP3    H142406   4.229   2.917   1.031 -0.2927 -0.1211  0.1399
 6997TIP3    H242407   4.316   2.851   1.136  0.0437 -0.3347 -0.2733
 6998TIP3   OH242408   0.560   0.741   3.646 -0.5203  0.0344  0.3465
 6998TIP3    H142409   0.469   0.713   3.650 -1.2676  2.2756  0.8418
 6998TIP3    H242410   0.571   0.799   3.722  1.3150 -0.1712  0.2937
 6999TIP3   OH242411   0.678   3.080  17.035  0.6416 -0.4280  0.1752
 6999TIP3    H142412   0.638   3.072  16.948 -0.2975 -1.7928  0.7015
 6999TIP3    H242413   0.758   3.026  17.030  1.3683  0.6530 -0.2541
 7000TIP3   OH242414   1.398   1.406   5.860 -0.4289  0.2847  0.4643
 7000TIP3    H142415   1.346   1.346   5.806 -1.6384  0.7122  1.0992
 7000TIP3    H242416   1.419   1.356   5.938  0.0473  0.1402  0.2456
 7001TIP3   OH242417   3.885   5.191   5.169 -0.4454  0.1978 -0.1820
 7001TIP3    H142418   3.902   5.267   5.224 -0.1497  0.0244 -0.0283
 7001TIP3    H242419   3.825   5.137   5.221  0.4637 -0.3494  0.3262
 7002TIP3   OH242420   1.916   2.090   4.642 -0.1643 -0.6161 -0.0895
 7002TIP3    H142421   2.005   2.067   4.671 -0.2903  0.3771  1.1532
 7002TIP3    H242422   1.925   2.178   4.606 -0.9028  0.1227  1.4590
 7003TIP3   OH242423   0.567   3.018   4.600 -0.0441 -0.0444 -0.2108
 7003TIP3    H142424   0.472   3.015   4.608  0.0904 -1.5611  1.2816
 7003TIP3    H242425   0.598   2.944   4.653  2.0203  1.2205  0.4584
 7004TIP3   OH242426   1.900   2.607   4.397 -0.7057 -0.0749 -0.1724
 7004TIP3    H142427   1.881   2.701   4.395  0.4983  0.2226  0.7168
 7004TIP3    H242428   1.868   2.574   4.313  0.0941  1.3957 -1.0981
 7005TIP3   OH242429   0.443   1.226  16.262  0.4522  0.0236  0.1333
 7005TIP3    H142430   0.498   1.277  16.202 -0.4870  1.2613  0.3006
 7005TIP3    H242431   0.378   1.288  16.295  0.8614 -0.6444  2.3669
 7006TIP3   OH242432   1.518   1.956   1.132 -0.1259 -0.3787 -0.3791
 7006TIP3    H142433   1.568   1.993   1.205  1.6702 -2.2717 -0.5585
 7006TIP3    H242434   1.467   2.030   1.099  0.2008  0.9143  1.7806
 7007TIP3   OH242435   2.898   3.604   2.005  0.1213 -0.3574  0.4492
 7007TIP3    H142436   2.925   3.549   2.078 -0.8481 -0.7949  0.4910
 7007TIP3    H242437   2.874   3.543   1.936  0.8193  0.0493 -0.1656
 7008TIP3   OH242438   4.137   6.635  16.392 -0.3948  0.0868  0.2812
 7008TIP3    H142439   4.150   6.730  16.389 -0.1696  0.0751  0.7903
 7008TIP3    H242440   4.114   6.617  16.483  4.9093 -0.9681  1.7898
 7009TIP3   OH242441   5.234   0.139   4.251  0.4353 -0.1046 -0.3185
 7009TIP3    H142442   5.161   0.201   4.257  1.6199  1.1976  1.5990
 7009TIP3    H242443   5.285   0.170   4.176  0.3948  0.5394 -0.0855
 7010TIP3   OH242444   3.492   4.452   2.816  0.1280  0.3321 -0.6211
 7010TIP3    H142445   3.580   4.489   2.811 -0.1583  1.1767  0.2207
 7010TIP3    H242446   3.434   4.526   2.796 -0.4361  0.2141  0.4874
 7011TIP3   OH242447   4.818   3.619  14.995 -0.0850  0.1049  0.0147
 7011TIP3    H142448   4.735   3.600  14.950 -1.3500  0.4298  2.1068
 7011TIP3    H242449   4.796   3.619  15.088  1.4276  3.9983  0.5508
 7012TIP3   OH242450   0.792   4.329  15.142 -0.3216  0.4169 -0.0549
 7012TIP3    H142451   0.887   4.324  15.137 -0.0436  0.1663  3.1179
 7012TIP3    H242452   0.768   4.399  15.082  2.1738  2.1826  0.8455
 7013TIP3   OH242453   2.130   2.067   3.112  0.0772 -0.0730  0.0542
 7013TIP3    H142454   2.048   2.116   3.108  0.5188  0.6825  0.1525
 7013TIP3    H242455   2.105   1.978   3.086 -0.5827  0.3867 -0.9632
 7014TIP3   OH242456   3.096   1.501  15.853 -0.0337 -0.2373  0.2322
 7014TIP3    H142457   3.089   1.498  15.758 -0.1732  0.9606  0.1955
 7014TIP3    H242458   3.143   1.421  15.876 -0.1722 -0.6321 -0.8214
 7015TIP3   OH242459   5.323   3.656   1.144  0.6153  0.3189  0.0376
 7015TIP3    H142460   5.347   3.745   1.116  0.9921  0.1925 -0.0468
 7015TIP3    H242461   5.286   3.668   1.231  0.7051  0.5557  0.0456
 7016TIP3   OH242462   4.951   3.726   4.410 -0.6867  0.3743 -0.4805
 7016TIP3    H142463   5.004   3.649   4.388  1.2016  1.5763 -0.3340
 7016TIP3    H242464   5.002   3.800   4.377 -1.2506  1.7351  1.5297
 7017TIP3   OH242465   0.759   1.800   3.301 -0.1619  0.7206  0.4290
 7017TIP3    H142466   0.787   1.749   3.377 -4.3388 -1.8215  0.5392
 7017TIP3    H242467   0.712   1.874   3.338 -0.4515  0.5920  0.3206
 7018TIP3   OH242468   0.035   3.419   1.527 -0.1550 -0.1891  0.3444
 7018TIP3    H142469   0.000   3.475   1.458 -0.2298 -0.0287  0.5129
 7018TIP3    H242470   0.127   3.444   1.535  0.2899 -1.3364 -0.8334
 7019TIP3   OH242471   2.790   5.193  13.334 -0.2081  0.1758  0.7461
 7019TIP3    H142472   2.743   5.140  13.397  0.4514 -0.9289  0.3324
 7019TIP3    H242473   2.834   5.260  13.387 -3.1271  2.0508  1.0588
 7020TIP3   OH242474   2.290   0.318   5.554  0.3458  0.5173  0.5548
 7020TIP3    H142475   2.244   0.325   5.637  2.4518 -0.3322  1.8888
 7020TIP3    H242476   2.304   0.409   5.526 -0.3351  0.8079  1.1563
 7021TIP3   OH242477   3.755   2.480   1.201 -0.6207 -0.1850 -0.0156
 7021TIP3    H142478   3.745   2.419   1.275 -0.6036  0.8458  0.8519
 7021TIP3    H242479   3.849   2.482   1.184 -0.6096 -0.3065  0.0297
 7022TIP3   OH242480   6.123   1.567   1.833  0.5774  0.1237  0.1993
 7022TIP3    H142481   6.190   1.610   1.887  0.5040  1.2125 -0.5426
 7022TIP3    H242482   6.071   1.516   1.895 -0.2031  2.2098  1.3662
 7023TIP3   OH242483   2.463   0.159   4.443 -0.1877 -0.7895 -0.4279
 7023TIP3    H142484   2.504   0.079   4.409  0.1337  0.6322 -3.7937
 7023TIP3    H242485   2.438   0.208   4.365 -0.6162  2.3281  1.4935
 7024TIP3   OH242486   5.515   6.645   3.324  0.0566 -0.2531 -0.0992
 7024TIP3    H142487   5.480   6.704   3.256 -0.1359 -0.4218 -0.1454
 7024TIP3    H242488   5.457   6.658   3.399 -0.2593 -0.7163 -0.2577
 7025TIP3   OH242489   3.416   0.521   3.220  0.0794 -0.0947  0.3030
 7025TIP3    H142490   3.433   0.597   3.165  1.0333 -1.4705 -1.3864
 7025TIP3    H242491   3.329   0.537   3.257 -0.3050  1.2015 -1.0652
 7026TIP3   OH242492   0.147   1.387  10.434 -0.5237  0.1565  0.3212
 7026TIP3    H142493   0.146   1.318  10.500  1.3644  0.7791  1.0635
 7026TIP3    H242494   0.103   1.348  10.358  2.2961 -2.7271 -0.0677
 7027TIP3   OH242495   0.557   2.385  14.712 -0.2033 -0.0196  0.1924
 7027TIP3    H142496   0.618   2.422  14.648 -1.0380  0.5631 -0.2927
 7027TIP3    H242497   0.567   2.291  14.702 -0.5368  0.0556 -1.0361
 7028TIP3   OH242498   2.101   6.283  12.781 -0.3105  0.5365 -0.7871
 7028TIP3    H142499   2.075   6.295  12.690  0.3646 -0.6797 -1.1604
 7028TIP3    H242500   2.057   6.202  12.808  2.1211 -0.9991 -1.1143
 7029TIP3   OH242501   2.421   3.423  13.727  0.3352 -0.2711 -0.7452
 7029TIP3    H142502   2.447   3.507  13.763 -0.8905  0.2275 -0.9942
 7029TIP3    H242503   2.503   3.386  13.693  0.5173  2.2236 -3.5013
 7030TIP3   OH242504   2.256   1.763   4.485  0.1262  0.9524 -0.8434
 7030TIP3    H142505   2.307   1.806   4.554 -0.6683  1.0421 -0.2960
 7030TIP3    H242506   2.231   1.679   4.522  1.1441  0.2575 -1.6823
 7031TIP3   OH242507   6.325   5.059   2.125 -0.4362  0.2102  0.6691
 7031TIP3    H142508   6.249   5.002   2.139  0.3682 -0.6665  1.5962
 7031TIP3    H242509   6.348   5.090   2.213  0.6656 -0.0664  0.4927
 7032TIP3   OH242510   2.575   0.177  14.981 -0.0035  0.7554  0.0164
 7032TIP3    H142511   2.628   0.155  15.058 -1.3523  1.4201  1.1635
 7032TIP3    H242512   2.527   0.097  14.961 -1.3386  1.2126  1.2741
 7033TIP3   OH242513   6.559   4.762   2.824  0.2823  0.2095 -0.0084
 7033TIP3    H142514   6.492   4.807   2.874 -0.5020 -0.0319 -0.8211
 7033TIP3    H242515   6.579   4.683   2.876 -1.8624 -1.0129 -0.9290
 7034TIP3   OH242516   1.007   5.710  12.773  0.6528  0.4053  0.9322
 7034TIP3    H142517   1.036   5.643  12.711  0.7393 -0.6238  2.0417
 7034TIP3    H242518   1.060   5.695  12.851 -0.5728  0.5991  1.8441
 7035TIP3   OH242519   2.701   5.705  12.420  0.1003 -0.0267  0.0939
 7035TIP3    H142520   2.678   5.797  12.406 -0.4305 -0.2089 -0.2580
 7035TIP3    H242521   2.687   5.664  12.335 -0.7443 -0.6556  0.5197
 7036TIP3   OH242522   5.469   5.922  12.157 -0.4473 -0.1341  0.4709
 7036TIP3    H142523   5.564   5.929  12.150 -0.6017  3.5927  0.2348
 7036TIP3    H242524   5.455   5.858  12.227  2.3307  1.0826  2.3140
 7037TIP3   OH242525   4.269   0.350   4.195 -0.4414 -0.0673 -0.0473
 7037TIP3    H142526   4.323   0.370   4.271 -0.4542  0.1612 -0.0976
 7037TIP3    H242527   4.227   0.433   4.173 -1.5211 -0.4276  0.5439
 7038TIP3   OH242528   0.475   2.300  11.215 -0.1852  0.1136  0.2546
 7038TIP3    H142529   0.415   2.231  11.186  0.7687 -0.2016 -1.1064
 7038TIP3    H242530   0.523   2.324  11.135  1.7120  0.1216  1.3416
 7039TIP3   OH242531   1.375   4.191  12.079 -0.3046  0.1294 -0.3301
 7039TIP3    H142532   1.402   4.100  12.077  0.7757  0.4268 -0.0332
 7039TIP3    H242533   1.376   4.214  12.172  1.3937  0.9851 -0.5297
 7040TIP3   OH242534   6.495   0.009  15.695  0.3207  0.7551 -0.6862
 7040TIP3    H142535   6.520   0.028  15.605 -3.3259  0.6659 -1.8785
 7040TIP3    H242536   6.470   0.094  15.731 -1.8681  0.3540 -1.1182
 7041TIP3   OH242537   0.889   0.190   0.940 -0.6753 -0.3542  0.2551
 7041TIP3    H142538   0.899   0.096   0.923  2.5847  0.1273 -1.0691
 7041TIP3    H242539   0.813   0.195   0.999 -1.5258 -3.6986 -0.3366
 7042TIP3   OH242540   4.649   4.482   4.139 -0.4693  0.3510 -0.1405
 7042TIP3    H142541   4.731   4.440   4.114 -0.1679 -0.5940  2.1756
 7042TIP3    H242542   4.674   4.551   4.200 -1.3384  0.7200 -0.1744
 7043TIP3   OH242543   0.190   1.061  12.967  0.3398 -0.2468 -0.3120
 7043TIP3    H142544   0.167   1.007  12.891  1.3436  1.2016 -1.7157
 7043TIP3    H242545   0.152   1.015  13.041 -0.1726 -2.0449 -1.6133
 7044TIP3   OH242546   3.606   4.218  13.134  0.0362  0.1510  0.7672
 7044TIP3    H142547   3.544   4.161  13.180  1.4249 -0.8349  1.5040
 7044TIP3    H242548   3.662   4.252  13.204  0.1029  1.3193  0.1576
 7045TIP3   OH242549   0.732   6.529  13.078 -0.0519 -0.3399 -0.2397
 7045TIP3    H142550   0.803   6.590  13.058 -0.9967  0.8072 -0.1772
 7045TIP3    H242551   0.765   6.477  13.152 -0.3010  2.1058  1.7209
 7046TIP3   OH242552   1.671   1.595  14.747  0.1067 -0.0829  0.1635
 7046TIP3    H142553   1.726   1.652  14.694 -1.5795  1.2774 -0.1905
 7046TIP3    H242554   1.670   1.512  14.699  0.6478  0.3386 -0.5990
 7047TIP3   OH242555   5.375   6.167  12.074 -0.2199  0.2622  0.0199
 7047TIP3    H142556   5.384   6.072  12.086 -0.8365  0.3600  1.5074
 7047TIP3    H242557   5.396   6.204  12.160 -1.7793  1.3406 -0.0255
 7048TIP3   OH242558   0.293   4.523  16.768  0.2556  0.4803 -0.2270
 7048TIP3    H142559   0.250   4.570  16.695  2.3328  0.8022 -1.3193
 7048TIP3    H242560   0.370   4.482  16.728  0.4516 -0.8896  1.4527
 7049TIP3   OH242561   3.676   4.254   4.362 -0.0563  0.2708  0.4424
 7049TIP3    H142562   3.669   4.170   4.407  0.2769  1.0397  2.0042
 7049TIP3    H242563   3.586   4.286   4.356 -0.0690  0.3851  1.0731
 7050TIP3   OH242564   3.815   6.637   0.255  0.6037 -0.7972  0.0201
 7050TIP3    H142565   3.858   6.571   0.201 -1.8315 -1.3691 -1.4028
 7050TIP3    H242566   3.878   6.658   0.324  2.0793 -3.4135 -0.4223
 7051TIP3   OH242567   4.790   3.247   0.266 -0.3793  0.1723  0.0473
 7051TIP3    H142568   4.812   3.181   0.332 -1.1849 -0.0230  0.1220
 7051TIP3    H242569   4.818   3.330   0.305  0.6167 -0.1110 -0.0376
 7052TIP3   OH242570   2.581   3.736  17.084  0.4386 -0.2524  0.2014
 7052TIP3    H142571   2.507   3.778  17.039  0.3706 -0.7538 -0.1590
 7052TIP3    H242572   2.566   3.754  17.177 -0.4885 -0.8910  0.1928
 7053TIP3   OH242573   1.229   2.354  11.388 -0.1975 -0.1836 -0.5532
 7053TIP3    H142574   1.173   2.428  11.409 -2.0222 -1.8565  0.7910
 7053TIP3    H242575   1.191   2.316  11.309 -1.6519 -1.8842  0.8881
 7054TIP3   OH242576   5.363   3.494  14.313  0.2084  0.0262  0.1563
 7054TIP3    H142577   5.327   3.435  14.379  0.3714 -0.3430 -0.0847
 7054TIP3    H242578   5.453   3.511  14.343  1.0742 -1.9565 -1.1446
 7055TIP3   OH242579   3.336   3.579   0.213 -0.2981  0.3173 -0.2135
 7055TIP3    H142580   3.398   3.514   0.181  0.7054 -0.6428  3.2803
 7055TIP3    H242581   3.370   3.663   0.182  1.2218 -0.4206 -0.6081
 7056TIP3   OH242582   3.999   4.854   4.426  0.1464 -0.5825 -0.1072
 7056TIP3    H142583   4.058   4.926   4.449 -1.6432  0.3169  2.1691
 7056TIP3    H242584   3.919   4.897   4.397 -0.5606 -1.6770  0.1468
 7057TIP3   OH242585   2.438   6.633   3.349 -0.1830 -0.1753 -0.0538
 7057TIP3    H142586   2.384   6.694   3.298 -0.7777 -0.4625  0.2136
 7057TIP3    H242587   2.477   6.687   3.418  1.2365  0.3631 -1.2485
 7058TIP3   OH242588   1.123   0.450  14.525 -0.2479 -0.5003 -0.1533
 7058TIP3    H142589   1.113   0.540  14.554  0.6289 -0.8289  1.2714
 7058TIP3    H242590   1.078   0.398  14.590  2.1687 -1.2905  1.0149
 7059TIP3   OH242591   4.035   4.626   4.260  0.1828  0.0331 -0.2173
 7059TIP3    H142592   4.038   4.709   4.307  0.8109 -0.1442  0.0688
 7059TIP3    H242593   4.018   4.650   4.169 -0.5072  0.4166  0.0065
 7060TIP3   OH242594   4.733   1.484   3.109  0.3320  0.1042 -0.2401
 7060TIP3    H142595   4.680   1.542   3.055  0.3900  1.0696  0.7052
 7060TIP3    H242596   4.737   1.401   3.060 -0.5157  0.6020 -1.1693
 7061TIP3   OH242597   4.111   2.799  11.645 -0.0668  0.3060 -0.3624
 7061TIP3    H142598   4.120   2.758  11.731  0.1211  0.1707 -0.4443
 7061TIP3    H242599   4.064   2.734  11.593 -2.4092  1.3518  0.3041
 7062TIP3   OH242600   0.112   5.000   2.276  0.4282  0.2790  0.1002
 7062TIP3    H142601   0.105   5.095   2.267 -1.4996  0.0315 -1.4980
 7062TIP3    H242602   0.203   4.986   2.304  0.3966  2.6404  1.7162
 7063TIP3   OH242603   4.665   2.213  13.943 -0.0635 -0.4809  0.3908
 7063TIP3    H142604   4.702   2.274  14.007 -0.1476  1.0152 -0.9400
 7063TIP3    H242605   4.711   2.232  13.862 -1.0516 -1.2674 -0.3741
 7064TIP3   OH242606   5.139   6.686   1.909 -0.3917 -0.1313 -0.0304
 7064TIP3    H142607   5.118   6.606   1.959  1.6470 -0.5868  0.2030
 7064TIP3    H242608   5.165   6.654   1.823  1.6746  0.1027  0.4500
 7065TIP3   OH242609   1.251   2.715  13.830  0.5696  0.3322  0.0939
 7065TIP3    H142610   1.244   2.805  13.797  1.5403  0.4793  0.2618
 7065TIP3    H242611   1.171   2.702  13.881  2.8291  3.2191  5.1268
 7066TIP3   OH242612   6.780   2.388   3.903 -0.2862  0.6482  0.1122
 7066TIP3    H142613   6.727   2.333   3.845  0.4334  0.0813 -0.0318
 7066TIP3    H242614   6.833   2.441   3.844  1.3686 -0.8270  0.2018
 7067TIP3   OH242615   5.947   0.656  14.898 -0.5361  0.5127  0.4806
 7067TIP3    H142616   5.905   0.572  14.916 -0.1589  0.2315  0.0834
 7067TIP3    H242617   6.038   0.644  14.925 -0.4937  0.8149  0.4803
 7068TIP3   OH242618   2.548   5.111  11.197  0.7899 -0.0947 -0.0148
 7068TIP3    H142619   2.571   5.018  11.197 -0.4974 -0.4349  0.1561
 7068TIP3    H242620   2.463   5.115  11.152 -0.2001  0.7040  1.7841
 7069TIP3   OH242621   3.394   2.574  15.875  0.1092 -0.6360 -0.2580
 7069TIP3    H142622   3.320   2.587  15.816 -1.0002 -0.9615  1.0064
 7069TIP3    H242623   3.372   2.626  15.952  2.0645  0.7127 -0.5392
 7070TIP3   OH242624   2.634   1.691  14.311  0.8977  0.3591 -0.0048
 7070TIP3    H142625   2.616   1.619  14.252  0.9852  1.9908 -2.1515
 7070TIP3    H242626   2.723   1.720  14.289  1.4478  0.2267  1.8443
 7071TIP3   OH242627   5.259   0.699  13.662  0.5535 -0.1734  0.1324
 7071TIP3    H142628   5.186   0.638  13.678  0.7806 -1.1109 -2.0607
 7071TIP3    H242629   5.330   0.665  13.717  0.8153 -2.2426 -1.3514
 7072TIP3   OH242630   0.406   4.315   4.202  0.5849  0.0873 -0.2973
 7072TIP3    H142631   0.365   4.291   4.285  0.0021 -1.4050 -0.9740
 7072TIP3    H242632   0.343   4.287   4.136  1.9276 -0.6271 -1.3202
 7073TIP3   OH242633   2.109   6.397   5.757  0.0873  0.0984  0.2784
 7073TIP3    H142634   2.201   6.422   5.762 -0.0293  0.6195 -0.1028
 7073TIP3    H242635   2.109   6.302   5.767  0.8472 -0.1514 -1.7120
 7074TIP3   OH242636   2.149   3.246   6.628  0.5324 -0.1570 -0.4559
 7074TIP3    H142637   2.239   3.274   6.648  0.2543  0.8576 -0.5700
 7074TIP3    H242638   2.100   3.265   6.708  0.1782  0.4487 -0.8059
 7075TIP3   OH242639   4.032   2.126  13.951 -0.3213 -0.4742  0.0949
 7075TIP3    H142640   4.091   2.172  14.012 -1.5985  2.3787 -0.6380
 7075TIP3    H242641   4.058   2.158  13.865 -3.0819  1.2336 -0.2289
 7076TIP3   OH242642   1.037   4.660  13.098  0.0817  0.1916  0.1756
 7076TIP3    H142643   1.080   4.592  13.150 -1.3157  0.0353  1.1910
 7076TIP3    H242644   0.956   4.680  13.146 -0.3536  1.3870 -0.9764
 7077TIP3   OH242645   1.989   2.038  13.574 -0.2610 -0.1548 -0.2377
 7077TIP3    H142646   2.070   2.070  13.535 -0.2683 -1.9360 -1.8210
 7077TIP3    H242647   1.970   1.957  13.527 -0.6452 -2.1114  3.0105
 7078TIP3   OH242648   5.645   1.543   1.997 -0.0872  0.0007  0.4969
 7078TIP3    H142649   5.678   1.617   1.947  1.0418 -0.9202 -0.1850
 7078TIP3    H242650   5.699   1.541   2.076 -0.1870 -0.0208  0.5645
 7079TIP3   OH242651   2.601   2.460   1.844  0.2347  0.3482  0.2715
 7079TIP3    H142652   2.652   2.536   1.873  1.4753 -0.1474 -0.5146
 7079TIP3    H242653   2.666   2.390   1.835 -0.3440  0.0012 -1.9023
 7080TIP3   OH242654   3.509   4.448   1.555 -0.2868  0.7234  1.0976
 7080TIP3    H142655   3.578   4.444   1.622 -0.6692  1.4187  1.5449
 7080TIP3    H242656   3.464   4.364   1.562  0.6129  0.1904  0.6870
 7081TIP3   OH242657   5.153   1.791  13.514  0.0676  0.5823  0.5405
 7081TIP3    H142658   5.198   1.736  13.577  1.2457 -0.8795 -1.4722
 7081TIP3    H242659   5.077   1.740  13.487  0.1031  0.7837  0.0533
 7082TIP3   OH242660   2.574   0.014   1.755  0.0515  0.1484 -0.5189
 7082TIP3    H142661   2.487   0.053   1.763 -0.3594 -1.0153  1.0382
 7082TIP3    H242662   2.629   0.066   1.814 -0.1269 -0.5995  0.3083
 7083TIP3   OH242663   6.760   2.222  15.204 -0.3392  0.2585 -0.2088
 7083TIP3    H142664   6.698   2.294  15.218 -2.3142 -1.5272  0.8284
 7083TIP3    H242665   6.756   2.204  15.111 -1.9391 -0.2564 -0.0632
 7084TIP3   OH242666   2.980   5.310   3.618  0.1395 -0.3030 -0.7117
 7084TIP3    H142667   3.002   5.236   3.674 -1.9388  1.7839  3.3575
 7084TIP3    H242668   2.900   5.283   3.574 -0.1041 -0.8465  0.0378
 7085TIP3   OH242669   0.878   2.730  14.826 -0.2584 -0.3264  0.1023
 7085TIP3    H142670   0.855   2.667  14.757 -0.6652 -2.6120  2.1922
 7085TIP3    H242671   0.974   2.733  14.826 -0.2629  0.2019 -0.9484
 7086TIP3   OH242672   5.226   2.761  12.941  0.0801  0.1305  0.1976
 7086TIP3    H142673   5.136   2.742  12.917  0.5530 -2.4364  0.1359
 7086TIP3    H242674   5.276   2.685  12.911  1.8811  0.3351  2.3444
 7087TIP3   OH242675   1.141   0.810   1.802  0.0678  0.3316  0.1938
 7087TIP3    H142676   1.156   0.879   1.867  2.3982  0.2398 -0.1626
 7087TIP3    H242677   1.082   0.850   1.738  1.4122  2.0709 -0.0510
 7088TIP3   OH242678   4.334   0.933  16.219 -0.1136  0.5283 -0.6837
 7088TIP3    H142679   4.387   0.862  16.181  0.7237 -0.4458  2.0443
 7088TIP3    H242680   4.397   1.002  16.239 -0.1213  0.1632  0.7579
 7089TIP3   OH242681   0.649   3.984   5.901 -0.2467 -0.1052  0.0394
 7089TIP3    H142682   0.624   3.972   5.810  2.2410 -1.9300 -0.5015
 7089TIP3    H242683   0.655   4.079   5.912 -0.9926  0.1584 -1.5503
 7090TIP3   OH242684   3.108   1.547   0.921  0.1474 -0.0138 -0.2267
 7090TIP3    H142685   3.198   1.524   0.900  0.4382  0.1644  0.7566
 7090TIP3    H242686   3.090   1.626   0.870  1.0940  0.8604  0.7417
 7091TIP3   OH242687   1.596   2.846   0.411  0.1465  0.1672  0.6059
 7091TIP3    H142688   1.581   2.940   0.411  2.6721  0.6343  1.2813
 7091TIP3    H242689   1.638   2.828   0.327 -1.8571 -0.7021 -0.2759
 7092TIP3   OH242690   0.278   0.245   3.794  0.1823 -1.1927 -0.0804
 7092TIP3    H142691   0.254   0.320   3.739  1.0736  0.2752  1.4190
 7092TIP3    H242692   0.195   0.205   3.818 -0.3013 -0.7697 -1.0008
 7093TIP3   OH242693   4.306   3.581   4.755 -0.4385 -0.6404 -0.1691
 7093TIP3    H142694   4.354   3.664   4.747  0.8093 -0.7502  3.7294
 7093TIP3    H242695   4.374   3.514   4.757 -1.1386 -1.3581  0.3073
 7094TIP3   OH242696   5.109   3.297  12.209 -0.6678  0.9148 -0.9867
 7094TIP3    H142697   5.169   3.340  12.148  0.7801  0.6350  0.1907
 7094TIP3    H242698   5.128   3.337  12.294 -1.3210 -0.0120 -0.3815
 7095TIP3   OH242699   2.348   3.598   5.291  0.2250 -0.1766  0.4217
 7095TIP3    H142700   2.410   3.559   5.229  1.5325 -1.2126  2.2936
 7095TIP3    H242701   2.339   3.534   5.361 -1.2225  0.9341  1.3186
 7096TIP3   OH242702   5.141   5.653   3.579  0.0441  0.0375 -0.2041
 7096TIP3    H142703   5.191   5.666   3.499 -0.4580  0.0186 -0.5222
 7096TIP3    H242704   5.059   5.615   3.550 -0.2834  0.3625  0.2871
 7097TIP3   OH242705   6.769   2.097  12.098  0.2405 -0.0094  0.8791
 7097TIP3    H142706   6.758   2.155  12.022  0.5284  0.2081  1.0038
 7097TIP3    H242707   6.848   2.128  12.141 -0.3639  0.3844  1.7403
 7098TIP3   OH242708   4.586   2.698  14.052  0.3741  0.0721 -0.8181
 7098TIP3    H142709   4.503   2.684  14.007  0.4253 -0.6615 -0.7012
 7098TIP3    H242710   4.563   2.692  14.145  0.4266  0.6361 -0.7711
 7099TIP3   OH242711   6.724   0.939  13.816  0.1049  0.0702  0.1971
 7099TIP3    H142712   6.784   0.880  13.770  0.0227  0.9701 -1.1218
 7099TIP3    H242713   6.693   0.999  13.748 -0.4517  1.1134  1.3371
 7100TIP3   OH242714   4.303   6.297  12.126  0.9934 -0.1130 -0.2184
 7100TIP3    H142715   4.210   6.303  12.148  0.8062 -1.1475 -0.6937
 7100TIP3    H242716   4.346   6.354  12.190  0.1407 -0.4976  0.7322
 7101TIP3   OH242717   0.625   1.966  10.958 -0.5346  0.2503 -0.2433
 7101TIP3    H142718   0.681   2.008  10.893 -0.1223  0.9811  0.5555
 7101TIP3    H242719   0.635   1.872  10.942 -1.2909  0.4203 -1.9111
 7102TIP3   OH242720   5.389   5.284   3.199  0.1543  0.2367 -0.4052
 7102TIP3    H142721   5.298   5.264   3.221 -0.1811 -0.0356 -1.9609
 7102TIP3    H242722   5.383   5.345   3.125  1.2205  2.1439  0.9626
 7103TIP3   OH242723   1.946   6.350   4.434 -0.1808 -0.1470 -0.1199
 7103TIP3    H142724   2.031   6.319   4.465 -0.7468 -0.8461  0.7897
 7103TIP3    H242725   1.967   6.424   4.378  0.9081  1.9538  2.7878
 7104TIP3   OH242726   1.288   6.425  12.143 -0.1845  0.0221  0.0266
 7104TIP3    H142727   1.377   6.458  12.129  0.1873 -0.7528  0.5294
 7104TIP3    H242728   1.280   6.351  12.083  0.2372 -1.1951  1.4302
 7105TIP3   OH242729   2.059   2.287  15.362  0.2251  0.4137 -0.3403
 7105TIP3    H142730   2.065   2.229  15.438  1.2740 -0.0598 -0.7632
 7105TIP3    H242731   1.992   2.247  15.307  2.2530 -1.5918 -1.5543
 7106TIP3   OH242732   5.095   0.405  11.784 -0.0090 -0.3444 -0.2389
 7106TIP3    H142733   5.021   0.344  11.786 -0.4420  0.1015 -1.4988
 7106TIP3    H242734   5.171   0.351  11.805 -0.7446 -0.6753  1.7823
 7107TIP3   OH242735   0.849   6.629   3.643  0.0863  0.1219  0.8469
 7107TIP3    H142736   0.794   6.672   3.578  2.9151  1.1244 -1.0640
 7107TIP3    H242737   0.862   6.541   3.608  1.1823  0.4935  0.2848
 7108TIP3   OH242738   3.166   6.747  12.056  0.2082  0.1984  0.4648
 7108TIP3    H142739   3.139   6.834  12.086 -0.0867 -1.1416  4.6429
 7108TIP3    H242740   3.092   6.715  12.004 -0.5365  1.6345  0.5979
 7109TIP3   OH242741   5.297   3.288  14.858 -0.1320 -0.2611 -0.6098
 7109TIP3    H142742   5.336   3.205  14.828  0.7361 -1.6632  3.7069
 7109TIP3    H242743   5.372   3.338  14.892 -1.1746  0.1756  1.1614
 7110TIP3   OH242744   0.346   5.794  14.521  0.4127  0.5732 -0.0094
 7110TIP3    H142745   0.368   5.878  14.563  0.5276 -0.6213  2.4741
 7110TIP3    H242746   0.423   5.773  14.469  0.3862  1.9868 -0.6693
 7111TIP3   OH242747   2.360   6.745   3.929  0.2430  0.1941 -0.3228
 7111TIP3    H142748   2.380   6.677   3.993  0.5575  1.2146  0.7122
 7111TIP3    H242749   2.265   6.745   3.922  0.0187  1.4172  1.7596
 7112TIP3   OH242750   6.302   3.414   5.082 -0.1237  0.1548  0.1867
 7112TIP3    H142751   6.388   3.373   5.092 -0.2669 -0.0021  0.7958
 7112TIP3    H242752   6.240   3.341   5.085 -0.3082  0.3126  0.2321
 7113TIP3   OH242753   3.267   6.464   4.373  0.7033  0.0690 -0.0292
 7113TIP3    H142754   3.250   6.437   4.283  1.9850  0.1127 -0.2964
 7113TIP3    H242755   3.215   6.404   4.426 -1.0893  0.8407 -0.8142
 7114TIP3   OH242756   2.403   2.090   0.454  0.4188  0.0499  0.5255
 7114TIP3    H142757   2.318   2.123   0.425  0.3140 -0.2938  0.4315
 7114TIP3    H242758   2.384   2.006   0.497  0.6764  0.1162  0.7758
 7115TIP3   OH242759   2.784   5.699   0.027  0.1659 -0.0890  0.8421
 7115TIP3    H142760   2.733   5.623   0.054  1.1108 -0.4938  1.5766
 7115TIP3    H242761   2.872   5.663   0.011  0.5037  0.7653  0.7427
 7116TIP3   OH242762   6.190   0.708  14.115  0.0815 -0.0666  0.3166
 7116TIP3    H142763   6.237   0.677  14.192 -0.8814  1.2433  1.4884
 7116TIP3    H242764   6.197   0.804  14.119  0.6866  0.0274 -1.6885
 7117TIP3   OH242765   4.264   2.876  17.114  0.2472 -0.1738  0.0706
 7117TIP3    H142766   4.310   2.906  17.192  0.9854 -2.5341  0.6131
 7117TIP3    H242767   4.326   2.889  17.043 -0.1283  1.2189 -0.0361
 7118TIP3   OH242768   4.092   0.945  13.446 -0.3533  0.4024 -0.0778
 7118TIP3    H142769   4.122   1.036  13.444  1.6886 -0.2231 -0.6562
 7118TIP3    H242770   4.172   0.893  13.435 -1.7152 -1.4271 -2.2444
 7119TIP3   OH242771   1.132   4.510   4.317  0.6724  0.0133  0.5382
 7119TIP3    H142772   1.188   4.516   4.394  0.6897  1.9368  0.4349
 7119TIP3    H242773   1.101   4.419   4.316 -1.1128  0.3915  4.0859
 7120TIP3   OH242774   0.899   6.409   1.209  0.4117 -0.5071 -0.5796
 7120TIP3    H142775   0.879   6.494   1.248  0.3245 -0.7803 -0.0296
 7120TIP3    H242776   0.990   6.417   1.180  0.2085 -0.0113 -1.1138
 7121TIP3   OH242777   5.657   2.263   4.742 -0.2964 -0.3029  0.0383
 7121TIP3    H142778   5.563   2.251   4.747 -0.5965  0.2109 -2.8877
 7121TIP3    H242779   5.670   2.357   4.752 -0.2503 -0.2038 -0.8559
 7122TIP3   OH242780   6.106   5.422   1.555 -0.2192 -0.0543 -1.3898
 7122TIP3    H142781   6.083   5.460   1.470 -1.4557  0.5220 -0.8220
 7122TIP3    H242782   6.022   5.399   1.594  0.4240 -2.3372 -1.2124
 7123TIP3   OH242783   2.277   6.528   1.139  1.0833 -0.3580 -0.2353
 7123TIP3    H142784   2.324   6.592   1.085  1.7806 -2.1089 -1.8199
 7123TIP3    H242785   2.193   6.517   1.095  0.7281 -0.1186  0.3701
 7124TIP3   OH242786   5.057   2.566  11.389  0.2184 -0.1490  0.2125
 7124TIP3    H142787   5.149   2.579  11.366  0.0154  1.3632  0.1258
 7124TIP3    H242788   5.048   2.472  11.401  1.2368 -0.6079 -2.0759
 7125TIP3   OH242789   1.481   4.556  14.259 -0.0189  0.5284 -0.3358
 7125TIP3    H142790   1.497   4.462  14.246 -2.4217 -0.2289  1.4377
 7125TIP3    H242791   1.567   4.591  14.281  0.7544 -1.5474  0.2812
 7126TIP3   OH242792   3.218   3.472   3.385 -0.2045 -0.7610 -0.3114
 7126TIP3    H142793   3.302   3.477   3.431  0.4727  3.0418 -1.5769
 7126TIP3    H242794   3.238   3.428   3.302  0.5261 -0.0574 -0.5167
 7127TIP3   OH242795   3.344   4.491  14.245 -0.0062  0.0275 -0.3357
 7127TIP3    H142796   3.362   4.481  14.152  0.1059  0.1035 -0.3224
 7127TIP3    H242797   3.300   4.576  14.252  1.1339  0.6254 -0.1630
 7128TIP3   OH242798   2.382   1.133  17.171 -0.0929 -0.6216 -0.2233
 7128TIP3    H142799   2.288   1.132  17.191 -0.3883  0.3847 -1.4894
 7128TIP3    H242800   2.416   1.209  17.218 -0.4087  0.5292 -1.7992
 7129TIP3   OH242801   2.530   0.557   5.566 -0.3889  0.0608  0.1253
 7129TIP3    H142802   2.440   0.590   5.560 -0.8599 -0.9244  1.3231
 7129TIP3    H242803   2.575   0.597   5.492 -1.6512  1.0825 -0.1291
 7130TIP3   OH242804   1.533   1.695   0.514 -0.1767 -0.0070  0.4230
 7130TIP3    H142805   1.589   1.654   0.448  1.9496 -0.0297  2.1099
 7130TIP3    H242806   1.500   1.774   0.472 -0.6772 -1.1171 -1.3744
 7131TIP3   OH242807   3.120   4.405   2.958 -0.1834 -0.2080  0.3347
 7131TIP3    H142808   3.040   4.382   3.007 -0.4909  0.1865  0.0226
 7131TIP3    H242809   3.152   4.484   3.002 -1.5046  1.2821 -1.2279
 7132TIP3   OH242810   3.178   1.583   3.514  0.0424 -0.1489 -0.1076
 7132TIP3    H142811   3.129   1.649   3.563 -0.4046 -0.2469 -0.4181
 7132TIP3    H242812   3.111   1.526   3.476  0.4400 -1.0512  0.5221
 7133TIP3   OH242813   6.723   2.958   5.175  0.1152 -0.5888 -0.0144
 7133TIP3    H142814   6.678   2.956   5.259 -1.0184  0.0600 -0.5864
 7133TIP3    H242815   6.696   2.878   5.131 -0.2316 -0.3553 -0.2290
 7134TIP3   OH242816   4.810   5.131  14.664  0.0073  0.2457  0.1603
 7134TIP3    H142817   4.887   5.079  14.640 -0.7580 -0.3980 -1.0168
 7134TIP3    H242818   4.837   5.222  14.647  0.0824 -0.0697 -1.5918
 7135TIP3   OH242819   2.143   6.705   2.819 -0.0507  0.4784 -0.1372
 7135TIP3    H142820   2.052   6.731   2.809 -0.1033  0.2162 -0.3488
 7135TIP3    H242821   2.143   6.610   2.808  0.3837  0.5783 -1.1271
 7136TIP3   OH242822   2.146   5.107   5.995  0.0190 -0.6035  0.0647
 7136TIP3    H142823   2.062   5.078   6.031  0.7158  0.8007  3.1341
 7136TIP3    H242824   2.191   5.026   5.970 -1.0089 -1.6062  1.3129
 7137TIP3   OH242825   3.777   3.596  16.347 -0.5398 -0.0073  0.4013
 7137TIP3    H142826   3.714   3.612  16.417  0.5486  2.3223  0.9586
 7137TIP3    H242827   3.860   3.578  16.392  0.0249  0.8351 -0.2647
 7138TIP3   OH242828   3.193   0.792   5.924 -0.1669 -0.0150  0.3354
 7138TIP3    H142829   3.101   0.810   5.945 -0.6565 -0.4154 -1.3469
 7138TIP3    H242830   3.194   0.776   5.830  1.6435 -0.0216  0.3188
 7139TIP3   OH242831   4.737   4.485  14.399 -0.1013  0.4681  0.6767
 7139TIP3    H142832   4.782   4.407  14.366 -2.5059 -0.9920  0.6322
 7139TIP3    H242833   4.754   4.553  14.333  0.5669 -0.5004 -0.1815
 7140TIP3   OH242834   1.969   4.407   3.626  0.3877 -0.0116 -0.5049
 7140TIP3    H142835   2.030   4.334   3.615  0.6493 -0.1294  1.3794
 7140TIP3    H242836   2.018   4.471   3.679 -1.1762 -0.2354  1.3018
 7141TIP3   OH242837   5.208   4.571  11.098  0.1869  0.5560  0.2276
 7141TIP3    H142838   5.167   4.656  11.110 -1.4687  0.1391 -1.8450
 7141TIP3    H242839   5.148   4.523  11.041  1.9543 -1.3380 -0.1751
 7142TIP3   OH242840   6.150   5.806  11.665 -0.5247 -0.1542  0.0082
 7142TIP3    H142841   6.147   5.899  11.687  0.0458  0.2981 -1.6806
 7142TIP3    H242842   6.075   5.768  11.712  0.9892  0.5269  3.2115
 7143TIP3   OH242843   1.174   6.572  13.160  0.1508  0.1915 -0.2567
 7143TIP3    H142844   1.170   6.667  13.152 -1.5146  0.1895  0.1842
 7143TIP3    H242845   1.119   6.540  13.088 -1.5193 -0.3134  1.1749
 7144TIP3   OH242846   1.587   4.867   2.620 -0.2048  0.3786 -0.7045
 7144TIP3    H142847   1.613   4.839   2.532 -1.3572 -1.1231 -0.6205
 7144TIP3    H242848   1.599   4.789   2.674  2.4506  1.8171  0.9741
 7145TIP3   OH242849   3.014   4.741   0.116  0.5653  0.2059  1.0907
 7145TIP3    H142850   2.923   4.764   0.098  0.6278 -0.0418  0.4421
 7145TIP3    H242851   3.046   4.705   0.033  1.1133 -0.1461  1.4550
 7146TIP3   OH242852   0.955   5.196   4.207 -0.1093 -0.1955 -0.4559
 7146TIP3    H142853   0.987   5.116   4.249  0.1004 -0.1788 -0.5817
 7146TIP3    H242854   1.014   5.265   4.239 -1.0093  0.1191  0.5892
 7147TIP3   OH242855   0.821   0.708  12.150  0.1301  0.0867 -0.0208
 7147TIP3    H142856   0.897   0.767  12.159  0.5069 -0.2884 -0.6683
 7147TIP3    H242857   0.783   0.731  12.065 -1.4522  1.3639  0.9637
 7148TIP3   OH242858   0.582   3.468  12.272  0.4806  0.1822 -0.1621
 7148TIP3    H142859   0.581   3.454  12.177  0.0404  2.4177 -0.5468
 7148TIP3    H242860   0.648   3.537  12.284 -0.8666  1.3259  0.9033
 7149TIP3   OH242861   5.341   2.465   2.524 -0.0756 -0.3249  0.2770
 7149TIP3    H142862   5.424   2.500   2.492 -0.8300  1.2491 -0.0641
 7149TIP3    H242863   5.308   2.411   2.453  0.7127 -1.1009  0.4804
 7150TIP3   OH242864   5.405   5.376  15.949 -1.0748 -0.1653  0.0798
 7150TIP3    H142865   5.370   5.427  16.022  0.5913  1.6322 -0.2815
 7150TIP3    H242866   5.453   5.305  15.991 -0.9841  0.2671  0.7308
 7151TIP3   OH242867   3.101   2.390   0.080  0.3704  0.3501 -0.3858
 7151TIP3    H142868   3.008   2.409   0.096 -0.1260 -2.3269  0.5871
 7151TIP3    H242869   3.141   2.390   0.167  1.5913  2.4846 -0.8746
 7152TIP3   OH242870   5.040   2.390   0.921 -0.0468  0.1597 -0.1717
 7152TIP3    H142871   5.095   2.343   0.984 -0.3632  0.5345  0.3933
 7152TIP3    H242872   5.102   2.425   0.856  0.6502  2.3458  1.5659
 7153TIP3   OH242873   0.896   5.993  13.460  0.8055 -0.6706  0.6286
 7153TIP3    H142874   0.898   6.061  13.527 -0.5354  1.7332 -1.5976
 7153TIP3    H242875   0.803   5.972  13.450  0.9762 -0.9617 -0.4665
 7154TIP3   OH242876   3.105   4.681  12.937  0.1522 -0.3318 -0.1757
 7154TIP3    H142877   3.040   4.737  12.894  0.8128 -0.3001 -1.1549
 7154TIP3    H242878   3.075   4.592  12.920 -0.2652 -0.3106  0.3930
 7155TIP3   OH242879   6.773   6.180   3.681 -0.0986 -0.0954  0.0655
 7155TIP3    H142880   6.832   6.156   3.752  0.8429 -0.2713 -0.7603
 7155TIP3    H242881   6.687   6.184   3.722  0.5450  0.6524  1.3930
 7156TIP3   OH242882   1.448   3.665  11.403  0.1263 -0.3817 -0.2193
 7156TIP3    H142883   1.369   3.718  11.398 -0.1762 -0.7622  0.4081
 7156TIP3    H242884   1.501   3.708  11.471  0.5167 -0.0567 -0.7235
 7157TIP3   OH242885   0.241   4.811   4.951 -0.1399  0.6047  0.4565
 7157TIP3    H142886   0.176   4.857   4.898  0.2098  0.5799  0.0013
 7157TIP3    H242887   0.199   4.728   4.974 -1.4821  1.8276  2.7742
 7158TIP3   OH242888   2.007   3.751  14.390  0.0043 -0.2024 -0.0756
 7158TIP3    H142889   2.071   3.815  14.423 -1.2705  1.2764 -0.3791
 7158TIP3    H242890   2.027   3.671  14.438  0.8440  0.7674  1.2681
 7159TIP3   OH242891   0.432   1.787  12.424 -0.1657  0.5602 -0.5037
 7159TIP3    H142892   0.354   1.732  12.432  0.7240 -0.4669  2.0922
 7159TIP3    H242893   0.431   1.843  12.502  1.2623  1.0925 -0.8293
 7160TIP3   OH242894   5.748   4.221   0.665  0.1118 -0.2404 -0.0863
 7160TIP3    H142895   5.704   4.287   0.717  0.4106 -0.7271  0.8163
 7160TIP3    H242896   5.683   4.152   0.652 -0.3359  0.4084 -1.3987
 7161TIP3   OH242897   5.530   1.466   6.104  0.3299  0.0494  0.1346
 7161TIP3    H142898   5.480   1.400   6.153 -1.2540  0.9121 -0.2793
 7161TIP3    H242899   5.599   1.415   6.061 -0.1743 -1.1813  0.7184
 7162TIP3   OH242900   4.205   0.216  12.152  0.0852 -0.0422 -0.7496
 7162TIP3    H142901   4.287   0.187  12.112  0.2373  0.2728 -0.6732
 7162TIP3    H242902   4.156   0.135  12.169  1.0562 -0.3572  0.6682
 7163TIP3   OH242903   2.014   6.314   1.751 -0.0905  0.2732 -0.3090
 7163TIP3    H142904   2.091   6.291   1.804 -0.2913 -1.2080 -0.6296
 7163TIP3    H242905   1.980   6.393   1.793  0.1739 -0.4420  1.3417
 7164TIP3   OH242906   4.896   0.910   6.110  0.2117  0.0110 -0.0366
 7164TIP3    H142907   4.931   0.937   6.196  1.7262 -1.5276 -0.1298
 7164TIP3    H242908   4.801   0.907   6.124  0.2637  1.5738  1.0364
 7165TIP3   OH242909   6.518   5.972  11.815 -0.2534 -0.1366  0.4264
 7165TIP3    H142910   6.451   6.028  11.775 -1.0231 -0.7032  0.8917
 7165TIP3    H242911   6.588   5.968  11.750 -0.9861 -0.1157 -0.3818
 7166TIP3   OH242912   3.984   3.280   2.523 -0.4488 -0.5839  0.3297
 7166TIP3    H142913   3.947   3.206   2.475  0.3053 -0.4044 -0.5633
 7166TIP3    H242914   3.936   3.356   2.490  0.8837 -0.3013 -1.1100
 7167TIP3   OH242915   5.168   3.589   3.601 -0.2212 -0.4013  0.0428
 7167TIP3    H142916   5.169   3.494   3.607 -0.4537 -0.4651 -0.7928
 7167TIP3    H242917   5.082   3.610   3.566  0.5659 -0.0327 -1.7772
 7168TIP3   OH242918   6.095   0.851  12.953  0.3922  0.4067 -0.5108
 7168TIP3    H142919   6.002   0.875  12.944  0.5592  1.8404  1.0958
 7168TIP3    H242920   6.122   0.891  13.035  2.3986 -0.1901 -0.8340
 7169TIP3   OH242921   5.700   4.408  11.063 -0.0369 -0.6520 -0.4800
 7169TIP3    H142922   5.657   4.363  10.991 -0.1566  0.8768 -1.3894
 7169TIP3    H242923   5.636   4.472  11.094  1.2722  1.2212 -1.4491
 7170TIP3   OH242924   0.254   2.644   0.247 -0.4280  0.1617 -0.7795
 7170TIP3    H142925   0.166   2.682   0.255 -0.7380 -0.7012  0.1210
 7170TIP3    H242926   0.239   2.550   0.256  0.5586 -0.0196 -0.9979
 7171TIP3   OH242927   6.648   4.989   2.143 -0.8606  0.6791 -0.2199
 7171TIP3    H142928   6.742   4.986   2.154 -0.6593 -1.0833 -1.9894
 7171TIP3    H242929   6.625   5.081   2.161  1.0350  0.9550  1.0365
 7172TIP3   OH242930   5.965   3.941   4.407  0.5381  0.0646  0.1816
 7172TIP3    H142931   5.881   3.912   4.373 -0.3117  1.8472  0.6523
 7172TIP3    H242932   6.022   3.949   4.330 -0.6516  1.7643 -0.5828
 7173TIP3   OH242933   0.258   1.737   0.611  0.1341  0.3593  0.0375
 7173TIP3    H142934   0.249   1.706   0.521  0.5063 -0.8224  0.3867
 7173TIP3    H242935   0.175   1.715   0.653  0.3895 -0.1850  0.2789
 7174TIP3   OH242936   2.841   0.255   0.004 -0.3112 -0.0915  0.2099
 7174TIP3    H142937   2.807   0.179  -0.043  0.2861 -0.1657 -0.1085
 7174TIP3    H242938   2.841   0.228   0.096 -0.1134 -0.4751  0.1006
 7175TIP3   OH242939   5.655   6.429  14.651  0.0598 -0.5804 -0.5094
 7175TIP3    H142940   5.569   6.390  14.661  0.3739 -1.6987 -1.7641
 7175TIP3    H242941   5.655   6.463  14.562  0.6695  0.0449 -0.2745
 7176TIP3   OH242942   0.930   3.658  16.594 -0.0745 -0.1687  0.3663
 7176TIP3    H142943   0.990   3.668  16.667  1.4828  0.5699 -0.9609
 7176TIP3    H242944   0.844   3.649  16.635  1.0948 -4.1543  2.4897
 7177TIP3   OH242945   2.564   3.734   0.135  0.4747 -0.1220  0.3279
 7177TIP3    H142946   2.593   3.817   0.175  0.9127 -0.5796  0.9872
 7177TIP3    H242947   2.619   3.668   0.177  1.0887 -0.6031 -1.2033
 7178TIP3   OH242948   6.583   3.487   2.841  0.0700  0.0172  0.2781
 7178TIP3    H142949   6.570   3.529   2.926  0.0437  0.0771  0.2443
 7178TIP3    H242950   6.678   3.475   2.835  0.3608  2.2083 -0.7205
 7179TIP3   OH242951   0.578   1.915  13.968 -0.5380  0.1697  0.4162
 7179TIP3    H142952   0.535   1.996  13.995  2.5497  1.7925  0.8773
 7179TIP3    H242953   0.557   1.853  14.038 -1.3687  1.1213  1.0566
 7180TIP3   OH242954   1.870   6.526  14.381  0.6729 -0.1484 -0.0038
 7180TIP3    H142955   1.778   6.550  14.395  0.1186 -2.0509 -0.0629
 7180TIP3    H242956   1.892   6.565  14.297 -0.2035  0.0466 -0.1548
 7181TIP3   OH242957   4.242   0.453   2.162 -0.3744 -1.1198  0.0654
 7181TIP3    H142958   4.232   0.512   2.087  3.5375 -1.3666 -0.8545
 7181TIP3    H242959   4.215   0.505   2.238  2.3079  1.8240 -0.7810
 7182TIP3   OH242960   1.691   0.676   1.480 -0.1523  0.7624 -0.0087
 7182TIP3    H142961   1.766   0.696   1.535  0.8077  1.8080 -1.5986
 7182TIP3    H242962   1.642   0.758   1.475 -0.4068  0.5877 -0.4242
 7183TIP3   OH242963   5.164   4.955   1.661  0.0040  0.4731  0.3396
 7183TIP3    H142964   5.137   4.863   1.662  0.8905  0.1776 -0.6700
 7183TIP3    H242965   5.191   4.973   1.750  0.1407 -0.3486  0.4740
 7184TIP3   OH242966   0.286   2.482   5.758  0.1382 -0.0930 -0.0056
 7184TIP3    H142967   0.241   2.437   5.686 -0.4800 -0.1236  0.3915
 7184TIP3    H242968   0.230   2.468   5.834  1.1638 -0.6800  0.6539
 7185TIP3   OH242969   2.165   2.674  14.730  0.3380 -0.1288  0.6195
 7185TIP3    H142970   2.237   2.612  14.719 -0.5730 -1.1555  0.0888
 7185TIP3    H242971   2.140   2.666  14.822  1.5772  1.0422  1.0790
 7186TIP3   OH242972   5.103   0.529   6.584  0.6802 -0.7038  0.4133
 7186TIP3    H142973   5.182   0.583   6.590 -0.2215  0.6433  0.6018
 7186TIP3    H242974   5.125   0.461   6.521  1.4855  0.5525 -0.7140
 7187TIP3   OH242975   6.707   4.321  16.039 -0.0271  0.1865  0.4219
 7187TIP3    H142976   6.694   4.410  16.072  0.4214 -0.2253  1.7703
 7187TIP3    H242977   6.625   4.300  15.994 -0.7860  0.6850  1.5286
 7188TIP3   OH242978   1.560   5.406   6.625  0.0896  0.0039 -0.5925
 7188TIP3    H142979   1.474   5.438   6.653 -0.2075 -1.4973  0.2946
 7188TIP3    H242980   1.559   5.313   6.644  2.0270 -0.0007 -0.2838
 7189TIP3   OH242981   3.973   6.283  16.127  0.0533 -0.4072 -0.1661
 7189TIP3    H142982   3.962   6.189  16.120 -1.2916 -0.2638 -0.1325
 7189TIP3    H242983   3.945   6.305  16.216 -1.9178  0.3027 -0.9149
 7190TIP3   OH242984   4.315   4.627   5.159  0.1649  0.2722  0.0208
 7190TIP3    H142985   4.330   4.721   5.167  0.7775  0.0949  1.1348
 7190TIP3    H242986   4.264   4.618   5.078 -0.5166  1.6161  0.2673
 7191TIP3   OH242987   4.471   4.891  12.257  0.3387  0.7777 -0.1012
 7191TIP3    H142988   4.410   4.820  12.237  0.7752  0.6181 -0.9118
 7191TIP3    H242989   4.415   4.967  12.274 -0.0913  0.7412 -1.2445
 7192TIP3   OH242990   6.381   4.921  16.416  0.4697  0.1783 -0.4014
 7192TIP3    H142991   6.443   4.989  16.441 -1.0009  1.3196  0.2801
 7192TIP3    H242992   6.356   4.880  16.498  1.3109 -1.2070 -0.8037
 7193TIP3   OH242993   3.369   3.242  13.415 -0.0959  0.2057 -0.1751
 7193TIP3    H142994   3.400   3.233  13.325  1.4082 -0.3884  0.3693
 7193TIP3    H242995   3.321   3.325  13.416 -1.6203 -0.6001 -1.9010
 7194TIP3   OH242996   4.828   4.844   1.994 -0.1545  0.0053  0.4014
 7194TIP3    H142997   4.907   4.898   2.003 -1.2973  1.5566  1.8600
 7194TIP3    H242998   4.758   4.907   1.976 -1.2852 -1.1633  0.5579
 7195TIP3   OH242999   3.206   1.641  12.099 -0.2028 -0.1828 -0.3409
 7195TIP3    H143000   3.238   1.554  12.123 -1.4661 -0.6092 -0.1255
 7195TIP3    H243001   3.211   1.643  12.004  1.0464  0.0066 -0.2836
 7196TIP3   OH243002   0.932   6.780  16.559 -0.0915  0.8231  0.1942
 7196TIP3    H143003   0.896   6.811  16.476  1.7159  1.6085 -0.3533
 7196TIP3    H243004   0.934   6.685  16.550 -1.6796  0.7765  0.1378
 7197TIP3   OH243005   1.565   5.937  12.319  0.8675 -0.0722 -0.2848
 7197TIP3    H143006   1.637   5.923  12.258  0.4231  1.4456 -1.2369
 7197TIP3    H243007   1.499   5.872  12.295  0.1722  1.3005 -2.3493
 7198TIP3   OH243008   4.033   6.736   1.111  0.1107 -0.3639 -0.1108
 7198TIP3    H143009   4.046   6.788   1.032 -0.0488  1.3848  0.9536
 7198TIP3    H243010   4.120   6.701   1.131  0.9569  2.0867  0.8246
 7199TIP3   OH243011   1.826   0.835   4.589 -0.1522 -0.4519 -0.1839
 7199TIP3    H143012   1.809   0.845   4.495  0.8819 -0.5930 -0.3950
 7199TIP3    H243013   1.857   0.745   4.598 -0.1328 -0.3993  0.2848
 7200TIP3   OH243014   1.436   2.788   0.151 -0.3542 -0.1053  0.2231
 7200TIP3    H143015   1.488   2.855   0.107 -0.6064  0.4518  0.7559
 7200TIP3    H243016   1.374   2.837   0.205 -1.4720 -0.7542 -0.4176
 7201TIP3   OH243017   3.855   0.516   4.409 -0.4313 -0.1116 -0.4203
 7201TIP3    H143018   3.869   0.453   4.338 -0.3236  1.5789 -1.9549
 7201TIP3    H243019   3.925   0.581   4.398 -1.8371  1.4937 -0.2882
 7202TIP3   OH243020   0.698   3.560  14.348  0.5493 -0.6550 -0.1168
 7202TIP3    H143021   0.761   3.495  14.316  0.3638 -0.2239 -1.4061
 7202TIP3    H243022   0.631   3.508  14.392  0.1307 -1.4248 -1.5815
 7203TIP3   OH243023   5.876   1.371  12.478 -0.3324 -0.5258 -0.2026
 7203TIP3    H143024   5.897   1.368  12.385 -1.6570 -1.3000 -0.5019
 7203TIP3    H243025   5.868   1.464  12.498 -0.4769 -0.3675 -0.9678
 7204TIP3   OH243026   5.070   5.799   5.924  0.1434 -0.5967 -0.0101
 7204TIP3    H143027   5.108   5.743   5.992  0.2340 -0.4060  0.0970
 7204TIP3    H243028   5.007   5.743   5.879  1.2149 -1.1975 -0.8030
 7205TIP3   OH243029   4.758   0.030   5.544  0.1821 -0.3342  0.0081
 7205TIP3    H143030   4.671   0.036   5.505  0.1798  0.8415  0.1444
 7205TIP3    H243031   4.818   0.032   5.469  0.2014  2.5224 -0.0093
 7206TIP3   OH243032   4.949   3.507  14.399  0.1969 -0.1514  0.4992
 7206TIP3    H143033   4.977   3.417  14.384  1.5296  0.0646  1.4696
 7206TIP3    H243034   5.001   3.536  14.474 -1.3509  0.9233  1.2054
 7207TIP3   OH243035   5.714   6.741   1.521 -0.0006 -0.4349 -0.5329
 7207TIP3    H143036   5.738   6.828   1.552 -2.7668  0.6117 -1.1183
 7207TIP3    H243037   5.651   6.756   1.451 -0.7116 -2.9103 -0.5318
 7208TIP3   OH243038   4.627   6.768  12.674  1.2443  0.0539 -0.0669
 7208TIP3    H143039   4.565   6.819  12.725  1.0273 -0.9825  0.7318
 7208TIP3    H243040   4.699   6.829  12.656  1.0933  0.5925  1.0497
 7209TIP3   OH243041   6.435   2.866  12.203  0.5426  0.2434 -0.2831
 7209TIP3    H143042   6.344   2.878  12.177  0.4529 -0.7560 -0.4493
 7209TIP3    H243043   6.438   2.898  12.294 -0.4302 -1.4957  0.4064
 7210TIP3   OH243044   5.972   3.355  12.127  0.1169  0.1393 -0.2169
 7210TIP3    H143045   5.948   3.446  12.144  1.7675  0.4711  0.5813
 7210TIP3    H243046   5.931   3.306  12.198  2.4308  0.8277  1.7476
 7211TIP3   OH243047   6.308   5.782   1.926  0.0415  0.3068 -0.3777
 7211TIP3    H143048   6.374   5.839   1.965 -0.5582  0.0769  1.0208
 7211TIP3    H243049   6.342   5.763   1.838  1.8563  0.1572  0.3176
 7212TIP3   OH243050   3.709   0.904   0.533 -0.0095  0.4735 -0.3288
 7212TIP3    H143051   3.690   0.981   0.479 -1.6819  0.3623  0.0641
 7212TIP3    H243052   3.675   0.927   0.620  0.5489 -0.2564  0.0968
 7213TIP3   OH243053   0.037   5.547   1.280 -0.3940 -0.0965  0.3133
 7213TIP3    H143054   0.101   5.618   1.280  1.0516 -1.3193 -1.1575
 7213TIP3    H243055   0.047   5.504   1.365  1.2807 -0.6832 -0.1492
 7214TIP3   OH243056   1.366   4.507   1.495 -0.2022 -0.4103  0.1525
 7214TIP3    H143057   1.339   4.574   1.559 -0.1516 -0.9773  0.7735
 7214TIP3    H243058   1.460   4.523   1.483 -0.7218  1.5658 -2.0127
 7215TIP3   OH243059   4.119   0.410   3.108  0.4265 -0.3964 -0.2304
 7215TIP3    H143060   4.195   0.384   3.161  1.4971  2.0233 -0.4696
 7215TIP3    H243061   4.135   0.369   3.023  0.9783 -0.6566 -0.0118
 7216TIP3   OH243062   2.061   5.578  14.144 -0.7333 -0.5993 -0.7545
 7216TIP3    H143063   2.006   5.573  14.222  0.6053 -0.0661  0.2816
 7216TIP3    H243064   2.002   5.563  14.071 -2.2987  0.2711  0.2794
 7217TIP3   OH243065   4.626   4.774   3.931 -0.0246  0.2562  0.2706
 7217TIP3    H143066   4.679   4.700   3.901  0.5546  0.0774  1.6575
 7217TIP3    H243067   4.677   4.851   3.908  0.4970  0.1134  0.9196
 7218TIP3   OH243068   4.362   1.243  11.046 -0.5464 -0.1008 -0.4456
 7218TIP3    H143069   4.407   1.327  11.057 -0.7702 -0.1277  0.7959
 7218TIP3    H243070   4.322   1.248  10.959 -0.2937  0.9454 -0.5089
 7219TIP3   OH243071   2.103   2.513  16.260 -0.0435  0.0300  0.2780
 7219TIP3    H143072   2.141   2.472  16.337  1.3961  1.9043  0.6381
 7219TIP3    H243073   2.163   2.584  16.238  0.1279 -0.9835 -3.1633
 7220TIP3   OH243074   1.293   0.183   3.173 -0.7478 -0.1436  0.2182
 7220TIP3    H143075   1.227   0.245   3.205 -1.1818 -0.8672  0.7699
 7220TIP3    H243076   1.323   0.137   3.252  0.4411  0.1857 -0.0261
 7221TIP3   OH243077   4.509   3.701  12.463 -0.2849 -0.5719  0.1100
 7221TIP3    H143078   4.548   3.750  12.535  1.8484  0.7307 -1.7860
 7221TIP3    H243079   4.419   3.733  12.459  0.5122  1.8717  0.1298
 7222TIP3   OH243080   4.734   1.481   1.940  0.9873  0.2524 -0.0514
 7222TIP3    H143081   4.743   1.401   1.992  2.2914  0.6752  0.3986
 7222TIP3    H243082   4.768   1.458   1.854 -0.0590 -0.0990 -0.3879
 7223TIP3   OH243083   2.485   0.456   4.388  0.2667  0.1435  0.1491
 7223TIP3    H143084   2.577   0.429   4.387 -0.0448 -0.9708 -0.1530
 7223TIP3    H243085   2.458   0.449   4.296 -0.5953 -1.2876  0.4904
 7224TIP3   OH243086   3.388   5.526   0.064 -0.0192  0.5684  0.0457
 7224TIP3    H143087   3.348   5.597   0.013 -1.6788 -0.1248  0.3089
 7224TIP3    H243088   3.464   5.499   0.012 -0.0985  1.6988 -0.6863
 7225TIP3   OH243089   2.740   1.418   2.271  0.0203 -0.1244  1.1621
 7225TIP3    H143090   2.737   1.513   2.278 -0.9124  0.0517 -0.8814
 7225TIP3    H243091   2.818   1.400   2.218  0.7203 -0.5960  2.3093
 7226TIP3   OH243092   1.431   1.251  13.415  0.0528 -0.0990 -0.5173
 7226TIP3    H143093   1.421   1.344  13.396  0.3043 -0.7374 -4.7999
 7226TIP3    H243094   1.526   1.240  13.428  0.1027  0.1588 -0.6487
 7227TIP3   OH243095   6.074   5.947  12.940 -0.3020  0.5110  0.3325
 7227TIP3    H143096   6.155   5.983  12.975  0.0903 -0.2107  0.1835
 7227TIP3    H243097   6.101   5.896  12.864 -0.8094 -0.2685  0.6591
 7228TIP3   OH243098   3.985   3.695   4.918  0.5645 -0.5643  0.2691
 7228TIP3    H143099   3.969   3.772   4.973 -0.1807  1.4281 -2.4710
 7228TIP3    H243100   4.079   3.679   4.927  0.3561 -0.7645  2.5701
 7229TIP3   OH243101   5.633   2.942   4.466  0.7190 -0.5144  0.1847
 7229TIP3    H143102   5.623   3.009   4.533  1.9443 -1.5557  1.4540
 7229TIP3    H243103   5.689   2.982   4.399 -1.3182  0.8821 -0.7891
 7230TIP3   OH243104   2.491   3.141   2.650 -0.0237  0.3896  0.2068
 7230TIP3    H143105   2.483   3.172   2.560 -0.1285 -0.0501  0.0622
 7230TIP3    H243106   2.562   3.077   2.647  1.1024  1.5711  0.7615
 7231TIP3   OH243107   5.451   5.183   6.237 -0.7513 -0.5507 -0.1212
 7231TIP3    H143108   5.422   5.266   6.198 -0.7920 -0.8355 -0.7127
 7231TIP3    H243109   5.507   5.143   6.170 -0.6277 -0.9441  0.2099
 7232TIP3   OH243110   5.848   0.914   3.679  0.1910 -0.2417 -0.2832
 7232TIP3    H143111   5.879   0.964   3.603 -0.0624  0.4625  0.0626
 7232TIP3    H243112   5.827   0.981   3.745  3.3430 -0.8942  1.5933
 7233TIP3   OH243113   1.093   1.304  14.700 -0.0852  0.1162  0.3262
 7233TIP3    H143114   1.019   1.302  14.640  0.4759 -2.1951 -0.3876
 7233TIP3    H243115   1.056   1.330  14.784 -1.1516  1.8735 -0.6324
 7234TIP3   OH243116   0.725   5.231   3.727  0.1712 -0.0180  0.1921
 7234TIP3    H143117   0.728   5.290   3.802 -1.3550  1.0072 -0.5122
 7234TIP3    H243118   0.758   5.284   3.654  1.6352 -1.0020  0.0933
 7235TIP3   OH243119   4.966   4.997  13.533  0.5215  0.7109 -0.3021
 7235TIP3    H143120   4.897   4.935  13.557  0.4924  1.2897  1.2532
 7235TIP3    H243121   4.923   5.083  13.538  1.2290  1.0455  0.3104
 7236TIP3   OH243122   1.334   5.523   2.420 -0.3349 -0.0817  0.0510
 7236TIP3    H143123   1.425   5.531   2.392 -0.5682 -1.7094 -1.3200
 7236TIP3    H243124   1.339   5.479   2.505  0.2076  1.4595  0.8523
 7237TIP3   OH243125   0.115   3.688   5.189 -0.1699  0.0452 -0.4645
 7237TIP3    H143126   0.055   3.615   5.175  2.5037 -2.6046  0.6426
 7237TIP3    H243127   0.161   3.697   5.105 -0.8898  0.8833 -0.7774
 7238TIP3   OH243128   6.040   6.586  16.912  0.3318 -0.3204  0.3705
 7238TIP3    H143129   6.119   6.610  16.961 -0.6885 -0.8533  2.3816
 7238TIP3    H243130   5.977   6.656  16.933 -0.2029 -0.6838  0.0063
 7239TIP3   OH243131   6.146   5.465   6.081 -0.3240 -0.1386  0.2856
 7239TIP3    H143132   6.093   5.400   6.034 -0.6685 -0.1818  0.7338
 7239TIP3    H243133   6.232   5.425   6.087  0.1921  0.5249 -1.7334
 7240TIP3   OH243134   3.269   6.323   4.788  0.3369  0.3523  0.0752
 7240TIP3    H143135   3.330   6.334   4.715 -2.5132  2.3620 -2.2585
 7240TIP3    H243136   3.221   6.243   4.767  0.6353  0.0013  0.7077
 7241TIP3   OH243137   3.417   2.670   3.386 -0.2642 -0.6317  0.3178
 7241TIP3    H143138   3.411   2.683   3.480 -0.5724 -2.0557  0.5200
 7241TIP3    H243139   3.364   2.592   3.369  1.5217 -1.6867 -0.7231
 7242TIP3   OH243140   1.964   0.658   4.420 -0.3225  0.4691  0.2601
 7242TIP3    H143141   1.926   0.588   4.367 -0.5395  0.3541  0.5660
 7242TIP3    H243142   2.013   0.613   4.489  2.6362  0.5573 -1.6295
 7243TIP3   OH243143   4.458   4.788   0.515  0.1245 -0.0772 -0.6133
 7243TIP3    H143144   4.469   4.705   0.467  1.2183 -1.2354  1.5316
 7243TIP3    H243145   4.544   4.807   0.550  0.0574  2.4116 -1.6228
 7244TIP3   OH243146   1.388   2.208   4.714 -0.1787  0.2935  0.3990
 7244TIP3    H143147   1.421   2.211   4.804 -0.3654  1.0796  0.4468
 7244TIP3    H243148   1.458   2.164   4.665  0.4347  0.8831  0.7196
 7245TIP3   OH243149   6.146   0.928  15.439 -0.0474 -0.4523  0.0199
 7245TIP3    H143150   6.126   0.837  15.414  0.3129  0.0810 -2.5526
 7245TIP3    H243151   6.061   0.964  15.466 -1.3746 -0.2940 -3.6586
 7246TIP3   OH243152   5.467   6.678   4.043  1.1863  0.6670 -0.2846
 7246TIP3    H143153   5.377   6.672   4.075  0.2203 -2.8156 -2.9258
 7246TIP3    H243154   5.465   6.749   3.978  0.2695  0.5349 -0.4149
 7247TIP3   OH243155   6.427   1.515   3.145 -0.2956  0.2650 -0.5804
 7247TIP3    H143156   6.455   1.497   3.235  0.6781  0.3601 -0.8522
 7247TIP3    H243157   6.391   1.604   3.149  1.5117  1.0589 -0.6255
 7248TIP3   OH243158   4.537   0.372   3.465  0.6542  0.0476 -0.3337
 7248TIP3    H143159   4.517   0.423   3.544  1.3823 -1.3318  0.7875
 7248TIP3    H243160   4.623   0.403   3.438  0.9002 -0.2663  0.0821
 7249TIP3   OH243161   5.881   6.616  12.404  0.3894  0.2980 -0.3623
 7249TIP3    H143162   5.908   6.530  12.373  0.3867 -0.2433  1.0662
 7249TIP3    H243163   5.786   6.610  12.412  0.6139 -0.6868  2.7520
 7250TIP3   OH243164   1.017   5.102  14.531  0.5271  0.0948  0.1324
 7250TIP3    H143165   1.049   5.189  14.505 -0.0486 -0.1503 -1.5103
 7250TIP3    H243166   0.922   5.109  14.527  0.4763 -0.5890  0.0025
 7251TIP3   OH243167   0.062   1.426   2.049 -0.3542  0.0858 -0.1303
 7251TIP3    H143168   0.063   1.508   2.099  0.6309 -1.5969  2.8657
 7251TIP3    H243169   0.147   1.423   2.005  0.0160  0.2626  0.5538
 7252TIP3   OH243170   3.168   6.629  16.477  0.1706 -0.5162  0.1642
 7252TIP3    H143171   3.107   6.580  16.423 -0.8233  0.8065  0.0408
 7252TIP3    H243172   3.220   6.562  16.522 -0.0670 -1.6457 -1.1782
 7253TIP3   OH243173   1.867   0.435   4.191 -0.9643  0.3736  0.1111
 7253TIP3    H143174   1.951   0.446   4.148  0.9510 -0.1111  3.4304
 7253TIP3    H243175   1.843   0.344   4.174  0.7843 -0.4201  1.6652
 7254TIP3   OH243176   5.422   4.924   1.520 -0.1008  0.1912 -0.3200
 7254TIP3    H143177   5.333   4.895   1.501 -0.2738  0.5425 -0.0354
 7254TIP3    H243178   5.417   4.966   1.606  0.8167 -1.9992  0.8857
 7255TIP3   OH243179   1.032   3.036  13.427 -0.2535 -0.1328 -0.0462
 7255TIP3    H143180   1.124   3.057  13.439 -0.5604 -0.0501  3.2726
 7255TIP3    H243181   1.029   2.940  13.429 -0.2691 -0.1263  0.6661
 7256TIP3   OH243182   4.133   5.270  14.019  0.5284 -0.1336  0.2792
 7256TIP3    H143183   4.107   5.330  14.089 -0.6254 -2.2080  1.7318
 7256TIP3    H243184   4.229   5.275  14.017  0.5217  0.7433  1.2570
 7257TIP3   OH243185   2.705   0.527   4.615 -0.3089  0.9156  0.0402
 7257TIP3    H143186   2.767   0.553   4.684 -1.1261  1.0611  0.7391
 7257TIP3    H243187   2.697   0.606   4.561  0.6772  0.6604 -0.4933
 7258TIP3   OH243188   6.784   6.265  12.421 -0.5448  0.6323 -0.2169
 7258TIP3    H143189   6.732   6.215  12.359  0.1135  0.8774 -0.9807
 7258TIP3    H243190   6.774   6.218  12.504 -1.9544  0.6642 -0.3328
 7259TIP3   OH243191   4.181   0.102   3.485  0.4722  0.3858 -0.2305
 7259TIP3    H143192   4.116   0.041   3.519  0.9094  0.2065  0.3032
 7259TIP3    H243193   4.265   0.062   3.506  0.7588  0.5607 -1.0123
 7260TIP3   OH243194   4.253   3.935  16.389 -0.0617 -0.5101  0.0805
 7260TIP3    H143195   4.315   3.895  16.451  0.4127 -1.4114 -0.9451
 7260TIP3    H243196   4.167   3.914  16.425  0.1794  1.1421  1.7690
 7261TIP3   OH243197   3.264   3.474  16.084  0.8243 -0.2362  0.2045
 7261TIP3    H143198   3.294   3.551  16.133  2.0026  0.0059 -0.8365
 7261TIP3    H243199   3.183   3.502  16.041  1.5427  0.6439 -0.6250
 7262TIP3   OH243200   5.886   4.183  14.242 -0.4892 -0.1489  0.2179
 7262TIP3    H143201   5.965   4.232  14.219 -0.4078  0.5702  1.8518
 7262TIP3    H243202   5.901   4.155  14.332 -2.0200 -0.1646  0.4912
 7263TIP3   OH243203   5.984   3.645  15.338  0.3419 -0.0435  0.2607
 7263TIP3    H143204   5.998   3.621  15.246  0.8701 -3.5475  1.0958
 7263TIP3    H243205   6.070   3.634  15.379 -0.2380 -0.2053  1.4814
 7264TIP3   OH243206   5.412   3.533   2.995  0.1137  0.4372  0.5268
 7264TIP3    H143207   5.490   3.488   3.028  1.7265  1.5503 -1.5506
 7264TIP3    H243208   5.435   3.626   2.999 -0.4005  0.7005 -1.7180
 7265TIP3   OH243209   2.854   4.760  10.331 -0.4006 -0.0816  0.4477
 7265TIP3    H143210   2.827   4.720  10.414 -1.5688 -0.8270 -0.2679
 7265TIP3    H243211   2.775   4.799  10.296  0.3817  1.4480  0.3158
 7266TIP3   OH243212   0.244   4.548   2.819  0.2728 -0.1363  0.3308
 7266TIP3    H143213   0.172   4.523   2.877 -0.8282  2.2194  0.0870
 7266TIP3    H243214   0.255   4.642   2.833 -0.2945  0.6630 -3.5034
 7267TIP3   OH243215   0.429   4.541  13.741  0.2783  0.7651  0.0677
 7267TIP3    H143216   0.488   4.583  13.802 -0.3306  0.3653  0.9519
 7267TIP3    H243217   0.484   4.515  13.667  0.9882  1.3863  0.3682
 7268TIP3   OH243218   1.708   0.363   0.762  0.6032 -0.3915  0.0868
 7268TIP3    H143219   1.766   0.289   0.747  0.9450 -0.2614  0.7530
 7268TIP3    H243220   1.664   0.377   0.677  0.2770 -1.5684  0.0470
 7269TIP3   OH243221   5.274   6.088   2.447 -0.7709  0.5063 -0.1158
 7269TIP3    H143222   5.180   6.083   2.432 -0.2742 -0.5572 -3.7837
 7269TIP3    H243223   5.293   6.182   2.454 -1.9898  0.7656 -0.1544
 7270TIP3   OH243224   3.732   6.013   0.539  0.2018 -0.2389  0.3072
 7270TIP3    H143225   3.727   6.067   0.461  1.2423  1.0995  1.1190
 7270TIP3    H243226   3.711   6.072   0.611  2.5061 -0.5344  1.3444
 7271TIP3   OH243227   4.600   1.185   4.078  0.0405 -0.0313 -0.1464
 7271TIP3    H143228   4.646   1.104   4.055  0.4679  0.3878 -0.7896
 7271TIP3    H243229   4.512   1.156   4.102  0.6412 -0.8527  1.1788
 7272TIP3   OH243230   5.237   2.435   1.161  0.1637  0.2577 -0.1434
 7272TIP3    H143231   5.176   2.506   1.183 -1.5838 -0.2069 -2.9668
 7272TIP3    H243232   5.211   2.363   1.219 -0.4456  0.8141  0.2895
 7273TIP3   OH243233   1.185   0.005   0.099  0.9684  0.1985 -0.0734
 7273TIP3    H143234   1.128   0.082   0.100 -0.9556 -1.1664  0.0451
 7273TIP3    H243235   1.201  -0.014   0.192  0.2153 -0.4068 -0.0650
 7274TIP3   OH243236   1.985   2.304   2.191  0.1297 -0.2425 -0.3888
 7274TIP3    H143237   1.983   2.318   2.096 -1.6265 -2.8956 -0.8435
 7274TIP3    H243238   2.058   2.244   2.206  1.8525  1.9023  0.3293
 7275TIP3   OH243239   3.814   0.194  15.923 -0.4039 -0.0503 -0.5697
 7275TIP3    H143240   3.792   0.139  15.848 -3.4963 -0.1997  0.2729
 7275TIP3    H243241   3.804   0.136  15.998 -0.7975  0.9036  0.1399
 7276TIP3   OH243242   6.754   0.960  15.116 -0.0900  0.0899 -0.0461
 7276TIP3    H143243   6.834   0.909  15.108 -1.2473 -1.6934 -0.7947
 7276TIP3    H243244   6.722   0.943  15.204 -0.2807 -0.1801 -0.1674
 7277TIP3   OH243245   3.566   4.983   4.573  0.5966 -0.0920 -0.7301
 7277TIP3    H143246   3.491   4.955   4.520  0.1843 -2.9769  1.1753
 7277TIP3    H243247   3.643   4.959   4.521  0.3815  2.7541 -2.6345
 7278TIP3   OH243248   5.614   2.661   2.622  0.2607  0.4145  1.4783
 7278TIP3    H143249   5.552   2.604   2.668 -0.4338  0.4486  0.6092
 7278TIP3    H243250   5.634   2.614   2.542 -1.8879  2.2289 -0.2493
 7279TIP3   OH243251   3.232   5.381  10.982 -0.0229  0.1797 -0.0310
 7279TIP3    H143252   3.228   5.462  10.933 -0.1187 -1.2530 -2.5739
 7279TIP3    H243253   3.150   5.379  11.032 -0.7381  0.9659 -1.1141
 7280TIP3   OH243254   3.503   4.788   3.568 -0.0093 -0.6030 -0.3961
 7280TIP3    H143255   3.591   4.751   3.563 -0.2082 -1.0462 -0.7285
 7280TIP3    H243256   3.450   4.718   3.606 -0.1691 -0.2489  0.0337
 7281TIP3   OH243257   2.975   0.366  12.353 -0.2820  0.3081  0.2946
 7281TIP3    H143258   2.982   0.390  12.260 -1.5321 -2.1947 -0.5437
 7281TIP3    H243259   3.025   0.285  12.360 -0.6108  0.2013  1.7098
 7282TIP3   OH243260   2.416   2.334   0.931  0.0908 -0.7033  0.1850
 7282TIP3    H143261   2.330   2.373   0.946  0.2137 -0.1693 -0.4968
 7282TIP3    H243262   2.417   2.312   0.838  0.2400 -1.8195  0.4388
 7283TIP3   OH243263   0.988   2.715  15.515  0.1110  0.4284  0.1022
 7283TIP3    H143264   0.904   2.677  15.491 -0.1853  0.0715  1.6088
 7283TIP3    H243265   1.048   2.686  15.446 -0.9193  0.4130 -0.8098
 7284TIP3   OH243266   6.167   6.459   3.328  0.6197  0.0499 -0.0669
 7284TIP3    H143267   6.113   6.527   3.286  1.1505 -0.6435 -1.9472
 7284TIP3    H243268   6.172   6.487   3.420 -0.6728  1.5795 -0.4064
 7285TIP3   OH243269   1.269   4.370  14.997  0.0846 -0.0189 -0.4469
 7285TIP3    H143270   1.304   4.444  15.047  1.0930 -0.5634 -0.3317
 7285TIP3    H243271   1.304   4.383  14.908  1.1760 -0.9281 -0.1730
 7286TIP3   OH243272   6.554   2.647  13.164 -1.0003 -0.3057  0.2868
 7286TIP3    H143273   6.579   2.719  13.222 -1.3467 -0.8046  1.0594
 7286TIP3    H243274   6.541   2.572  13.222 -4.0484 -0.1697 -0.0579
 7287TIP3   OH243275   5.717   6.519   2.910  0.3112 -0.4429  0.3278
 7287TIP3    H143276   5.744   6.605   2.876 -0.7422 -0.3937 -0.4409
 7287TIP3    H243277   5.798   6.479   2.942  0.6507  1.3919  2.0093
 7288TIP3   OH243278   6.089   1.630   0.459 -0.2328  0.7632  0.0547
 7288TIP3    H143279   5.998   1.603   0.449  0.0195 -0.1694  0.1772
 7288TIP3    H243280   6.091   1.720   0.428 -1.0773  0.5934 -0.5239
 7289TIP3   OH243281   2.302   1.032   3.735 -0.0254 -0.0299  0.4926
 7289TIP3    H143282   2.275   1.061   3.648 -0.6778  0.1443  0.7494
 7289TIP3    H243283   2.297   0.937   3.731 -2.1783  0.0115  0.9818
 7290TIP3   OH243284   4.184   4.058   3.804  0.4430 -0.0301 -0.6415
 7290TIP3    H143285   4.128   4.082   3.730  0.4574  1.8813 -0.0874
 7290TIP3    H243286   4.142   4.099   3.880  0.9391 -1.1572  0.2680
 7291TIP3   OH243287   0.043   6.388  15.685  0.2410  0.2456 -0.0708
 7291TIP3    H143288   0.120   6.388  15.742  0.3638  1.4790 -0.2141
 7291TIP3    H243289   0.068   6.444  15.612  0.4667 -2.0897 -1.9102
 7292TIP3   OH243290   1.154   1.511  13.215 -0.4731 -0.7525  0.5863
 7292TIP3    H143291   1.107   1.588  13.247 -1.0423 -0.7433 -0.2481
 7292TIP3    H243292   1.233   1.507  13.269 -0.2774  0.6023  0.4399
 7293TIP3   OH243293   1.380   3.504  15.624 -0.1146 -0.0094 -0.5622
 7293TIP3    H143294   1.313   3.446  15.590 -0.5576 -1.5024  2.4859
 7293TIP3    H243295   1.332   3.583  15.651 -0.2749 -0.1055 -0.5636
 7294TIP3   OH243296   3.988   4.600   3.539  0.0833 -0.7912  0.2131
 7294TIP3    H143297   4.039   4.595   3.619  0.7919 -2.4886 -0.3002
 7294TIP3    H243298   4.053   4.606   3.469 -0.3618 -2.4976 -0.4143
 7295TIP3   OH243299   3.727   0.351   1.927 -0.2316  0.3958 -0.2660
 7295TIP3    H143300   3.669   0.280   1.901  1.1738 -0.9309  0.0935
 7295TIP3    H243301   3.674   0.407   1.983 -0.8260 -1.5182  1.1821
 7296TIP3   OH243302   5.322   1.484   6.872 -1.0559 -0.1084 -0.1165
 7296TIP3    H143303   5.258   1.500   6.802 -0.4139  3.4579 -0.0578
 7296TIP3    H243304   5.269   1.459   6.948 -2.2678  1.1048 -0.5238
 7297TIP3   OH243305   6.605   3.010  12.894 -0.3611 -0.2612  0.5547
 7297TIP3    H143306   6.568   3.063  12.965 -1.5298 -1.3286  0.7808
 7297TIP3    H243307   6.690   3.050  12.876 -1.2896  1.8408  0.5450
 7298TIP3   OH243308   0.242   1.630   4.862  0.3846  0.8966 -0.4433
 7298TIP3    H143309   0.231   1.717   4.900 -2.4391  0.1644  0.6444
 7298TIP3    H243310   0.156   1.608   4.826  0.8586 -1.6607 -0.1770
 7299TIP3   OH243311   0.180   3.833   6.054 -0.3195  0.2965  0.5549
 7299TIP3    H143312   0.188   3.782   6.134 -0.0054  0.1786  0.4488
 7299TIP3    H243313   0.175   3.924   6.084  0.7204  0.3261  0.6624
 7300TIP3   OH243314   2.304   0.725   2.014  0.1382  0.5031 -0.2278
 7300TIP3    H143315   2.303   0.635   2.048  2.1010  0.2100 -0.8055
 7300TIP3    H243316   2.270   0.778   2.086  1.8769 -0.3811  1.3291
 7301TIP3   OH243317   1.207   0.284   0.746  0.4288  0.1909 -0.6588
 7301TIP3    H143318   1.168   0.329   0.671  1.9477 -0.3557 -1.8262
 7301TIP3    H243319   1.269   0.347   0.782  0.1723  0.2165 -0.2616
 7302TIP3   OH243320   1.442   0.178  16.077  0.1815  0.1343 -0.3449
 7302TIP3    H143321   1.485   0.199  15.994  1.9236  1.2086  0.7769
 7302TIP3    H243322   1.356   0.219  16.070  0.5840  0.8581 -1.3292
 7303TIP3   OH243323   3.010   2.909   3.413  0.4349  0.3129 -0.1786
 7303TIP3    H143324   2.943   2.890   3.479 -1.5631  0.3661 -2.0505
 7303TIP3    H243325   3.083   2.946   3.462 -0.6860 -0.2380  2.0464
 7304TIP3   OH243326   3.344   4.114  12.067 -0.0770 -0.0107 -0.3584
 7304TIP3    H143327   3.250   4.113  12.048 -0.3224  0.9920  0.7014
 7304TIP3    H243328   3.369   4.205  12.053  0.6013 -0.1335  0.0467
 7305TIP3   OH243329   4.112   5.333   0.165  0.3357  0.3992  0.7073
 7305TIP3    H143330   4.024   5.355   0.135  0.3343 -1.9328 -1.2557
 7305TIP3    H243331   4.171   5.368   0.098  0.6392 -0.9819  0.2229
 7306TIP3   OH243332   5.800   2.097   1.554  0.0876 -1.0219  0.4599
 7306TIP3    H143333   5.740   2.022   1.565 -1.6340  0.2566  0.2074
 7306TIP3    H243334   5.763   2.146   1.480  0.5595  0.6430  1.2922
 7307TIP3   OH243335   1.896   4.857  15.682 -0.4288 -0.2524 -0.4154
 7307TIP3    H143336   1.912   4.815  15.598 -0.8075 -0.1264 -0.5550
 7307TIP3    H243337   1.876   4.785  15.742  0.4707 -0.3934 -0.2795
 7308TIP3   OH243338   4.111   0.059  14.398  0.2446  0.6541 -1.0288
 7308TIP3    H143339   4.116   0.132  14.336 -2.3124  1.1374 -0.7605
 7308TIP3    H243340   4.044   0.001  14.361  0.0499 -0.0090  0.3092
 7309TIP3   OH243341   0.179   1.615  12.469  0.1762  0.1483 -0.5230
 7309TIP3    H143342   0.222   1.537  12.504 -0.4444 -0.3492 -0.8507
 7309TIP3    H243343   0.116   1.640  12.537  0.2938  0.2930 -0.4679
 7310TIP3   OH243344   5.380   6.755   6.417  0.2301 -0.2281 -0.2316
 7310TIP3    H143345   5.342   6.681   6.370 -0.4895  0.0851 -0.1677
 7310TIP3    H243346   5.453   6.718   6.467 -0.6934 -1.0710  0.5307
 7311TIP3   OH243347   0.036   1.386   0.161  0.0877 -0.1103 -0.2289
 7311TIP3    H143348   0.069   1.329   0.230  2.2411  0.0450 -1.0406
 7311TIP3    H243349   0.010   1.327   0.091  0.3407 -0.1823 -0.2639
 7312TIP3   OH243350   0.016   1.501  13.531  0.3725 -0.4339 -0.1423
 7312TIP3    H143351   0.074   1.537  13.597  2.4025  1.0994 -2.5547
 7312TIP3    H243352  -0.036   1.576  13.501  0.2831 -0.8281 -1.0209
 7313TIP3   OH243353   3.462   2.250   5.671  0.0693  0.0726 -0.1068
 7313TIP3    H143354   3.394   2.312   5.697  1.2394  1.0387  0.7549
 7313TIP3    H243355   3.459   2.250   5.575 -0.2177  1.1798 -0.1089
 7314TIP3   OH243356   6.702   0.838   1.288  0.1581  0.7503 -0.3192
 7314TIP3    H143357   6.672   0.762   1.236 -1.7265  0.9116  0.4624
 7314TIP3    H243358   6.753   0.800   1.359 -2.8592 -0.1539  1.5695
 7315TIP3   OH243359   6.644   6.772   0.263 -0.5856  0.6722 -0.7387
 7315TIP3    H143360   6.589   6.822   0.323 -1.8565  1.4393 -2.4533
 7315TIP3    H243361   6.646   6.825   0.183  0.3456 -0.7064 -1.6790
 7316TIP3   OH243362   3.855   3.534  12.268  0.4489  0.0962  0.0201
 7316TIP3    H143363   3.872   3.442  12.285  1.6366  0.5209  1.2548
 7316TIP3    H243364   3.769   3.550  12.307 -0.0408 -0.6181 -0.7433
 7317TIP3   OH243365   6.550   1.437   1.843 -0.7762  0.3213 -0.4018
 7317TIP3    H143366   6.543   1.343   1.824 -3.4981  0.2011  0.6696
 7317TIP3    H243367   6.494   1.479   1.777  1.0819  1.3410 -1.4092
 7318TIP3   OH243368   2.553   0.994  12.282 -0.2663  0.5306  0.1461
 7318TIP3    H143369   2.567   1.074  12.231  0.8572  0.3016  0.0788
 7318TIP3    H243370   2.508   1.023  12.361  0.6240  1.3202  0.3796
 7319TIP3   OH243371   2.270   3.710  14.660  0.3014 -0.4414 -0.0498
 7319TIP3    H143372   2.194   3.655  14.639 -1.2678  1.2103  0.9862
 7319TIP3    H243373   2.259   3.788  14.605  1.1245 -0.0747  0.2890
 7320TIP3   OH243374   4.536   4.289  11.920 -0.2061 -0.0176 -0.3465
 7320TIP3    H143375   4.510   4.367  11.970  1.1864  0.2020  0.0662
 7320TIP3    H243376   4.453   4.245  11.900 -1.1699  2.3809 -1.9852
 7321TIP3   OH243377   5.189   1.126   1.019 -0.1485  0.0340  0.1117
 7321TIP3    H143378   5.275   1.100   1.052  0.7152  1.2098 -1.1034
 7321TIP3    H243379   5.188   1.095   0.928 -0.4029  1.3190 -0.3395
 7322TIP3   OH243380   0.623   5.110   0.152 -0.0776  0.3992  0.3250
 7322TIP3    H143381   0.682   5.183   0.173  0.6113  0.3161 -1.2261
 7322TIP3    H243382   0.535   5.150   0.153  0.2778  1.2416 -0.3639
 7323TIP3   OH243383   3.423   3.374   5.464  0.4911 -0.2076 -0.6745
 7323TIP3    H143384   3.420   3.470   5.467 -0.4988 -0.2552  0.8875
 7323TIP3    H243385   3.331   3.348   5.459  0.2358 -1.1364  4.4081
 7324TIP3   OH243386   2.628   4.826  11.257 -0.5276 -0.3570 -0.4119
 7324TIP3    H143387   2.702   4.810  11.314 -2.3349 -2.4913  1.5288
 7324TIP3    H243388   2.570   4.751  11.270 -2.6393  0.7571 -2.4918
 7325TIP3   OH243389   0.768   2.802   4.732  0.3912 -0.0290 -0.4257
 7325TIP3    H143390   0.684   2.756   4.731  1.3101 -1.8108  0.1977
 7325TIP3    H243391   0.810   2.777   4.649  0.9095 -0.3399 -0.0747
 7326TIP3   OH243392   6.751   4.586  11.938  0.0602 -1.1510 -0.1332
 7326TIP3    H143393   6.833   4.557  11.979  0.4667 -0.3699 -0.3741
 7326TIP3    H243394   6.684   4.566  12.003  0.6633 -0.1322  0.8613
 7327TIP3   OH243395   5.826   0.789   0.495 -0.3510  0.2045  0.1747
 7327TIP3    H143396   5.799   0.820   0.409 -0.1724 -0.1817 -0.0259
 7327TIP3    H243397   5.765   0.830   0.556 -0.2480  0.7764 -0.0992
 7328TIP3   OH243398   6.054   6.431  15.015 -0.1963  0.0705 -0.4906
 7328TIP3    H143399   6.042   6.450  14.922 -0.0553 -1.1850 -0.7807
 7328TIP3    H243400   6.105   6.505  15.048  0.1468  0.3066 -1.5181
 7329TIP3   OH243401   3.954   3.888   5.121  0.0029  0.1502 -0.1671
 7329TIP3    H143402   3.989   3.892   5.210 -0.2579 -0.6400 -0.0256
 7329TIP3    H243403   3.959   3.979   5.090  1.8036  0.1425 -0.0117
 7330TIP3   OH243404   2.687   2.018   3.153  0.0755 -0.6927  0.0345
 7330TIP3    H143405   2.591   2.016   3.158 -0.1447  0.6778 -2.3538
 7330TIP3    H243406   2.708   1.970   3.072  1.2046  1.0055 -0.7391
 7331TIP3   OH243407   3.467   3.158   1.585  0.0641 -0.1173  0.4327
 7331TIP3    H143408   3.418   3.112   1.653  1.5077 -1.9343  0.3361
 7331TIP3    H243409   3.403   3.215   1.544 -1.7415 -1.6602  0.9199
 7332TIP3   OH243410   4.366   1.920  15.235  0.2376 -0.0616  0.8197
 7332TIP3    H143411   4.421   1.842  15.225 -1.1996 -1.1503  1.0668
 7332TIP3    H243412   4.424   1.985  15.275  1.2065 -1.3421  1.5850
 7333TIP3   OH243413   1.936   6.095   0.950 -0.2718  0.1099  0.0496
 7333TIP3    H143414   1.927   6.011   0.904  1.2077  1.0016 -2.0205
 7333TIP3    H243415   2.011   6.137   0.909 -1.0743  2.5527  0.8997
 7334TIP3   OH243416   6.222   5.398   1.809 -0.5184  0.0911  0.0618
 7334TIP3    H143417   6.210   5.415   1.716  1.0817  2.8102  0.2466
 7334TIP3    H243418   6.175   5.469   1.853 -0.0908 -0.3487  1.2978
 7335TIP3   OH243419   0.449   0.707   1.872  0.2151 -0.4753 -0.4183
 7335TIP3    H143420   0.427   0.732   1.961  0.3490 -3.5609  0.5978
 7335TIP3    H243421   0.369   0.721   1.822 -0.0973  0.5236  0.3393
 7336TIP3   OH243422   6.619   3.534  16.267 -0.1301  0.0962 -0.1402
 7336TIP3    H143423   6.713   3.531  16.280  0.2021 -0.3064 -2.3029
 7336TIP3    H243424   6.585   3.573  16.348  1.8231 -0.1270  0.8490
 7337TIP3   OH243425   5.783   1.392  16.442  0.2688  0.0386 -0.5560
 7337TIP3    H143426   5.731   1.420  16.367  1.3306  0.3610 -1.1849
 7337TIP3    H243427   5.765   1.298  16.450 -1.5434  0.4104  0.1574
 7338TIP3   OH243428   0.640   6.477   5.418 -0.6579 -0.3734 -0.1450
 7338TIP3    H143429   0.550   6.491   5.448  0.4935  1.7037  2.7856
 7338TIP3    H243430   0.683   6.433   5.491  1.4867  1.7091 -0.0534
 7339TIP3   OH243431   2.686   6.137  14.292  0.2236  0.7746  0.0145
 7339TIP3    H143432   2.690   6.082  14.370  1.9895  0.6588 -0.1131
 7339TIP3    H243433   2.677   6.075  14.220  1.1389  0.6978 -0.0473
 7340TIP3   OH243434   0.321   0.186  13.501 -0.3080 -0.0585 -0.5207
 7340TIP3    H143435   0.292   0.098  13.528 -1.9783  0.6715  0.2314
 7340TIP3    H243436   0.415   0.178  13.490  0.7832 -0.5841  5.5643
 7341TIP3   OH243437   0.575   4.658  14.327 -0.2831 -0.1896 -0.1140
 7341TIP3    H143438   0.612   4.746  14.317 -1.9198  0.6083  0.4999
 7341TIP3    H243439   0.513   4.667  14.399 -2.1106 -1.3092 -1.4937
 7342TIP3   OH243440   2.489   0.288   0.192  1.0884 -0.2474 -0.1784
 7342TIP3    H143441   2.484   0.383   0.189  0.8933 -0.2359  0.3760
 7342TIP3    H243442   2.453   0.258   0.108 -1.2324  0.0755  0.6527
 7343TIP3   OH243443   3.848   6.713  17.181 -0.3920  1.0580 -0.1309
 7343TIP3    H143444   3.846   6.618  17.171 -0.5018  0.8163  1.7291
 7343TIP3    H243445   3.913   6.727  17.251 -1.2167  2.2497  0.4166
 7344TIP3   OH243446   4.698   0.123  16.057 -0.0010 -0.2929 -0.4515
 7344TIP3    H143447   4.635   0.091  15.992  1.0749 -0.7182 -1.3223
 7344TIP3    H243448   4.783   0.100  16.021  0.6164 -1.6137  1.6810
 7345TIP3   OH243449   4.084   2.670  15.705 -0.4123  0.1052  0.3461
 7345TIP3    H143450   4.179   2.664  15.693 -0.5607 -0.1924 -0.7412
 7345TIP3    H243451   4.063   2.761  15.684 -0.2912  0.3324  1.1902
 7346TIP3   OH243452   4.074   0.090   0.092  0.4780 -0.6937 -0.4567
 7346TIP3    H143453   3.987   0.128   0.085  0.7692  0.0242 -0.2756
 7346TIP3    H243454   4.109   0.126   0.174  1.4965  0.1720 -1.2517
 7347TIP3   OH243455   6.540   1.013   1.967 -0.7950  0.5089 -0.2457
 7347TIP3    H143456   6.556   1.092   1.915  1.1288  0.5203  0.3019
 7347TIP3    H243457   6.545   0.941   1.904 -0.3876  0.6628 -0.3871
 7348TIP3   OH243458   4.663   0.621   5.406 -0.5687  0.1949  0.2229
 7348TIP3    H143459   4.699   0.701   5.367  1.3947 -1.0639 -0.7101
 7348TIP3    H243460   4.651   0.643   5.498  1.5546  1.0991  0.3482
 7349TIP3   OH243461   1.582   5.252  14.662  0.2589 -0.7735  0.9470
 7349TIP3    H143462   1.649   5.188  14.685  1.3834 -0.3312 -0.8760
 7349TIP3    H243463   1.572   5.305  14.742  1.8913 -1.0204  1.3684
 7350TIP3   OH243464   3.166   6.112   4.629 -0.0776 -0.0385 -0.0894
 7350TIP3    H143465   3.256   6.084   4.643  0.0451 -0.0481 -0.8543
 7350TIP3    H243466   3.151   6.100   4.535 -1.1032 -0.7188  0.1424
 7351TIP3   OH243467   6.676   2.792   5.806 -0.3393 -0.2407  0.2225
 7351TIP3    H143468   6.715   2.749   5.882  3.4567  2.2388 -0.0574
 7351TIP3    H243469   6.731   2.766   5.733 -1.5182  0.5543 -0.9928
 7352TIP3   OH243470   5.342   3.462   5.055 -0.3308 -0.0969  0.6809
 7352TIP3    H143471   5.356   3.403   4.980 -0.4629  0.2419  0.3879
 7352TIP3    H243472   5.282   3.528   5.022 -1.8764 -0.9671  1.6397
 7353TIP3   OH243473   4.061   0.361  13.526 -0.8682 -0.5975  0.2325
 7353TIP3    H143474   4.120   0.434  13.506  0.5281 -1.4094  1.2281
 7353TIP3    H243475   3.988   0.372  13.465 -0.1949  1.0312 -0.3366
 7354TIP3   OH243476   3.813   5.630   2.494 -0.0598 -0.7431 -0.7429
 7354TIP3    H143477   3.782   5.542   2.473 -0.9132 -0.6312  0.0080
 7354TIP3    H243478   3.868   5.655   2.420 -2.6844 -0.4602 -2.7338
 7355TIP3   OH243479   6.597   4.623   3.658  0.2974 -0.4594  0.4843
 7355TIP3    H143480   6.539   4.548   3.645  0.2541 -0.2420 -0.6735
 7355TIP3    H243481   6.647   4.630   3.577 -1.7877  2.5478 -0.7166
 7356TIP3   OH243482   2.710   3.329   0.128 -0.2476  0.1562  0.8782
 7356TIP3    H143483   2.801   3.352   0.146 -0.5393  0.4692  2.0342
 7356TIP3    H243484   2.713   3.236   0.105  0.4676  0.3952 -0.0975
 7357TIP3   OH243485   4.171   2.760   4.980 -0.1275  0.1732 -0.1715
 7357TIP3    H143486   4.171   2.720   5.067  1.3214 -2.0465 -1.1039
 7357TIP3    H243487   4.078   2.776   4.961 -0.7633 -2.2961  0.5193
 7358TIP3   OH243488   3.660   3.631  17.128  0.0004  0.1693 -0.2872
 7358TIP3    H143489   3.614   3.550  17.152 -1.0009  0.7691 -0.1566
 7358TIP3    H243490   3.679   3.620  17.034 -2.5299  0.8872 -0.9618
 7359TIP3   OH243491   5.327   2.519  13.719  0.1703  0.1545 -0.3534
 7359TIP3    H143492   5.256   2.480  13.770 -0.2561 -0.5459 -1.4455
 7359TIP3    H243493   5.352   2.451  13.657  0.2141  1.2017 -1.5318
 7360TIP3   OH243494   2.879   5.636   1.224  0.2109  0.4606 -0.3320
 7360TIP3    H143495   2.885   5.561   1.164 -0.0975 -0.1614  0.3857
 7360TIP3    H243496   2.812   5.693   1.185 -0.9041 -0.5448  0.0363
 7361TIP3   OH243497   4.187   1.391   6.162 -0.0080  0.0168 -0.7796
 7361TIP3    H143498   4.109   1.344   6.134 -0.1100  0.4663 -1.2669
 7361TIP3    H243499   4.257   1.355   6.107 -0.0110  0.1370 -0.8624
 7362TIP3   OH243500   0.334   0.564  10.092 -0.2365 -0.8027 -0.2954
 7362TIP3    H143501   0.365   0.654  10.082 -0.4454 -0.7395 -0.3911
 7362TIP3    H243502   0.328   0.550  10.186 -2.8590  0.2237 -0.2206
 7363TIP3   OH243503   5.627   4.575   1.379 -0.2829 -0.1258 -0.6640
 7363TIP3    H143504   5.640   4.666   1.404  1.2415  0.2409 -2.6067
 7363TIP3    H243505   5.688   4.560   1.307 -0.2510 -2.7847 -0.1998
 7364TIP3   OH243506   1.679   3.579   4.262  0.1221 -0.1387 -0.3744
 7364TIP3    H143507   1.753   3.637   4.274  0.5189  0.0120 -2.8684
 7364TIP3    H243508   1.602   3.635   4.271  0.4077  0.2383 -0.2876
 7365TIP3   OH243509   4.158   3.919  15.192 -0.0477  0.0208  0.6414
 7365TIP3    H143510   4.136   3.861  15.119  0.6900 -1.1279  1.3034
 7365TIP3    H243511   4.074   3.936  15.235 -0.2191 -0.9463  0.7104
 7366TIP3   OH243512   4.602   5.359  14.550  0.4468  0.4073 -0.1927
 7366TIP3    H143513   4.530   5.321  14.600  1.2774  0.0662  0.7849
 7366TIP3    H243514   4.579   5.343  14.458  0.4867 -2.0165  0.1380
 7367TIP3   OH243515   5.398   2.210   2.866 -0.6600 -0.3672 -0.2143
 7367TIP3    H143516   5.447   2.164   2.798 -2.2829 -2.1537 -0.2533
 7367TIP3    H243517   5.432   2.300   2.864 -2.0422  0.2872 -4.8641
 7368TIP3   OH243518   3.894   2.523   5.286  0.1658  0.5852 -0.8518
 7368TIP3    H143519   3.834   2.550   5.216 -0.0006  0.5791 -0.7133
 7368TIP3    H243520   3.878   2.586   5.356 -0.6052 -0.1655 -0.3188
 7369TIP3   OH243521   2.808   5.205   5.127 -0.1663 -0.2192 -0.0858
 7369TIP3    H143522   2.805   5.111   5.112 -1.1027 -0.0825 -0.8513
 7369TIP3    H243523   2.853   5.215   5.211 -1.1426 -1.4095  0.5974
 7370TIP3   OH243524   2.293   0.110   4.207  0.0459 -0.2915  0.0606
 7370TIP3    H143525   2.225   0.092   4.142  1.8703 -0.3246 -1.9733
 7370TIP3    H243526   2.300   0.029   4.258 -2.4012  0.2145  1.3730
 7371TIP3   OH243527   5.677   0.596   1.665 -0.2078  0.4217  0.0770
 7371TIP3    H143528   5.671   0.520   1.608 -0.7146  2.2870 -2.5682
 7371TIP3    H243529   5.732   0.568   1.739 -0.4621 -2.4586 -0.7382
 7372TIP3   OH243530   1.893   6.280   0.108  0.4629  0.7798 -0.1568
 7372TIP3    H143531   1.897   6.298   0.202  0.7602  0.3818 -0.0893
 7372TIP3    H243532   1.916   6.187   0.100 -2.0061  0.1285 -0.4057
 7373TIP3   OH243533   3.461   0.200  16.686 -0.5383 -0.3891  0.0945
 7373TIP3    H143534   3.365   0.199  16.681 -0.5069 -1.6423 -0.8950
 7373TIP3    H243535   3.486   0.107  16.684  0.6856 -0.0969  0.7257
 7374TIP3   OH243536   3.980   5.879  15.047 -0.2646 -0.2418 -0.1110
 7374TIP3    H143537   3.927   5.811  15.005  0.4223 -0.1323 -1.2007
 7374TIP3    H243538   3.918   5.946  15.074 -0.9074 -1.1091  0.6043
 7375TIP3   OH243539   3.863   1.982   2.461 -0.2044  0.8684  0.1329
 7375TIP3    H143540   3.847   2.044   2.390 -0.7403  0.5025 -0.0736
 7375TIP3    H243541   3.820   1.901   2.432  0.8715  0.2565  0.1850
 7376TIP3   OH243542   2.510   0.887   3.973 -0.1391  0.1589 -0.0458
 7376TIP3    H143543   2.519   0.810   3.917  2.9099 -0.2817  0.8597
 7376TIP3    H243544   2.417   0.892   3.993 -0.9054 -1.3589 -2.7384
 7377TIP3   OH243545   2.578   3.392  15.347 -0.0788 -0.1917 -0.0831
 7377TIP3    H143546   2.634   3.380  15.270  0.7316  0.8092  0.3310
 7377TIP3    H243547   2.573   3.486  15.359 -0.1346 -0.3353  1.1405
 7378TIP3   OH243548   2.224   2.155  11.723 -0.2405  0.2807 -0.4246
 7378TIP3    H143549   2.315   2.162  11.697 -0.4904  1.8626 -0.9847
 7378TIP3    H243550   2.182   2.234  11.687 -2.1424 -1.1200 -1.4905
 7379TIP3   OH243551   0.679   6.156   0.876  0.3283 -0.1673 -0.0309
 7379TIP3    H143552   0.762   6.137   0.832  1.9273  1.4325  2.0389
 7379TIP3    H243553   0.637   6.222   0.821 -0.2907 -1.9246 -1.7836
 7380TIP3   OH243554   3.606   3.196  13.901 -0.1448  0.8262 -0.1017
 7380TIP3    H143555   3.563   3.227  13.821 -0.7172  1.4682  0.4490
 7380TIP3    H243556   3.628   3.104  13.882 -3.6281 -0.2262  0.3137
 7381TIP3   OH243557   4.272   3.262   0.226  1.0726 -0.1066 -0.4328
 7381TIP3    H143558   4.310   3.346   0.201  0.6190  0.0995 -0.4392
 7381TIP3    H243559   4.347   3.204   0.238  1.3477 -0.3322 -2.6730
 7382TIP3   OH243560   1.258   5.174   0.072  0.1119  0.6634 -0.4118
 7382TIP3    H143561   1.252   5.101   0.010  1.0920 -0.8569  1.1995
 7382TIP3    H243562   1.169   5.182   0.108  0.1569 -0.2519 -0.0666
 7383TIP3   OH243563   3.086   2.570  13.519 -0.4670  0.4371 -0.0135
 7383TIP3    H143564   3.047   2.484  13.533 -1.0936  0.5021 -1.2231
 7383TIP3    H243565   3.014   2.632  13.535 -0.1951  0.7076  0.1892
 7384TIP3   OH243566   5.367   0.308  12.551 -0.5362 -0.3601  0.2768
 7384TIP3    H143567   5.394   0.228  12.507 -0.5743 -0.1399 -0.1538
 7384TIP3    H243568   5.445   0.363  12.554 -1.1217  0.7118 -1.9238
 7385TIP3   OH243569   5.256   4.056   1.396  0.0333  0.4553 -0.3613
 7385TIP3    H143570   5.347   4.075   1.376  0.1974  1.4170  1.0986
 7385TIP3    H243571   5.207   4.129   1.358  0.4111  2.6761  2.9739
 7386TIP3   OH243572   3.795   6.011  13.587 -0.2085  0.1843 -0.3423
 7386TIP3    H143573   3.890   6.006  13.582 -0.1886 -1.0002  0.8268
 7386TIP3    H243574   3.764   5.930  13.547 -0.6588 -0.1879  0.7328
 7387TIP3   OH243575   3.334   3.074   4.049  0.2545 -0.3589  0.2919
 7387TIP3    H143576   3.287   2.999   4.085 -1.0127 -0.0816 -0.7161
 7387TIP3    H243577   3.327   3.064   3.954 -0.4440  1.3050  0.1231
 7388TIP3   OH243578   6.498   0.509   4.216 -0.1111 -0.3040 -0.7256
 7388TIP3    H143579   6.441   0.532   4.143 -0.7925 -0.8301 -0.3741
 7388TIP3    H243580   6.450   0.537   4.294  0.3430 -0.2768 -0.4538
 7389TIP3   OH243581   6.741   5.915  11.650 -0.0017  0.1659 -0.1492
 7389TIP3    H143582   6.758   5.848  11.584 -1.7810  2.1619 -2.8594
 7389TIP3    H243583   6.823   5.964  11.656  0.4441 -0.5653 -0.2385
 7390TIP3   OH243584   5.107   2.564   1.497  1.0179 -0.4113 -0.0881
 7390TIP3    H143585   5.063   2.485   1.465 -2.8352  0.7256  1.7699
 7390TIP3    H243586   5.132   2.612   1.418 -0.1959 -1.6741 -1.2882
 7391TIP3   OH243587   4.109   5.234   1.136 -0.0043 -0.3090 -0.4704
 7391TIP3    H143588   4.137   5.326   1.138  2.2312 -0.9413  0.8429
 7391TIP3    H243589   4.097   5.210   1.228 -0.2987 -1.4116 -0.7806
 7392TIP3   OH243590   2.783   5.659   5.060  0.0863  0.2302 -0.1445
 7392TIP3    H143591   2.825   5.599   4.999  3.2412 -0.6359  2.5512
 7392TIP3    H243592   2.794   5.746   5.020 -0.1347 -0.4856 -1.8482
 7393TIP3   OH243593   2.198   1.694   6.273  0.0019 -0.0297  0.3126
 7393TIP3    H143594   2.258   1.736   6.334  2.7137 -0.4679 -1.8940
 7393TIP3    H243595   2.200   1.601   6.296  0.1855 -0.0524  0.1989
 7394TIP3   OH243596   3.968   1.077   5.845 -0.0793 -0.0205 -0.4115
 7394TIP3    H143597   3.924   1.042   5.922 -0.1385  0.8780 -0.0236
 7394TIP3    H243598   3.912   1.149   5.816  0.3615  0.1711 -0.8020
 7395TIP3   OH243599   3.782   2.231   3.889 -0.1347 -0.4918 -0.5799
 7395TIP3    H143600   3.854   2.222   3.826  0.1495  1.7901 -0.6643
 7395TIP3    H243601   3.739   2.313   3.863 -1.3871 -0.6709  0.8471
 7396TIP3   OH243602   5.277   1.766  16.312  1.0890 -0.3944  0.1603
 7396TIP3    H143603   5.211   1.780  16.243  1.4487 -1.0629 -0.3333
 7396TIP3    H243604   5.256   1.680  16.348  1.7385 -0.6445 -0.0503
 7397TIP3   OH243605   5.142   1.576  11.056 -0.4686  0.4207  0.2177
 7397TIP3    H143606   5.063   1.626  11.038 -1.3486 -1.3949 -1.2714
 7397TIP3    H243607   5.207   1.610  10.994 -0.9031  0.1154 -0.4168
 7398TIP3   OH243608   0.726   5.697  12.786 -0.0496  0.1632  0.0963
 7398TIP3    H143609   0.818   5.677  12.771 -0.5262 -2.0399 -0.2374
 7398TIP3    H243610   0.696   5.629  12.846 -1.2197  1.4917  1.0771
 7399TIP3   OH243611   6.543   5.777  13.710 -0.1616 -0.3164 -0.6722
 7399TIP3    H143612   6.483   5.789  13.636 -0.8373 -1.3925 -0.3301
 7399TIP3    H243613   6.630   5.793  13.674 -0.6809  2.7177 -0.8577
 7400TIP3   OH243614   0.302   3.413   0.847 -0.3347 -0.2014  0.5331
 7400TIP3    H143615   0.339   3.417   0.758  2.8230  0.9572  1.7450
 7400TIP3    H243616   0.350   3.342   0.890 -1.7391 -0.6724  1.3963
 7401TIP3   OH243617   5.321   2.496  15.326 -0.1878 -0.8921  0.7779
 7401TIP3    H143618   5.368   2.555  15.385 -1.3558 -0.0526  0.8934
 7401TIP3    H243619   5.388   2.433  15.297  1.5533  1.4541 -0.6593
 7402TIP3   OH243620   1.599   2.704   3.313  0.3039  0.0857  0.2126
 7402TIP3    H143621   1.507   2.702   3.285  0.6538  1.6699 -1.1943
 7402TIP3    H243622   1.601   2.768   3.383  0.7864  2.5366 -1.8899
 7403TIP3   OH243623   5.472   5.885   0.431  0.1689  0.3792 -0.1488
 7403TIP3    H143624   5.483   5.846   0.518  0.5343  0.3398 -0.2101
 7403TIP3    H243625   5.508   5.820   0.371 -0.1214  0.3879 -0.3363
 7404TIP3   OH243626   3.609   0.683  14.187  0.1863  0.1376 -0.0768
 7404TIP3    H143627   3.639   0.608  14.239  0.3098  0.0254 -0.3073
 7404TIP3    H243628   3.668   0.754  14.211  0.4686 -0.0078 -0.3200
 7405TIP3   OH243629   5.128   5.633  17.085  0.0553 -0.6163 -0.4397
 7405TIP3    H143630   5.121   5.728  17.088 -2.7867 -0.7802  0.8868
 7405TIP3    H243631   5.071   5.607  17.012  0.9967 -1.3128 -0.9486
 7406TIP3   OH243632   4.319   5.078   2.423  0.1315 -0.3224 -0.0494
 7406TIP3    H143633   4.244   5.039   2.378 -1.3060 -1.0409  2.7407
 7406TIP3    H243634   4.392   5.020   2.403 -1.0850 -2.2064  0.7804
 7407TIP3   OH243635   0.164   4.813  16.578  0.1741 -0.0792 -0.2319
 7407TIP3    H143636   0.196   4.797  16.667  0.5363  1.4037 -0.0850
 7407TIP3    H243637   0.239   4.848  16.531 -0.4724  0.8084 -0.6353
 7408TIP3   OH243638   1.497   3.980   5.606  0.4907 -0.0256  0.3036
 7408TIP3    H143639   1.404   3.957   5.594  0.8994 -2.7536  1.4781
 7408TIP3    H243640   1.503   4.008   5.698  0.9462 -0.8824  0.5532
 7409TIP3   OH243641   1.486   1.736   1.280  0.1896  0.6191  0.0908
 7409TIP3    H143642   1.563   1.739   1.223  1.3645 -0.9355  1.5167
 7409TIP3    H243643   1.517   1.696   1.361 -1.4078  2.8206  1.9062
 7410TIP3   OH243644   4.813   6.348  12.724 -0.2695  0.1267  0.2285
 7410TIP3    H143645   4.730   6.303  12.740 -0.0922 -0.2648  0.0726
 7410TIP3    H243646   4.796   6.439  12.747 -0.9980  0.2252 -0.6551
 7411TIP3   OH243647   4.275   4.719  10.233 -0.2025 -0.6785 -0.0808
 7411TIP3    H143648   4.196   4.697  10.281 -0.7983  1.0245 -0.2132
 7411TIP3    H243649   4.245   4.776  10.162  1.1481  0.2051  0.0149
 7412TIP3   OH243650   1.920   6.219  15.017  0.6139  0.1247 -0.0436
 7412TIP3    H143651   1.977   6.274  14.962  0.5765 -0.9860 -1.2405
 7412TIP3    H243652   1.901   6.143  14.963 -2.3237  0.5999  0.1880
 7413TIP3   OH243653   5.320   5.640  10.657 -0.0280  0.6442  0.4227
 7413TIP3    H143654   5.402   5.596  10.633  0.3253 -0.3198  3.0422
 7413TIP3    H243655   5.255   5.604  10.597  1.2308  0.5741 -0.9622
 7414TIP3   OH243656   3.155   4.092   2.813  0.1610 -0.8120  0.0532
 7414TIP3    H143657   3.156   4.038   2.734  0.0978  0.7403 -1.0579
 7414TIP3    H243658   3.208   4.169   2.791 -2.3832  1.1758  0.3558
 7415TIP3   OH243659   5.206   2.367   5.420 -0.4983 -0.4089 -0.0143
 7415TIP3    H143660   5.273   2.321   5.370  0.4521 -0.2102  1.0405
 7415TIP3    H243661   5.210   2.328   5.507 -0.3579  0.9918  0.6305
 7416TIP3   OH243662   0.423   0.246  16.560  0.3459 -0.0247  0.0136
 7416TIP3    H143663   0.481   0.211  16.627  0.6324  0.7383  0.1711
 7416TIP3    H243664   0.401   0.171  16.505  0.2953 -0.6082  0.8190
 7417TIP3   OH243665   1.844   0.982   5.749  0.2975  0.2162 -0.1545
 7417TIP3    H143666   1.801   1.028   5.821  0.0270 -0.0643 -0.1344
 7417TIP3    H243667   1.838   0.890   5.773 -1.0131  0.0032 -1.1839
 7418TIP3   OH243668   1.103   6.110  12.141 -0.4842 -0.3637 -0.1984
 7418TIP3    H143669   1.095   6.015  12.132 -0.3693 -0.4091  0.1825
 7418TIP3    H243670   1.193   6.124  12.171 -0.5756 -0.1488 -0.0244
 7419TIP3   OH243671   6.590   5.444   4.209 -0.0304  0.4732  0.0654
 7419TIP3    H143672   6.529   5.406   4.146 -1.2452  0.7085  1.0495
 7419TIP3    H243673   6.655   5.376   4.225 -1.2999 -0.6362  0.6532
 7420TIP3   OH243674   3.747   4.266   5.916  0.3399  0.2577 -0.8280
 7420TIP3    H143675   3.737   4.211   5.839 -0.8398 -1.0280  0.1974
 7420TIP3    H243676   3.796   4.213   5.978 -1.0135  0.2328  0.2687
 7421TIP3   OH243677   2.618   2.572  14.301  0.2297  0.3284 -0.1157
 7421TIP3    H143678   2.552   2.545  14.365 -0.4029  0.4142 -0.7230
 7421TIP3    H243679   2.632   2.665  14.321 -1.7010  1.0039 -1.5503
 7422TIP3   OH243680   3.585   3.598   4.954 -0.1336 -0.1978  0.4180
 7422TIP3    H143681   3.591   3.506   4.981 -1.1810 -0.0462  1.2177
 7422TIP3    H243682   3.596   3.648   5.035 -3.2576  0.2660  0.6869
 7423TIP3   OH243683   3.784   6.642  15.406 -0.0092  0.2783 -0.0058
 7423TIP3    H143684   3.819   6.647  15.317 -0.0057 -0.1294 -0.0271
 7423TIP3    H243685   3.731   6.721  15.415  0.4779  0.6335 -0.1578
 7424TIP3   OH243686   0.565   2.460   2.952 -0.5972 -0.1024  0.2780
 7424TIP3    H143687   0.658   2.438   2.946 -0.4710  0.4493  0.1338
 7424TIP3    H243688   0.550   2.517   2.877 -0.5500  1.5701  1.4949
 7425TIP3   OH243689   3.226   0.489   5.414 -0.0864 -0.4155 -0.4641
 7425TIP3    H143690   3.150   0.463   5.466  0.3933 -1.3791 -0.2169
 7425TIP3    H243691   3.206   0.457   5.326  0.4985 -1.6478 -0.1623
 7426TIP3   OH243692   3.721   3.848   6.133 -0.5953  0.1895  0.4932
 7426TIP3    H143693   3.790   3.886   6.187  1.5072 -1.4636 -0.8662
 7426TIP3    H243694   3.668   3.798   6.195  0.5745 -0.0501  1.3418
 7427TIP3   OH243695   6.604   0.626  16.787  0.2801  0.2236  0.2623
 7427TIP3    H143696   6.510   0.642  16.778  0.3529  1.0363  0.8750
 7427TIP3    H243697   6.610   0.543  16.835 -0.1254  0.3731  0.5688
 7428TIP3   OH243698   6.537   1.573   4.930 -0.0064  0.5249  0.5514
 7428TIP3    H143699   6.582   1.556   5.012 -1.6462 -2.2009  1.0143
 7428TIP3    H243700   6.450   1.603   4.956 -0.1054  0.9250 -0.2135
 7429TIP3   OH243701   1.224   3.126   3.469 -0.7744 -0.0393  0.1596
 7429TIP3    H143702   1.307   3.110   3.513 -0.9456 -1.5555 -0.0179
 7429TIP3    H243703   1.172   3.176   3.532  0.3845  1.2439  0.1264
 7430TIP3   OH243704   0.437   3.805  16.465  0.3744  0.4680 -0.6243
 7430TIP3    H143705   0.361   3.831  16.412 -0.9155  1.3619  1.5399
 7430TIP3    H243706   0.405   3.730  16.516  1.4529 -0.0901 -0.7339
 7431TIP3   OH243707   6.041   2.172  15.102  0.2881 -0.3635 -0.3982
 7431TIP3    H143708   6.132   2.143  15.112 -0.2509 -1.6021  1.5752
 7431TIP3    H243709   6.030   2.238  15.171 -0.1205  0.3176 -1.1068
 7432TIP3   OH243710   1.407   2.383   0.211 -0.0870  0.0244 -0.0460
 7432TIP3    H143711   1.413   2.316   0.279 -0.1677  0.0939  0.0294
 7432TIP3    H243712   1.365   2.339   0.137 -1.3723  0.3574  0.4670
 7433TIP3   OH243713   5.626   6.486  12.391 -0.3396 -0.2465 -0.0533
 7433TIP3    H143714   5.598   6.468  12.482  2.0187 -0.9945  0.5863
 7433TIP3    H243715   5.618   6.401  12.347 -0.8240 -0.0334 -0.3909
 7434TIP3   OH243716   1.315   2.026   6.187  0.3100  0.2577  1.0126
 7434TIP3    H143717   1.221   2.038   6.197 -0.2362 -2.7423  0.2494
 7434TIP3    H243718   1.343   1.987   6.270  1.2044  2.3586  1.7692
 7435TIP3   OH243719   6.563   2.165   4.977  0.0150  0.6506  0.4813
 7435TIP3    H143720   6.502   2.149   5.050  0.3790  0.7840  0.8208
 7435TIP3    H243721   6.633   2.218   5.016 -0.4692  1.8984 -0.3014
 7436TIP3   OH243722   4.028   2.975  13.444  0.1358  0.1041 -0.0702
 7436TIP3    H143723   4.123   2.985  13.451  0.6201 -3.9166  3.1839
 7436TIP3    H243724   3.992   3.046  13.497  1.4699  0.4519  0.4164
 7437TIP3   OH243725   1.494   5.979  16.661  0.2875  0.2288 -0.3456
 7437TIP3    H143726   1.419   6.039  16.658  1.5422  1.9186  0.3200
 7437TIP3    H243727   1.552   6.010  16.592  0.8788 -0.3410 -0.1157
 7438TIP3   OH243728   3.763   3.248   5.787 -0.9519 -0.8363  0.0010
 7438TIP3    H143729   3.846   3.276   5.748 -1.3389 -0.2913 -0.4465
 7438TIP3    H243730   3.788   3.180   5.850 -0.0358  0.2447  0.8298
 7439TIP3   OH243731   1.000   3.320  12.381 -0.5237 -0.0440 -0.0289
 7439TIP3    H143732   0.969   3.242  12.427 -0.4213 -0.0368  0.0545
 7439TIP3    H243733   0.973   3.393  12.437  0.0999 -0.0684  0.3102
 7440TIP3   OH243734   6.297   3.163  11.998 -0.3810  0.5440 -0.1382
 7440TIP3    H143735   6.300   3.258  11.984 -0.7979  0.3869 -1.4078
 7440TIP3    H243736   6.308   3.125  11.910  0.9732 -0.6121  0.4881
 7441TIP3   OH243737   6.634   3.999   4.789  0.2607 -0.6023 -0.8756
 7441TIP3    H143738   6.689   3.969   4.861 -0.8809 -0.3244  0.1505
 7441TIP3    H243739   6.554   4.032   4.831  0.7072  2.2732 -2.0359
 7442TIP3   OH243740   6.694   6.073  12.176  0.6018  0.4845  0.1833
 7442TIP3    H143741   6.683   6.152  12.123 -0.2922  0.8679  0.9081
 7442TIP3    H243742   6.755   6.019  12.126 -0.2049  0.8337 -1.2459
 7443TIP3   OH243743   2.109   0.730  11.465  0.1859  0.4160 -0.1761
 7443TIP3    H143744   2.077   0.648  11.503  1.0363  0.7965  1.4098
 7443TIP3    H243745   2.188   0.704  11.417  0.6167  0.3359  0.5624
 7444TIP3   OH243746   4.369   4.411   3.246 -0.1754 -0.1665 -0.3432
 7444TIP3    H143747   4.335   4.379   3.330  0.1069  1.3403  0.3839
 7444TIP3    H243748   4.357   4.338   3.186 -0.8259 -1.1222  0.8946
 7445TIP3   OH243749   5.303   3.987  13.807 -0.5344 -0.7817  0.4254
 7445TIP3    H143750   5.223   3.968  13.758  0.8770  0.4526 -2.6271
 7445TIP3    H243751   5.282   4.064  13.859 -1.1220  0.1722 -1.1371
 7446TIP3   OH243752   4.107   0.164  16.756 -0.5956 -0.0727 -0.4026
 7446TIP3    H143753   4.064   0.205  16.831 -0.9836 -0.6038 -0.3246
 7446TIP3    H243754   4.077   0.215  16.681 -1.4856 -0.5183 -0.3624
 7447TIP3   OH243755   5.853   5.385   4.910 -0.7184 -0.4697  0.0797
 7447TIP3    H143756   5.795   5.378   4.986 -0.4006  1.9130  0.6387
 7447TIP3    H243757   5.794   5.390   4.835 -1.1283 -0.7541  0.3801
 7448TIP3   OH243758   6.490   4.592   0.636  0.3205  0.3116 -0.2935
 7448TIP3    H143759   6.562   4.578   0.697 -0.3589  0.5272  0.5808
 7448TIP3    H243760   6.419   4.626   0.690 -0.2740  0.5913 -1.2245
 7449TIP3   OH243761   0.185   1.176   1.054  0.7665  0.0899 -0.2322
 7449TIP3    H143762   0.231   1.096   1.078  0.0920 -0.0345  0.7096
 7449TIP3    H243763   0.092   1.156   1.067  0.6009  1.0708  0.1927
 7450TIP3   OH243764   2.002   2.215  16.637  0.7647 -0.8677 -0.4769
 7450TIP3    H143765   1.907   2.230  16.641  1.0088  0.6343  0.7643
 7450TIP3    H243766   2.015   2.132  16.682  0.1564 -0.3307  0.7443
 7451TIP3   OH243767   2.083   0.358  11.413 -0.1387 -0.3094 -0.0283
 7451TIP3    H143768   2.179   0.356  11.415 -0.1415  0.0137  0.6557
 7451TIP3    H243769   2.059   0.283  11.359  0.4985 -0.4796 -0.0832
 7452TIP3   OH243770   3.083   0.344   6.674  0.4498  0.1775  0.3882
 7452TIP3    H143771   3.156   0.398   6.644 -0.1489  1.3163  0.9158
 7452TIP3    H243772   3.123   0.270   6.720  1.2531  1.0355  1.0777
 7453TIP3   OH243773   0.124   3.283  12.268  0.6205  0.2453 -0.2184
 7453TIP3    H143774   0.099   3.305  12.178 -1.0548  0.4634  0.2615
 7453TIP3    H243775   0.196   3.343  12.289 -0.0154  1.2704 -0.8953
 7454TIP3   OH243776   6.252   2.610   4.631  0.4864 -0.8242 -0.0012
 7454TIP3    H143777   6.338   2.569   4.618  0.7994 -0.1887  0.0247
 7454TIP3    H243778   6.189   2.540   4.616  0.8435 -0.5505 -3.4279
 7455TIP3   OH243779   4.849   2.244   6.759 -0.0773 -0.4812  0.3997
 7455TIP3    H143780   4.923   2.299   6.731 -0.9970 -0.2377 -1.6778
 7455TIP3    H243781   4.798   2.302   6.816 -2.4790  2.0388 -3.7835
 7456TIP3   OH243782   4.564   5.679   3.196  0.0128  0.1246  0.3735
 7456TIP3    H143783   4.601   5.701   3.110 -3.5310 -0.0405 -1.3883
 7456TIP3    H243784   4.546   5.764   3.236  0.4545  0.2195  0.3784
 7457TIP3   OH243785   3.339   1.299   2.762 -0.4001  0.1393 -0.3868
 7457TIP3    H143786   3.285   1.356   2.706 -0.0313  1.1194  0.2295
 7457TIP3    H243787   3.277   1.264   2.826 -0.1000  2.5175  1.3109
 7458TIP3   OH243788   0.413   0.930   4.417  1.1303 -0.0094  0.1912
 7458TIP3    H143789   0.326   0.891   4.409  0.9151  0.6045 -0.5560
 7458TIP3    H243790   0.450   0.924   4.329  1.9290 -0.4616  0.5552
 7459TIP3   OH243791   2.382   6.441  11.496 -0.3684 -0.3501  0.4885
 7459TIP3    H143792   2.315   6.427  11.429  1.9439 -1.5293 -1.7321
 7459TIP3    H243793   2.388   6.358  11.542 -0.2484 -0.3367  0.4987
 7460TIP3   OH243794   6.145   3.463  16.618 -0.2335 -0.7401  0.1010
 7460TIP3    H143795   6.184   3.548  16.638 -1.8570  0.1338 -0.2753
 7460TIP3    H243796   6.162   3.449  16.525 -2.1440  0.4175 -0.4686
 7461TIP3   OH243797   4.120   3.695   3.041  0.2355  0.4825 -0.8602
 7461TIP3    H143798   4.200   3.747   3.038  1.1864 -0.6953  1.5782
 7461TIP3    H243799   4.082   3.715   3.127  1.6697 -4.0765  1.1412
 7462TIP3   OH243800   0.578   2.626   0.213  0.0278 -0.4289  0.9357
 7462TIP3    H143801   0.533   2.550   0.177  0.3535  0.1608 -0.8248
 7462TIP3    H243802   0.519   2.660   0.279 -1.2764 -0.7595 -0.0250
 7463TIP3   OH243803   2.825   6.311   3.078  0.5914 -0.0629 -0.4052
 7463TIP3    H143804   2.776   6.288   2.999 -0.3106  0.3852  0.0168
 7463TIP3    H243805   2.861   6.228   3.109  0.6487 -0.2962 -1.0819
 7464TIP3   OH243806   3.734   4.812   5.244 -0.0961 -0.0467  0.0371
 7464TIP3    H143807   3.779   4.752   5.184 -1.5211 -0.9664 -0.1675
 7464TIP3    H243808   3.737   4.769   5.329 -0.9916 -0.3787 -0.0794
 7465TIP3   OH243809   0.242   4.857  13.776 -0.3123 -0.1607 -0.3636
 7465TIP3    H143810   0.238   4.933  13.835 -0.6886  0.1223 -0.7456
 7465TIP3    H243811   0.196   4.788  13.823 -1.1936  0.2560 -0.6022
 7466TIP3   OH243812   2.668   2.921  15.474 -0.1295  0.1179  0.4515
 7466TIP3    H143813   2.633   3.010  15.483  2.1737  1.0604  0.6049
 7466TIP3    H243814   2.680   2.909  15.380 -0.9150 -0.2611  0.3875
 7467TIP3   OH243815   3.345   5.683   1.615 -0.5389 -0.5247 -0.1701
 7467TIP3    H143816   3.360   5.676   1.521  1.0642 -1.4519  0.1154
 7467TIP3    H243817   3.332   5.592   1.644  0.6839 -0.4390  0.7257
 7468TIP3   OH243818   0.766   4.493  12.067 -0.2277  0.0768  0.3138
 7468TIP3    H143819   0.776   4.399  12.052  0.5139  0.0682  0.8280
 7468TIP3    H243820   0.855   4.524  12.086  0.0191  1.3860 -2.5636
 7469TIP3   OH243821   1.231   6.187  11.630  0.5846 -0.5365 -0.3780
 7469TIP3    H143822   1.136   6.182  11.642  0.4281 -0.9744 -1.6625
 7469TIP3    H243823   1.243   6.250  11.559  1.0292 -2.6828 -2.3258
 7470TIP3   OH243824   2.087   4.401   1.408  0.6767  0.5950 -0.5499
 7470TIP3    H143825   2.162   4.413   1.349  0.8769 -0.2077 -0.4636
 7470TIP3    H243826   2.085   4.482   1.460  2.0782  0.2300  0.1147
 7471TIP3   OH243827   3.252   6.575   6.387 -0.0744  0.0392  0.5097
 7471TIP3    H143828   3.310   6.500   6.398  0.0204 -0.6265 -3.1097
 7471TIP3    H243829   3.165   6.537   6.375 -0.5399  0.7398  1.5225
 7472TIP3   OH243830   6.247   3.678   1.424  0.3806  0.0594 -0.5373
 7472TIP3    H143831   6.241   3.607   1.360  0.1978 -0.8849  0.4919
 7472TIP3    H243832   6.327   3.725   1.399  0.1853 -0.1409 -1.5922
 7473TIP3   OH243833   1.328   1.456  11.821 -0.4508  0.4840  0.3179
 7473TIP3    H143834   1.333   1.461  11.725  1.1692 -0.2579  0.3377
 7473TIP3    H243835   1.328   1.547  11.849 -1.7238  0.7302 -0.4012
 7474TIP3   OH243836   6.752   5.565   3.915  0.0826 -0.6810  0.1785
 7474TIP3    H143837   6.783   5.582   4.004  0.0109  0.2473  0.0367
 7474TIP3    H243838   6.657   5.561   3.923  0.0756 -0.5830  0.1370
 7475TIP3   OH243839   4.167   3.316   0.740 -0.4147  0.2515 -0.1264
 7475TIP3    H143840   4.143   3.286   0.652 -1.5705 -2.9676  1.1245
 7475TIP3    H243841   4.256   3.349   0.730 -1.4238  2.6259 -2.9381
 7476TIP3   OH243842   5.749   0.073  12.235  0.6395 -0.2236 -0.1777
 7476TIP3    H143843   5.789   0.158  12.215  0.5107 -0.4426 -1.4951
 7476TIP3    H243844   5.684   0.092  12.303  0.6362  0.7236 -0.4292
 7477TIP3   OH243845   6.402   3.382  13.097  0.3077  0.1096 -0.1802
 7477TIP3    H143846   6.317   3.418  13.074  0.4877  1.3313  0.9536
 7477TIP3    H243847   6.458   3.459  13.112  1.6775 -0.6558 -1.0992
 7478TIP3   OH243848   1.147   5.468  13.978  0.0547 -0.2027 -0.1502
 7478TIP3    H143849   1.160   5.427  14.064  1.4072  1.8449  0.7040
 7478TIP3    H243850   1.208   5.422  13.921 -0.4158 -1.1738  0.1003
 7479TIP3   OH243851   5.096   1.571   2.190  0.3666  0.3500 -0.5830
 7479TIP3    H143852   5.180   1.592   2.151 -0.0115 -1.0274 -2.2522
 7479TIP3    H243853   5.118   1.516   2.266  0.9905  0.5558 -0.6136
 7480TIP3   OH243854   0.795   5.872   5.863  0.4921 -0.1605 -0.3739
 7480TIP3    H143855   0.821   5.896   5.951 -0.1709 -1.2993  0.1639
 7480TIP3    H243856   0.812   5.778   5.858  1.0306 -0.0119 -1.6474
 7481TIP3   OH243857   0.624   5.864   1.967  0.1109 -0.6518 -0.7012
 7481TIP3    H143858   0.664   5.815   2.039  0.7112 -0.2636 -0.7626
 7481TIP3    H243859   0.565   5.926   2.010  1.0179  0.0900 -0.4799
 7482TIP3   OH243860   6.662   5.124   4.416 -0.1065 -0.4970  0.0950
 7482TIP3    H143861   6.729   5.157   4.356 -0.0812 -0.9651 -0.1440
 7482TIP3    H243862   6.692   5.150   4.503 -0.2959  0.4570 -0.1114
 7483TIP3   OH243863   3.950   2.829  11.304 -0.7797 -0.0040 -0.3107
 7483TIP3    H143864   4.031   2.820  11.353 -2.3909 -0.2171  2.5131
 7483TIP3    H243865   3.977   2.860  11.217  2.3880 -1.5766 -0.0009
 7484TIP3   OH243866   0.820   4.982   3.438  0.3142 -0.0920  0.6001
 7484TIP3    H143867   0.781   5.021   3.516  1.0078  0.7984  0.5113
 7484TIP3    H243868   0.848   5.056   3.384 -1.8061 -0.6242 -1.3932
 7485TIP3   OH243869   3.267   4.885   6.243  0.0661  0.3333 -0.0986
 7485TIP3    H143870   3.362   4.895   6.250  0.5454 -2.5480 -1.0541
 7485TIP3    H243871   3.238   4.871   6.334  0.9032 -0.9089  0.0011
 7486TIP3   OH243872   1.707   0.036  11.572 -0.3817 -0.1085  0.4312
 7486TIP3    H143873   1.725  -0.010  11.654 -1.1956 -0.2417  0.5436
 7486TIP3    H243874   1.793   0.058  11.537  0.0060 -1.3180  0.5989
 7487TIP3   OH243875   5.250   3.124  11.380  0.5682  0.4075 -1.0458
 7487TIP3    H143876   5.243   3.214  11.412  2.1423  0.6094 -1.1984
 7487TIP3    H243877   5.253   3.132  11.285  0.0225  0.1174 -1.0976
 7488TIP3   OH243878   1.711   3.932   6.308  0.8722  0.5700 -0.2277
 7488TIP3    H143879   1.655   3.928   6.230  2.2268  1.6314 -1.2980
 7488TIP3    H243880   1.769   3.857   6.299 -0.9898 -1.2054  1.4625
 7489TIP3   OH243881   5.330   4.169   3.445  0.6987 -0.1551 -0.0774
 7489TIP3    H143882   5.343   4.142   3.536 -1.8501 -1.2384  0.0498
 7489TIP3    H243883   5.343   4.089   3.394  2.7249  0.5735 -0.7869
 7490TIP3   OH243884   1.255   5.335  12.337 -0.4538  0.0870 -0.1520
 7490TIP3    H143885   1.200   5.258  12.347 -1.2320  0.4023 -1.7757
 7490TIP3    H243886   1.344   5.304  12.358 -0.9098 -0.9693  0.2672
 7491TIP3   OH243887   3.041   3.144   3.226  0.3251 -0.0668 -0.5322
 7491TIP3    H143888   2.981   3.069   3.223 -0.3901  0.4657 -0.0258
 7491TIP3    H243889   3.043   3.177   3.137  0.2092 -0.3571 -0.6450
 7492TIP3   OH243890   1.100   6.561   1.085 -0.0933 -0.6175 -0.4222
 7492TIP3    H143891   1.187   6.522   1.098 -0.0074 -0.4884 -0.6011
 7492TIP3    H243892   1.093   6.570   0.990 -0.3043 -0.6297 -0.4071
 7493TIP3   OH243893   5.377   6.439  15.622 -0.0773  0.3996  0.0738
 7493TIP3    H143894   5.391   6.519  15.673  2.3219  0.7303 -1.0045
 7493TIP3    H243895   5.464   6.413  15.593 -1.0810 -1.2461 -1.6818
 7494TIP3   OH243896   2.173   4.570  12.358  0.6703 -0.6081  0.3037
 7494TIP3    H143897   2.222   4.488  12.366 -1.4054 -1.8079  1.5070
 7494TIP3    H243898   2.190   4.599  12.269  2.1687 -1.8596  0.1323
 7495TIP3   OH243899   2.852   6.596  16.859  0.0863 -0.0415  0.2332
 7495TIP3    H143900   2.777   6.602  16.798  0.5659 -1.1492 -0.4994
 7495TIP3    H243901   2.914   6.661  16.826  0.5848 -1.0200 -0.8580
 7496TIP3   OH243902   3.322   3.324   3.155  0.1855 -0.2700  0.5513
 7496TIP3    H143903   3.257   3.262   3.122  0.2126 -0.5467  1.0080
 7496TIP3    H243904   3.377   3.343   3.080  0.3430 -1.0171  0.4710
 7497TIP3   OH243905   3.581   5.693   5.799  0.1800  0.1684 -0.1140
 7497TIP3    H143906   3.516   5.657   5.859  1.2085 -1.1865  0.2393
 7497TIP3    H243907   3.654   5.720   5.855 -0.1178  1.8987 -0.4791
 7498TIP3   OH243908   1.946   0.699   1.344 -0.0254 -0.2015 -0.6141
 7498TIP3    H143909   2.007   0.626   1.356  0.2008 -0.3176 -2.2640
 7498TIP3    H243910   1.859   0.660   1.352  0.1018 -0.4759 -0.5739
 7499TIP3   OH243911   4.423   5.644  11.522 -0.4714  0.0292  0.0353
 7499TIP3    H143912   4.403   5.725  11.475  2.6772  0.7354 -0.2549
 7499TIP3    H243913   4.404   5.575  11.458 -3.0973  0.4416  0.2530
 7500TIP3   OH243914   0.646   3.334   4.432  0.0642  0.3721 -0.3566
 7500TIP3    H143915   0.740   3.331   4.448  0.2631 -0.9967 -1.5720
 7500TIP3    H243916   0.626   3.249   4.392 -1.9540  0.0539  1.1673
 7501TIP3   OH243917   4.496   5.883   4.627  0.4604 -0.6460  0.4063
 7501TIP3    H143918   4.538   5.968   4.616  0.6708 -0.5547  1.7045
 7501TIP3    H243919   4.569   5.822   4.643  0.3297 -1.1260 -0.7535
 7502TIP3   OH243920   3.685   5.856  11.616 -0.2542 -0.6214  0.2552
 7502TIP3    H143921   3.633   5.933  11.594 -0.9321 -0.9717  0.6162
 7502TIP3    H243922   3.766   5.867  11.566 -0.4573  0.1853  0.0920
 7503TIP3   OH243923   1.899   4.512   2.857  0.0545  1.0059 -0.2694
 7503TIP3    H143924   1.846   4.485   2.783  1.3341  0.0047 -0.8526
 7503TIP3    H243925   1.850   4.482   2.934  0.8786 -2.1736 -0.8494
 7504TIP3   OH243926   6.589   4.215   1.162  1.1567 -0.3086 -0.1222
 7504TIP3    H143927   6.582   4.124   1.190 -0.9264 -0.5171 -1.1699
 7504TIP3    H243928   6.683   4.233   1.164  1.5190 -2.1129  1.1920
 7505TIP3   OH243929   2.266   2.220  12.999  0.0046 -0.1204  0.3721
 7505TIP3    H143930   2.346   2.173  12.977  1.1847  0.8642  2.3025
 7505TIP3    H243931   2.230   2.173  13.075 -0.2202  0.5259  0.6748
 7506TIP3   OH243932   4.134   0.177  16.050 -0.0134  0.2025 -0.2245
 7506TIP3    H143933   4.144   0.113  15.979  1.4444 -0.2758  0.3855
 7506TIP3    H243934   4.200   0.152  16.115 -0.2837  1.5580  0.6114
 7507TIP3   OH243935   0.143   6.061   1.403 -0.5396 -0.1501  0.4388
 7507TIP3    H143936   0.060   6.067   1.357  0.6596 -1.5315 -2.1708
 7507TIP3    H243937   0.154   5.967   1.422  0.8171 -0.1440 -0.1525
 7508TIP3   OH243938   6.469   3.471  12.784  0.0586  0.2738 -0.5244
 7508TIP3    H143939   6.530   3.402  12.757  0.3704  0.6755 -0.8568
 7508TIP3    H243940   6.501   3.499  12.870  1.2679  1.5206 -1.3304
 7509TIP3   OH243941   4.854   1.701   4.710  0.7093 -0.7821  0.2140
 7509TIP3    H143942   4.806   1.629   4.751  0.0779 -0.7210 -0.3964
 7509TIP3    H243943   4.861   1.675   4.618 -2.1399  1.2253 -0.7030
 7510TIP3   OH243944   0.652   6.313  16.986  0.0372 -0.0099  0.0450
 7510TIP3    H143945   0.677   6.286  17.074  0.5949 -0.8915 -0.3641
 7510TIP3    H243946   0.582   6.253  16.961 -0.6097  0.6893  0.1401
 7511TIP3   OH243947   6.732   5.621   4.941  0.4461 -0.1891  0.2131
 7511TIP3    H143948   6.740   5.677   5.018  0.9333 -0.7050  0.5470
 7511TIP3    H243949   6.649   5.575   4.954 -1.0844  1.9836 -1.1171
 7512TIP3   OH243950   6.335   6.391   1.111 -0.1197  0.2699  0.0330
 7512TIP3    H143951   6.315   6.475   1.069  1.0854 -0.0413 -1.2545
 7512TIP3    H243952   6.269   6.382   1.179  0.5594  2.9655  1.2115
 7513TIP3   OH243953   2.637   4.880   4.593 -0.0415 -0.2799 -0.1392
 7513TIP3    H143954   2.622   4.925   4.509  1.3410  1.2161  0.3546
 7513TIP3    H243955   2.589   4.932   4.657  0.2067 -0.4894  0.2186
 7514TIP3   OH243956   2.014   6.183  17.021  0.2286 -0.2254 -0.0567
 7514TIP3    H143957   2.001   6.096  17.060  0.7850 -1.1572 -1.8418
 7514TIP3    H243958   1.930   6.226  17.032 -0.4164 -1.4100 -0.1291
 7515TIP3   OH243959   4.047   3.313  11.974 -0.2067 -0.2039  0.0116
 7515TIP3    H143960   4.119   3.251  11.966 -0.5817 -0.4900 -1.2789
 7515TIP3    H243961   4.080   3.393  11.933  0.0809  0.3138  1.1968
 7516TIP3   OH243962   4.796   2.923  15.770  0.4738 -0.3343  0.1552
 7516TIP3    H143963   4.828   3.002  15.814 -1.4289 -0.1002  1.2279
 7516TIP3    H243964   4.823   2.852  15.828  1.0424 -0.3596 -0.1349
 7517TIP3   OH243965   6.514   5.161  16.469 -0.5219 -0.3525 -0.1822
 7517TIP3    H143966   6.496   5.172  16.376 -1.0996  1.2720  0.0971
 7517TIP3    H243967   6.557   5.243  16.495  1.1971 -1.4510  0.6358
 7518TIP3   OH243968   2.628   0.060   3.196 -0.1440 -0.3673  0.0877
 7518TIP3    H143969   2.543   0.048   3.239 -0.7761  0.5951 -0.8656
 7518TIP3    H243970   2.675  -0.022   3.214 -0.8286 -0.4604  1.5985
 7519TIP3   OH243971   3.945   2.883  16.974 -0.0625 -0.1276 -0.2899
 7519TIP3    H143972   4.034   2.920  16.976 -0.4639  1.2453 -3.2459
 7519TIP3    H243973   3.890   2.955  16.946 -1.7455 -1.6194 -0.9514
 7520TIP3   OH243974   3.750   0.967   4.887  0.2044 -0.2920  0.3970
 7520TIP3    H143975   3.753   0.979   4.982 -0.7936  1.5689  0.2234
 7520TIP3    H243976   3.687   1.032   4.856 -0.3511 -1.6296 -1.4410
 7521TIP3   OH243977   4.809   5.073  14.990  0.2464  0.4396 -0.0980
 7521TIP3    H143978   4.823   5.004  14.925  1.6837  0.2090  0.4141
 7521TIP3    H243979   4.769   5.029  15.065  0.8814  0.1982  0.1092
 7522TIP3   OH243980   1.730   4.107   4.315  0.4009  0.2915 -0.5355
 7522TIP3    H143981   1.745   4.200   4.297 -0.0754  0.7896  1.4524
 7522TIP3    H243982   1.814   4.075   4.347  0.2732  0.2927 -0.2015
 7523TIP3   OH243983   4.528   3.143  12.357  0.2376  0.2325  0.0760
 7523TIP3    H143984   4.618   3.150  12.390  0.2417  0.2014  0.0710
 7523TIP3    H243985   4.494   3.063  12.397  0.3968 -0.0580 -0.3650
 7524TIP3   OH243986   1.970   5.831   5.046 -0.2801 -0.0135 -0.1414
 7524TIP3    H143987   1.963   5.844   5.141  0.1086  1.5534 -0.2929
 7524TIP3    H243988   1.997   5.740   5.037 -0.1185 -0.1421  1.2734
 7525TIP3   OH243989   4.398   2.665  16.414 -0.6142  0.1170  0.1624
 7525TIP3    H143990   4.377   2.615  16.336 -1.1654  0.1175  0.3059
 7525TIP3    H243991   4.339   2.631  16.481  1.0329 -1.1044  1.0548
 7526TIP3   OH243992   5.912   5.359   0.258 -0.2254 -0.5275 -0.4188
 7526TIP3    H143993   5.960   5.406   0.189  0.5009 -1.8500 -0.8409
 7526TIP3    H243994   5.848   5.423   0.289 -0.4566  0.1740 -2.1927
 7527TIP3   OH243995   6.573   1.552  13.060 -0.2040 -0.0372 -0.4429
 7527TIP3    H143996   6.574   1.464  13.097 -1.2995  0.5971  1.2019
 7527TIP3    H243997   6.509   1.599  13.113  0.6475  1.8695 -1.0372
 7528TIP3   OH243998   3.444   4.260  16.087 -0.5597  0.3433 -0.1184
 7528TIP3    H143999   3.382   4.321  16.126  1.3322  1.8328  0.7596
 7528TIP3    H244000   3.517   4.315  16.058  0.4775 -1.3293 -0.8727
 7529TIP3   OH244001   3.448   4.967   1.847  0.5130 -0.6349 -0.0771
 7529TIP3    H144002   3.464   4.884   1.804  0.1364 -0.5738 -0.3408
 7529TIP3    H244003   3.359   4.991   1.821  0.8901  0.2254 -0.6279
 7530TIP3   OH244004   0.004   5.989   5.017 -0.2278  0.0946  0.7552
 7530TIP3    H144005  -0.057   6.063   5.023  0.6623  0.8342  0.9676
 7530TIP3    H244006  -0.026   5.928   5.084 -2.0081 -0.5489 -0.5359
 7531TIP3   OH244007   5.355   2.179  16.321 -0.4071  0.5322 -0.5518
 7531TIP3    H144008   5.320   2.256  16.276 -0.8350  0.8996  0.3769
 7531TIP3    H244009   5.287   2.154  16.383  0.2730  0.2071  0.0856
 7532TIP3   OH244010   4.913   1.045   2.931  0.6006  0.1543 -0.0514
 7532TIP3    H144011   4.871   1.021   3.014 -0.9838 -1.6549 -1.2943
 7532TIP3    H244012   5.005   1.021   2.944  0.4942  0.4280  1.3719
 7533TIP3   OH244013   6.579   3.049  12.065 -0.0904 -0.5304  0.7868
 7533TIP3    H144014   6.624   3.074  12.145 -0.0605 -0.8264  0.8626
 7533TIP3    H244015   6.522   2.977  12.091  2.1683 -2.7621 -0.0615
 7534TIP3   OH244016   3.492   5.528  12.202 -0.1213  0.4583  0.6881
 7534TIP3    H144017   3.503   5.436  12.179  0.3677  0.1175  2.1532
 7534TIP3    H244018   3.489   5.574  12.118 -0.7115 -0.9215 -0.0730
 7535TIP3   OH244019   6.628   0.929  16.777 -0.3791 -0.5709 -0.1241
 7535TIP3    H144020   6.695   0.869  16.810  0.0125  0.5837  1.3066
 7535TIP3    H244021   6.676   0.990  16.720 -0.3397 -0.2281  0.2694
 7536TIP3   OH244022   2.937   2.549  16.885 -0.4096 -0.5917  0.2032
 7536TIP3    H144023   2.898   2.546  16.972 -0.2918  0.9196  0.3324
 7536TIP3    H244024   2.876   2.600  16.832  2.3103  4.2686  1.0616
 7537TIP3   OH244025   0.900   2.779  16.844  0.3132 -0.5746  0.1634
 7537TIP3    H144026   0.991   2.756  16.865  1.1382 -0.1010 -2.4419
 7537TIP3    H244027   0.861   2.801  16.928  2.7442 -0.3399  1.3357
 7538TIP3   OH244028   5.225   4.731   6.105  0.0723 -0.2039 -0.1509
 7538TIP3    H144029   5.156   4.665   6.118  1.1313 -1.6418 -1.4778
 7538TIP3    H244030   5.280   4.723   6.182 -0.3900 -0.1288  0.1915
 7539TIP3   OH244031   0.216   1.759  16.305 -0.0008  0.2225  0.0091
 7539TIP3    H144032   0.196   1.725  16.392 -2.1757  1.6203  0.1426
 7539TIP3    H244033   0.284   1.824  16.319 -1.0482  1.1727  0.8753
 7540TIP3   OH244034   3.373   2.582   0.643  0.0221 -0.7521  0.2241
 7540TIP3    H144035   3.316   2.586   0.720 -1.3104  0.3105 -0.7610
 7540TIP3    H244036   3.437   2.652   0.656  1.6754 -2.4276  1.6947
 7541TIP3   OH244037   5.664   1.933  11.261  0.2594  0.1935 -0.2471
 7541TIP3    H144038   5.717   1.895  11.191 -1.5845 -0.4952 -1.3268
 7541TIP3    H244039   5.612   2.001  11.217 -1.3510 -0.6459  0.3082
 7542TIP3   OH244040   4.199   3.692   3.661  0.0886 -0.2168 -0.6215
 7542TIP3    H144041   4.293   3.680   3.656 -0.0744 -2.5718  0.4909
 7542TIP3    H244042   4.178   3.677   3.753 -1.0507  3.7659 -0.0259
 7543TIP3   OH244043   2.965   5.232  15.042  0.4501 -0.4638  0.4312
 7543TIP3    H144044   2.993   5.323  15.058  2.2980 -0.9995  0.4711
 7543TIP3    H244045   2.903   5.239  14.970  1.0405  0.7972  0.0060
 7544TIP3   OH244046   4.629   5.150   0.272  0.8727  0.5452 -0.6935
 7544TIP3    H144047   4.673   5.066   0.285  2.3279  1.1832 -1.2827
 7544TIP3    H244048   4.558   5.131   0.211  0.5531 -0.4386 -0.0374
 7545TIP3   OH244049   4.306   0.847  14.315  0.2912  0.3975 -0.0225
 7545TIP3    H144050   4.281   0.756  14.334 -1.6654  0.8174 -0.3736
 7545TIP3    H244051   4.380   0.864  14.374  0.1221 -1.1438  0.6874
 7546TIP3   OH244052   1.716   3.496  11.337 -0.4593  0.0377  0.1741
 7546TIP3    H144053   1.640   3.539  11.376 -1.5535 -2.0709  0.5253
 7546TIP3    H244054   1.774   3.477  11.411 -0.2064  0.4659  0.0861
 7547TIP3   OH244055   5.468   3.382  11.518 -0.1780 -0.7150  0.4239
 7547TIP3    H144056   5.374   3.377  11.501 -0.0050 -1.9018 -0.2741
 7547TIP3    H244057   5.476   3.393  11.612 -1.0177 -0.3967  0.4615
 7548TIP3   OH244058   0.325   3.199  16.767 -0.1633  0.7079  0.1218
 7548TIP3    H144059   0.343   3.262  16.838  3.1556 -0.4642  0.5055
 7548TIP3    H244060   0.275   3.130  16.809 -0.4233  1.2332  0.6951
 7549TIP3   OH244061   1.936   5.099   2.179  0.3073 -0.2196  0.3713
 7549TIP3    H144062   2.005   5.051   2.224  0.7056 -0.4412 -0.4422
 7549TIP3    H244063   1.957   5.088   2.086 -1.6807 -1.5891  0.0224
 7550TIP3   OH244064   1.104   5.026  14.122  0.0081 -0.3974 -0.0140
 7550TIP3    H144065   1.023   5.075  14.104  0.5432  0.3904 -0.3317
 7550TIP3    H244066   1.075   4.935  14.134 -0.9788 -0.0454  0.3564
 7551TIP3   OH244067   1.775   1.121  13.186 -0.5328  0.2724 -0.1879
 7551TIP3    H144068   1.840   1.133  13.255  0.3356  0.7506 -1.0585
 7551TIP3    H244069   1.729   1.205  13.180 -1.7755 -0.3001  0.9385
 7552TIP3   OH244070   5.425   1.844   2.361  0.7456  0.4311 -0.2462
 7552TIP3    H144071   5.398   1.920   2.412 -0.3748  1.3570 -2.1079
 7552TIP3    H244072   5.520   1.851   2.354  0.8913  0.4301  1.4100
 7553TIP3   OH244073   5.855   0.215   5.537  0.2702 -0.7284  0.6436
 7553TIP3    H144074   5.811   0.176   5.613 -0.4063 -2.3694 -0.5127
 7553TIP3    H244075   5.783   0.246   5.482  0.7562  0.5311  0.6845
 7554TIP3   OH244076   1.799   0.340   5.192  0.8154 -0.3243 -0.1076
 7554TIP3    H144077   1.710   0.310   5.211 -0.7168  3.6625 -0.0320
 7554TIP3    H244078   1.823   0.294   5.112 -0.6455 -2.6468  0.6851
 7555TIP3   OH244079   2.880   2.065  13.518  0.7616 -0.1213 -0.1289
 7555TIP3    H144080   2.856   2.026  13.433  1.4535 -0.8142 -0.0149
 7555TIP3    H244081   2.939   2.001  13.558  2.2114  1.1852 -0.0818
 7556TIP3   OH244082   1.344   0.753  15.326 -0.1450 -0.3006  0.5981
 7556TIP3    H144083   1.269   0.752  15.267  1.3951 -1.4188 -1.4770
 7556TIP3    H244084   1.373   0.844  15.328  0.9011 -0.5090 -1.9960
 7557TIP3   OH244085   5.206   2.773  12.159 -0.3276  0.4821 -0.0531
 7557TIP3    H144086   5.198   2.682  12.130  0.5711  0.7839 -1.3925
 7557TIP3    H244087   5.290   2.776  12.204  0.2393  0.8839 -1.1000
 7558TIP3   OH244088   3.509   5.278  16.802 -0.4264 -0.1171 -0.4915
 7558TIP3    H144089   3.425   5.246  16.835 -1.9258  0.2310 -3.5898
 7558TIP3    H244090   3.559   5.199  16.782  0.0606 -0.3254  1.3379
 7559TIP3   OH244091   6.392   1.225   2.607 -0.8337 -0.3797  0.6078
 7559TIP3    H144092   6.346   1.307   2.624 -0.9540 -0.3461  0.1312
 7559TIP3    H244093   6.410   1.189   2.694  2.1192  1.7419  1.0348
 7560TIP3   OH244094   1.739   1.495  11.851 -0.2395  0.9359  0.4676
 7560TIP3    H144095   1.693   1.466  11.772 -0.0402  1.5450  0.1222
 7560TIP3    H244096   1.673   1.541  11.902 -0.2488  0.9652  0.4287
 7561TIP3   OH244097   2.729   4.652   3.638 -0.1457  0.1145  0.7767
 7561TIP3    H144098   2.791   4.648   3.711  1.7080  0.7903 -0.7036
 7561TIP3    H244099   2.652   4.605   3.671  1.8046 -2.4644  2.0302
 7562TIP3   OH244100   6.083   4.909   6.062 -0.2347  0.6630  0.0156
 7562TIP3    H144101   6.003   4.961   6.059 -0.0392  0.9431 -0.3219
 7562TIP3    H244102   6.153   4.969   6.037  0.1633  0.5651  0.8545
 7563TIP3   OH244103   4.782   1.195  12.428  0.5432 -0.4370 -0.0554
 7563TIP3    H144104   4.726   1.136  12.378 -0.4700  0.0971  0.4102
 7563TIP3    H244105   4.748   1.189  12.518  0.5811  0.6413  0.0420
 7564TIP3   OH244106   2.231   1.885  14.516  0.5500  0.3106 -0.1328
 7564TIP3    H144107   2.273   1.873  14.431 -0.2957 -0.2502 -0.4909
 7564TIP3    H244108   2.224   1.796  14.552 -1.9662  0.1018 -0.9201
 7565TIP3   OH244109   5.956   0.914  16.935 -0.3154 -0.0573 -0.1091
 7565TIP3    H144110   5.933   1.002  16.965  1.3341  0.4034 -0.1145
 7565TIP3    H244111   5.898   0.857  16.985 -1.4721  1.0238 -0.1590
 7566TIP3   OH244112   1.248   5.130  13.546  0.3316  0.0067  0.0204
 7566TIP3    H144113   1.193   5.208  13.546 -0.4213 -0.4697  2.0601
 7566TIP3    H244114   1.268   5.115  13.453  0.0306  2.2618 -0.4654
 7567TIP3   OH244115   6.153   5.082   1.896 -0.1276 -0.3257 -0.1043
 7567TIP3    H144116   6.090   5.139   1.942 -0.9717 -1.5681  0.3560
 7567TIP3    H244117   6.224   5.069   1.959 -0.0605  0.0188 -0.1111
 7568TIP3   OH244118   1.015   3.352   5.520 -0.6526  0.0500 -0.6638
 7568TIP3    H144119   0.990   3.294   5.592 -1.3585  1.3610  0.2002
 7568TIP3    H244120   1.109   3.364   5.530 -0.6119 -0.4288 -0.4569
 7569TIP3   OH244121   4.102   0.251  14.620 -0.2558 -0.0219 -0.1699
 7569TIP3    H144122   4.193   0.241  14.648 -0.1297 -0.4252 -0.6843
 7569TIP3    H244123   4.085   0.173  14.567 -1.3351 -0.6588  1.0377
 7570TIP3   OH244124   2.191   0.461  11.659 -0.6231  0.2215 -0.3497
 7570TIP3    H144125   2.186   0.419  11.746  2.5425 -0.0476 -0.1585
 7570TIP3    H244126   2.150   0.398  11.600  0.8062 -1.5876  0.4514
 7571TIP3   OH244127   0.678   2.630  13.657 -0.6612  0.1648 -0.3629
 7571TIP3    H144128   0.754   2.609  13.602  0.3047  0.1238  0.9192
 7571TIP3    H244129   0.715   2.677  13.731 -1.6480 -1.2550  1.1045
 7572TIP3   OH244130   0.021   5.397   5.925  0.3950  0.1036 -0.0214
 7572TIP3    H144131   0.061   5.339   5.990  1.2005  0.4087 -0.2332
 7572TIP3    H244132   0.095   5.428   5.873  0.2912  3.0301  1.3957
 7573TIP3   OH244133   2.027   1.392   5.092  0.2697  0.4596 -0.0933
 7573TIP3    H144134   2.106   1.358   5.133  0.0390  0.5628  0.4419
 7573TIP3    H244135   1.990   1.452   5.157  0.1912  1.0474 -0.6661
 7574TIP3   OH244136   1.746   4.408   3.774  1.4324 -0.0440 -0.1255
 7574TIP3    H144137   1.824   4.393   3.720  0.3943 -0.8392 -1.4729
 7574TIP3    H244138   1.708   4.488   3.739  1.3854  0.0784  0.2061
 7575TIP3   OH244139   6.358   1.200  10.429 -0.1988 -0.0880 -0.2620
 7575TIP3    H144140   6.269   1.196  10.464 -0.3244 -0.1555 -0.5836
 7575TIP3    H244141   6.377   1.109  10.404  0.2852 -0.2303  0.6013
 7576TIP3   OH244142   6.428   0.073   2.616 -0.4615  0.1241  0.9946
 7576TIP3    H144143   6.399   0.024   2.693 -1.7538  1.6095  1.5224
 7576TIP3    H244144   6.372   0.151   2.615  0.2586  0.6793 -0.8450
 7577TIP3   OH244145   1.614   4.615   1.499 -0.2778 -0.3352 -0.2400
 7577TIP3    H144146   1.693   4.667   1.513 -0.1208 -0.4317 -0.7368
 7577TIP3    H244147   1.553   4.674   1.456 -0.4525 -0.2806  0.0818
 7578TIP3   OH244148   2.748   1.946   0.562 -0.4175 -0.4615  0.2812
 7578TIP3    H144149   2.676   1.980   0.615 -1.3369 -0.4354 -0.9318
 7578TIP3    H244150   2.766   1.860   0.598  0.8498  0.5974  2.3660
 7579TIP3   OH244151   3.343   6.288   2.996  0.1936 -0.1038 -0.0690
 7579TIP3    H144152   3.261   6.283   3.045  0.0536 -2.5832 -0.4467
 7579TIP3    H244153   3.343   6.376   2.960 -1.2556  0.6898  1.6839
 7580TIP3   OH244154   5.768   0.189  12.894 -0.4591 -0.1474  0.2334
 7580TIP3    H144155   5.712   0.155  12.825 -1.5781 -1.8558  1.8840
 7580TIP3    H244156   5.719   0.261  12.932  0.8804  1.9321 -1.7196
 7581TIP3   OH244157   5.789   3.163  16.874  0.0580 -0.3276 -0.4271
 7581TIP3    H144158   5.854   3.208  16.929 -0.7730 -0.7216  0.9274
 7581TIP3    H244159   5.813   3.187  16.785  1.8127 -0.1274  0.0556
 7582TIP3   OH244160   2.715   5.382  11.093 -0.3458 -0.2745  0.1274
 7582TIP3    H144161   2.644   5.372  11.156 -0.7395 -1.8836 -0.5276
 7582TIP3    H244162   2.671   5.400  11.010  0.1094  0.5308  0.0484
 7583TIP3   OH244163   4.067   5.557  14.845 -0.4848  0.0567  0.1081
 7583TIP3    H144164   4.010   5.539  14.920 -1.6842 -1.9984 -1.2232
 7583TIP3    H244165   4.143   5.602  14.883 -1.5464  0.0524  2.3795
 7584TIP3   OH244166   5.348   4.170   0.080 -0.6240  0.1928 -1.0948
 7584TIP3    H144167   5.406   4.159   0.005  0.1804 -1.0886 -0.3080
 7584TIP3    H244168   5.405   4.199   0.151 -1.4148  1.6142 -0.9810
 7585TIP3   OH244169   3.643   4.635   0.132 -0.5328  0.5935 -0.1012
 7585TIP3    H144170   3.687   4.683   0.062  0.0689  0.7683  0.3842
 7585TIP3    H244171   3.573   4.586   0.089  0.6165 -0.2927 -1.0049
 7586TIP3   OH244172   2.870   5.930   4.399  0.2089  0.1278 -0.7291
 7586TIP3    H144173   2.856   5.858   4.337  1.3532  0.8562 -1.8949
 7586TIP3    H244174   2.950   5.907   4.445 -0.5218 -0.3025  0.3674
 7587TIP3   OH244175   4.961   5.279  15.772  0.2513 -0.0106  0.1680
 7587TIP3    H144176   4.973   5.267  15.678  0.4107 -0.1794  0.2084
 7587TIP3    H244177   4.955   5.190  15.807  3.0162 -0.1049  0.6703
 7588TIP3   OH244178   4.861   5.440   2.864  0.0915 -0.0894  0.1427
 7588TIP3    H144179   4.790   5.408   2.919 -0.2106 -2.1627 -1.3423
 7588TIP3    H244180   4.890   5.521   2.906 -0.2167 -1.4613  3.2417
 7589TIP3   OH244181   2.087   3.324  14.460 -0.1917  0.0766 -0.1597
 7589TIP3    H144182   2.003   3.303  14.418 -0.2511  0.5997 -0.3074
 7589TIP3    H244183   2.151   3.321  14.388 -0.0108 -0.7218  0.0216
 7590TIP3   OH244184   1.604   2.285  11.351 -0.5520  0.5154  0.1645
 7590TIP3    H144185   1.606   2.380  11.368  1.7725  0.3701  0.9805
 7590TIP3    H244186   1.628   2.277  11.259  1.7660  0.6440  0.7193
 7591TIP3   OH244187   3.208   6.257   5.610 -0.0580 -0.5255 -0.1008
 7591TIP3    H144188   3.220   6.170   5.648  2.9095 -0.0958  0.1549
 7591TIP3    H244189   3.201   6.316   5.685  0.9520 -0.2286 -0.2246
 7592TIP3   OH244190   2.464   1.033  11.194  0.2351 -0.1526  0.1073
 7592TIP3    H144191   2.530   0.976  11.231 -0.7121 -0.5743  1.2022
 7592TIP3    H244192   2.453   1.103  11.258 -0.2385  0.0095 -0.1405
 7593TIP3   OH244193   4.384   6.720   4.396  0.0626  0.2412  0.2447
 7593TIP3    H144194   4.422   6.788   4.340 -1.6672  1.4948  0.5198
 7593TIP3    H244195   4.312   6.684   4.345 -0.7844  0.5764  1.1675
 7594TIP3   OH244196   4.614   5.671  13.492  0.1708 -0.2325 -0.1336
 7594TIP3    H144197   4.594   5.629  13.409  1.3238 -0.8103 -0.1289
 7594TIP3    H244198   4.642   5.760  13.469 -1.8264  0.4429 -0.1719
 7595TIP3   OH244199   3.335   1.193  16.204  0.1682 -0.3490  0.1591
 7595TIP3    H144200   3.425   1.221  16.216  0.1630  0.2949 -1.2193
 7595TIP3    H244201   3.338   1.098  16.217  0.4541 -0.0388  3.2726
 7596TIP3   OH244202   5.995   3.928  11.334  0.6641 -0.2773  0.8463
 7596TIP3    H144203   5.925   3.913  11.398 -2.1935 -3.3265 -2.5899
 7596TIP3    H244204   5.961   3.995  11.276  1.5552 -0.2635  0.3185
 7597TIP3   OH244205   0.346   5.073  14.493  0.4447  0.0893  0.5772
 7597TIP3    H144206   0.428   5.067  14.444  0.6716 -0.4078  1.0145
 7597TIP3    H244207   0.368   5.045  14.582 -0.1446  0.1814  0.7587
 7598TIP3   OH244208   4.878   2.952  14.887 -0.1887  0.0330  0.0065
 7598TIP3    H144209   4.941   3.004  14.836  0.7706  0.1759  1.2915
 7598TIP3    H244210   4.793   2.991  14.866  0.4450  1.7672  0.4913
 7599TIP3   OH244211   4.377   5.716  17.104 -0.4667 -0.0036 -0.4468
 7599TIP3    H144212   4.459   5.731  17.151 -0.1068 -0.6393 -0.8550
 7599TIP3    H244213   4.382   5.773  17.027 -0.9835  0.9137  0.1780
 7600TIP3   OH244214   3.822   1.703   5.018  0.4222  0.3541  0.0664
 7600TIP3    H144215   3.908   1.670   5.045  0.2569  2.7073  4.2748
 7600TIP3    H244216   3.762   1.632   5.041  0.9378 -0.2209 -0.3038
 7601TIP3   OH244217   2.130   3.389   4.062  0.8608  0.3398 -0.1451
 7601TIP3    H144218   2.062   3.340   4.109 -0.0937  2.0660  0.3600
 7601TIP3    H244219   2.132   3.351   3.975  1.9655 -2.2833  0.9163
 7602TIP3   OH244220   2.025   4.719   3.640  0.6457  0.9354  0.6429
 7602TIP3    H144221   2.017   4.659   3.566 -0.7021 -1.7863  2.8296
 7602TIP3    H244222   1.957   4.785   3.625 -0.7865 -0.5585  0.2379
 7603TIP3   OH244223   3.545   1.231   3.241 -0.8473 -0.4807  0.4485
 7603TIP3    H144224   3.633   1.227   3.280  0.0269 -1.5925 -1.4806
 7603TIP3    H244225   3.519   1.322   3.251  0.4066 -0.1930  1.3452
 7604TIP3   OH244226   3.414   4.543   1.323  0.1658 -0.1705  0.5518
 7604TIP3    H144227   3.457   4.501   1.397 -1.0356  0.5471  1.7045
 7604TIP3    H244228   3.347   4.598   1.362 -0.3022  0.4828 -1.0673
 7605TIP3   OH244229   5.330   6.036  12.667  0.3013  0.1185  0.4341
 7605TIP3    H144230   5.362   5.946  12.665 -4.0376 -1.6444  1.0262
 7605TIP3    H244231   5.355   6.068  12.754  1.0902 -0.8042  0.5667
 7606TIP3   OH244232   5.597   5.491  15.755 -0.1186 -0.3936 -0.4595
 7606TIP3    H144233   5.612   5.423  15.689 -1.7756 -0.1818 -1.1115
 7606TIP3    H244234   5.537   5.450  15.818 -1.1600  0.4495 -0.8800
 7607TIP3   OH244235   0.581   2.062  13.561  0.0833 -0.5539 -0.2572
 7607TIP3    H144236   0.541   2.036  13.478 -1.8435 -2.1931  1.1027
 7607TIP3    H244237   0.601   1.980  13.605 -0.0274  0.2732  1.4109
 7608TIP3   OH244238   2.070   1.835   4.757 -0.5608 -0.5068 -0.6855
 7608TIP3    H144239   2.130   1.908   4.773 -0.4210 -0.4899 -1.2761
 7608TIP3    H244240   1.984   1.877   4.747 -0.1809 -0.1534 -3.2252
 7609TIP3   OH244241   5.057   6.655  11.981  0.1872 -0.3724 -0.1054
 7609TIP3    H144242   5.133   6.605  12.011  0.1636 -0.3205  0.0447
 7609TIP3    H244243   4.988   6.590  11.971  0.2082 -0.3969 -0.0927
 7610TIP3   OH244244   4.342   0.803  13.357  0.1995  0.3566  0.6161
 7610TIP3    H144245   4.399   0.876  13.381 -0.2199  1.0493 -0.4062
 7610TIP3    H244246   4.365   0.784  13.266  0.7662 -1.2498  1.0568
 7611TIP3   OH244247   4.566   2.950   2.112 -0.3807  0.0615  0.4480
 7611TIP3    H144248   4.483   2.946   2.064  0.0692  1.2868 -0.4884
 7611TIP3    H244249   4.609   3.028   2.078  1.0110 -0.3654  1.1711
 7612TIP3   OH244250   2.682   0.267   0.587 -0.0474  0.5833 -0.2038
 7612TIP3    H144251   2.710   0.176   0.594 -0.0380  0.6060  0.0831
 7612TIP3    H244252   2.699   0.303   0.674  0.1194  0.9086 -0.3715
 7613TIP3   OH244253   1.238   3.523   0.098  0.2808 -0.0756 -0.3651
 7613TIP3    H144254   1.325   3.496   0.070  0.4331 -0.8044  0.7313
 7613TIP3    H244255   1.199   3.443   0.134  0.6329  1.0192  2.7432
 7614TIP3   OH244256   4.725   3.844   5.519 -0.6861 -0.2161 -0.3663
 7614TIP3    H144257   4.744   3.927   5.564  0.3359 -0.3929 -0.4590
 7614TIP3    H244258   4.660   3.801   5.576 -0.4806  0.2042  0.1974
 7615TIP3   OH244259   2.628   2.167  12.639  0.1515 -0.6484  0.6737
 7615TIP3    H144260   2.658   2.077  12.653  0.0643 -0.5073  1.8766
 7615TIP3    H244261   2.533   2.160  12.630  0.3754 -1.0094 -2.4051
 7616TIP3   OH244262   0.011   3.108  11.253 -0.3384 -0.4389 -0.3649
 7616TIP3    H144263   0.071   3.183  11.257 -0.5994  0.1289 -3.7833
 7616TIP3    H244264   0.043   3.048  11.320  2.5400  0.9114 -0.3794
 7617TIP3   OH244265   4.406   1.978   0.425 -0.6336  0.1339  0.3769
 7617TIP3    H144266   4.465   1.961   0.499 -0.6908  1.1306  0.6534
 7617TIP3    H244267   4.461   2.021   0.360 -1.0989  1.2546  0.7159
 7618TIP3   OH244268   4.496   6.587   5.275 -0.6289 -0.1201 -0.0793
 7618TIP3    H144269   4.402   6.574   5.265 -0.9885  0.6267  1.8878
 7618TIP3    H244270   4.533   6.499   5.270 -1.7142 -0.7168  1.4081
 7619TIP3   OH244271   2.511   2.756  14.911  0.1818  0.4619  0.0648
 7619TIP3    H144272   2.452   2.826  14.936 -0.6133 -0.0585 -0.3219
 7619TIP3    H244273   2.598   2.796  14.913 -0.0714  0.9923  1.5167
 7620TIP3   OH244274   5.580   1.747   0.680 -0.5610  0.2560 -0.2505
 7620TIP3    H144275   5.563   1.706   0.595 -0.6905 -2.6001  1.0371
 7620TIP3    H244276   5.496   1.741   0.726 -0.3648  1.3214  0.2643
 7621TIP3   OH244277   3.673   5.463  16.913  0.2100  0.1939 -0.1182
 7621TIP3    H144278   3.629   5.545  16.892 -1.2322 -0.4603  0.2593
 7621TIP3    H244279   3.623   5.396  16.866  0.9009 -0.5570  0.1957
 7622TIP3   OH244280   3.793   0.238  16.283  0.3590  0.0649  0.0885
 7622TIP3    H144281   3.831   0.304  16.225 -0.4752 -0.4399 -1.0799
 7622TIP3    H244282   3.773   0.164  16.225 -0.1403 -0.6164  1.0988
 7623TIP3   OH244283   5.725   6.635  16.360 -0.0692 -0.2899 -0.4515
 7623TIP3    H144284   5.773   6.581  16.298  0.6310 -2.8388  2.0992
 7623TIP3    H244285   5.719   6.581  16.439 -1.6540  2.4135  1.4353
 7624TIP3   OH244286   5.859   3.785  11.905  0.1162 -0.4597  0.1618
 7624TIP3    H144287   5.889   3.749  11.988  3.5476  0.9744 -0.2545
 7624TIP3    H244288   5.825   3.872  11.927 -1.0565 -0.9533  0.3086
 7625TIP3   OH244289   2.474   1.229   5.090  0.4154 -0.3837 -0.3874
 7625TIP3    H144290   2.560   1.192   5.110  1.3334  2.6915  2.2224
 7625TIP3    H244291   2.488   1.281   5.010  1.5437  1.5003  0.9732
 7626TIP3   OH244292   1.781   1.331   1.533  0.2618  0.7412  0.4956
 7626TIP3    H144293   1.704   1.292   1.575  0.7500  1.8969  2.5980
 7626TIP3    H244294   1.816   1.390   1.599  1.6379  1.9822 -1.2763
 7627TIP3   OH244295   0.348   1.859   2.162 -0.1952  1.0595 -0.4464
 7627TIP3    H144296   0.422   1.904   2.119  0.3396  1.4258  0.8046
 7627TIP3    H244297   0.362   1.874   2.256 -0.5216 -0.9402 -0.0260
 7628TIP3   OH244298   0.740   1.099  12.944  0.2353 -0.2914 -0.9287
 7628TIP3    H144299   0.827   1.138  12.933  0.3729 -0.5068 -0.6047
 7628TIP3    H244300   0.721   1.107  13.037  0.6060 -1.6783 -0.7009
 7629TIP3   OH244301   6.014   3.380   4.833  0.5428 -0.1568 -0.2555
 7629TIP3    H144302   5.927   3.342   4.842  0.1639  0.8132  0.3207
 7629TIP3    H244303   6.022   3.439   4.908  1.4186  0.3038 -0.6999
 7630TIP3   OH244304   2.727   3.519  16.255 -0.4389  0.1479 -0.4489
 7630TIP3    H144305   2.660   3.583  16.280  0.5777  0.8766  0.4863
 7630TIP3    H244306   2.781   3.509  16.333  1.4133  0.6938 -1.5950
 7631TIP3   OH244307   5.794   5.151  13.634 -0.3292  0.2955  0.5333
 7631TIP3    H144308   5.774   5.084  13.568 -1.0889 -0.4038  1.4556
 7631TIP3    H244309   5.856   5.210  13.590  3.2090 -2.8937  0.7506
 7632TIP3   OH244310   1.154   3.835  12.306 -0.2520  0.0426 -0.1016
 7632TIP3    H144311   1.234   3.799  12.344 -0.3956 -0.0076  0.1565
 7632TIP3    H244312   1.095   3.844  12.381  0.2453  2.1218  0.1084
 7633TIP3   OH244313   6.156   1.445  13.516 -0.4233  0.4765  0.4867
 7633TIP3    H144314   6.196   1.359  13.532  1.0838  0.9827 -0.3165
 7633TIP3    H244315   6.094   1.430  13.446  0.0920  0.0884  0.1027
 7634TIP3   OH244316   5.654   0.236   2.220 -0.3873 -0.1022 -0.1572
 7634TIP3    H144317   5.748   0.251   2.210 -0.3413  0.5016  1.0335
 7634TIP3    H244318   5.634   0.168   2.155  0.8434 -0.1712 -0.4982
 7635TIP3   OH244319   4.646   5.970  14.639  0.4165 -0.1966  0.0569
 7635TIP3    H144320   4.577   5.924  14.686  1.7152 -2.1057  0.2194
 7635TIP3    H244321   4.600   6.032  14.582 -1.3281 -0.3405  1.2529
 7636TIP3   OH244322   6.759   3.704   2.241  0.1832 -0.5477 -0.3949
 7636TIP3    H144323   6.852   3.727   2.231  0.0943 -0.4132 -0.9480
 7636TIP3    H244324   6.730   3.757   2.316 -0.0690  1.4142 -1.7789
 7637TIP3   OH244325   1.334   3.757   4.614 -0.1269 -0.5154 -0.3801
 7637TIP3    H144326   1.357   3.674   4.654 -0.9896 -0.2770  0.6696
 7637TIP3    H244327   1.311   3.735   4.523  0.3594 -1.2967 -0.3173
 7638TIP3   OH244328   6.156   3.325  10.412  0.1325  0.2289 -0.1594
 7638TIP3    H144329   6.184   3.234  10.414 -0.4251  0.0614  1.1353
 7638TIP3    H244330   6.236   3.374  10.391  0.2148 -0.5975 -1.9564
 7639TIP3   OH244331   3.545   1.868  14.212  0.2280 -0.2766 -0.1610
 7639TIP3    H144332   3.555   1.959  14.239  2.2124 -0.1084 -1.3243
 7639TIP3    H244333   3.577   1.865  14.122 -1.6208 -1.7719 -0.8483
 7640TIP3   OH244334   3.975   1.002  16.341 -0.1320  0.0250 -0.1597
 7640TIP3    H144335   3.910   1.029  16.406  0.1577 -0.4723  0.3482
 7640TIP3    H244336   3.927   0.943  16.283  0.1147 -1.2534  0.8814
 7641TIP3   OH244337   3.683   0.680  12.457  0.3429  0.1274  0.3932
 7641TIP3    H144338   3.717   0.744  12.519  1.6769  0.0730 -0.2559
 7641TIP3    H244339   3.727   0.598  12.480  2.2483  0.4779 -1.6820
 7642TIP3   OH244340   3.551   1.352  16.580 -0.4122  0.4295  0.5780
 7642TIP3    H144341   3.626   1.317  16.628  1.6695  0.7561 -2.2177
 7642TIP3    H244342   3.492   1.277  16.570  1.4643 -0.9760 -0.6615
 7643TIP3   OH244343   1.539   5.832   4.180  0.0168 -0.4185 -0.0078
 7643TIP3    H144344   1.612   5.856   4.237 -0.0056 -1.5049  0.4934
 7643TIP3    H244345   1.581   5.805   4.098  0.0673  0.8048 -0.3976
 7644TIP3   OH244346   1.167   1.963  12.420  0.1103 -0.4210  0.6316
 7644TIP3    H144347   1.108   1.898  12.458 -1.0026  1.4117  2.2178
 7644TIP3    H244348   1.211   2.003  12.495  1.0973  0.3752 -0.3208
 7645TIP3   OH244349   3.481   1.037  11.290 -0.1445 -0.0404  0.2587
 7645TIP3    H144350   3.523   1.098  11.230 -0.4351 -0.3387 -0.2538
 7645TIP3    H244351   3.515   0.951  11.264  0.8501 -0.0404  1.4623
 7646TIP3   OH244352   1.183   3.735   5.267  0.3409  0.2712 -0.5564
 7646TIP3    H144353   1.185   3.643   5.241 -2.2800 -0.3772  1.1223
 7646TIP3    H244354   1.089   3.756   5.270  0.8103  2.4154  1.0083
 7647TIP3   OH244355   2.792   0.187   0.258  0.4312  0.0745 -0.1306
 7647TIP3    H144356   2.819   0.201   0.348  1.2054 -2.3797  0.1191
 7647TIP3    H244357   2.697   0.184   0.261  0.3752  1.6082  0.2839
 7648TIP3   OH244358   2.076   3.122  14.152 -0.5912  0.0966 -0.2774
 7648TIP3    H144359   2.034   3.103  14.236 -1.1138  0.2917 -0.4924
 7648TIP3    H244360   2.107   3.212  14.161 -2.6866  0.9498 -1.1059
 7649TIP3   OH244361   0.103   3.316  13.513 -0.0555 -0.1313  0.2243
 7649TIP3    H144362   0.070   3.406  13.503  0.0868  0.0271  1.1468
 7649TIP3    H244363   0.026   3.265  13.539 -0.3342 -0.4649 -1.1773
 7650TIP3   OH244364   3.960   3.636   1.783 -0.1399 -0.4406 -0.3775
 7650TIP3    H144365   4.016   3.704   1.748  0.0386 -0.2666  0.2478
 7650TIP3    H244366   4.017   3.582   1.838 -0.4868 -0.5077 -0.0732
 7651TIP3   OH244367   0.524   2.256   4.166  0.1364  0.0777  0.2367
 7651TIP3    H144368   0.525   2.350   4.150  1.3741 -0.0858 -0.7591
 7651TIP3    H244369   0.441   2.226   4.129  0.5857  0.5083 -1.1821
 7652TIP3   OH244370   3.065   5.182   2.516 -0.1392  0.0531 -0.4427
 7652TIP3    H144371   3.017   5.200   2.435 -1.3236 -0.0578  0.2231
 7652TIP3    H244372   3.083   5.088   2.513 -2.5263 -0.5161  0.6170
 7653TIP3   OH244373   1.253   3.414  16.830  0.5318 -0.2227 -0.8625
 7653TIP3    H144374   1.323   3.463  16.873 -0.8250  1.8127 -0.7985
 7653TIP3    H244375   1.282   3.406  16.739  1.5205 -0.7900 -0.5131
 7654TIP3   OH244376   5.440   5.434   3.437 -0.4277  0.3641 -0.2446
 7654TIP3    H144377   5.515   5.475   3.479 -2.5720  3.5465  0.8815
 7654TIP3    H244378   5.473   5.403   3.353  2.5456 -0.2492  1.0328
 7655TIP3   OH244379   2.399   4.038   4.896  0.5145  0.2998  0.2019
 7655TIP3    H144380   2.337   4.101   4.860  0.5525 -0.1074 -0.5981
 7655TIP3    H244381   2.394   3.963   4.837  2.0028  0.3851 -0.0802
 7656TIP3   OH244382   4.589   6.656  12.404  0.3796 -0.1124  0.2434
 7656TIP3    H144383   4.593   6.707  12.485 -0.5453  1.2366 -0.5144
 7656TIP3    H244384   4.670   6.605  12.404  1.3361  1.3290  1.0802
 7657TIP3   OH244385   0.905   3.754   5.270  0.2685 -0.0911  0.0375
 7657TIP3    H144386   0.852   3.701   5.330  1.0692 -0.7408  0.1799
 7657TIP3    H244387   0.908   3.703   5.189  0.9316 -0.2080  0.1316
 7658TIP3   OH244388   5.430   0.265   4.088  0.0891  0.0661  0.2742
 7658TIP3    H144389   5.490   0.339   4.080 -0.7401  0.6595 -0.6413
 7658TIP3    H244390   5.466   0.213   4.160 -0.0902  2.1041  1.9368
 7659TIP3   OH244391   3.847   5.450  10.954 -0.0971 -0.4462  0.5242
 7659TIP3    H144392   3.855   5.468  11.048  2.3128  0.0185  0.3020
 7659TIP3    H244393   3.930   5.479  10.917 -1.5728  0.8702 -2.0393
 7660TIP3   OH244394   3.473   1.600   5.229  0.8066 -0.0445  0.3055
 7660TIP3    H144395   3.430   1.599   5.314  1.6986 -1.4473  0.7823
 7660TIP3    H244396   3.404   1.623   5.167 -0.0548  0.1417  1.3107
 7661TIP3   OH244397   6.537   4.085  15.515  0.5763 -0.2308  0.4054
 7661TIP3    H144398   6.587   4.005  15.502  1.5033  0.2383  0.9810
 7661TIP3    H244399   6.448   4.062  15.489  1.2964 -0.7421 -1.8118
 7662TIP3   OH244400   1.322   1.866   4.934  0.2985  0.3950 -0.0676
 7662TIP3    H144401   1.308   1.792   4.875 -0.3756  1.4025 -1.2048
 7662TIP3    H244402   1.277   1.841   5.015 -1.7538  0.4173 -1.1431
 7663TIP3   OH244403   1.235   3.847   2.962 -0.2893  0.0538 -0.3099
 7663TIP3    H144404   1.219   3.923   2.907  2.4583  0.2179 -1.0446
 7663TIP3    H244405   1.208   3.874   3.050 -1.1780  1.1562 -0.9060
 7664TIP3   OH244406   5.542   4.265   5.037  0.0229 -0.5911  0.4258
 7664TIP3    H144407   5.496   4.347   5.053  1.1592  0.4299 -1.3107
 7664TIP3    H244408   5.551   4.226   5.124 -1.0063  0.8364  1.2239
 7665TIP3   OH244409   3.337   5.794  11.345 -0.4223 -0.1042 -0.3158
 7665TIP3    H144410   3.304   5.744  11.420 -1.4810  0.8720 -0.1079
 7665TIP3    H244411   3.304   5.747  11.269 -0.7999 -0.1336 -0.1355
 7666TIP3   OH244412   3.875   1.781  12.728 -0.4983  0.2078 -0.1280
 7666TIP3    H144413   3.959   1.744  12.752 -0.3211  0.0832 -0.9087
 7666TIP3    H244414   3.820   1.770  12.806  0.3224  0.6776  0.5286
 7667TIP3   OH244415   0.563   0.180  13.050  0.1953  0.8405 -0.2419
 7667TIP3    H144416   0.544   0.271  13.071  0.7958  0.2559  3.5185
 7667TIP3    H244417   0.654   0.167  13.077  0.0066 -0.9721 -0.3299
 7668TIP3   OH244418   3.945   3.669   2.818 -0.2104  0.2738  0.0141
 7668TIP3    H144419   3.999   3.654   2.896 -2.6452  0.5012  1.8668
 7668TIP3    H244420   4.008   3.670   2.746  2.1324 -0.3552  1.8901
 7669TIP3   OH244421   2.457   4.939  16.768  0.2263 -0.7225 -0.6182
 7669TIP3    H144422   2.376   4.967  16.724 -0.0690 -1.3906 -0.4966
 7669TIP3    H244423   2.527   4.975  16.713 -0.1296 -2.1744 -2.0734
 7670TIP3   OH244424   0.197   4.509  12.550 -0.3127  0.0129 -0.0667
 7670TIP3    H144425   0.209   4.540  12.640 -0.8322  0.1720 -0.0487
 7670TIP3    H244426   0.284   4.483  12.522 -0.2376 -0.5463  0.6705
 7671TIP3   OH244427   0.871   6.533  15.367 -0.4377  0.4183  0.5828
 7671TIP3    H144428   0.824   6.468  15.419  0.8787 -0.3165  0.8979
 7671TIP3    H244429   0.947   6.486  15.333 -0.2437  1.4179 -0.3973
 7672TIP3   OH244430   3.386   1.120   4.111 -0.2857 -0.5336  0.6923
 7672TIP3    H144431   3.311   1.117   4.053 -0.5141 -0.7182  0.9961
 7672TIP3    H244432   3.438   1.195   4.080 -1.1860  0.3338  1.2091
 7673TIP3   OH244433   2.667   5.530  14.628  0.0219  0.0689  0.3188
 7673TIP3    H144434   2.732   5.600  14.632  0.4106 -0.2701 -0.0296
 7673TIP3    H244435   2.590   5.570  14.587 -0.0686  0.5255  0.9215
 7674TIP3   OH244436   2.861   3.821   2.597 -0.2206  0.0637  1.0949
 7674TIP3    H144437   2.941   3.861   2.563 -0.2448  0.2965  1.3104
 7674TIP3    H244438   2.867   3.832   2.692  0.6671 -2.1026  1.3376
 7675TIP3   OH244439   6.471   0.234  15.871 -0.4976  0.6677  1.0673
 7675TIP3    H144440   6.453   0.249  15.964 -2.3636  2.4267  0.4878
 7675TIP3    H244441   6.476   0.321  15.833  4.8770  0.2737  0.1583
 7676TIP3   OH244442   4.179   2.982   2.520 -0.2420  0.4833  0.3380
 7676TIP3    H144443   4.195   3.077   2.523 -1.5762  0.7763 -0.8043
 7676TIP3    H244444   4.169   2.962   2.427  2.8950 -1.3576  0.2667
 7677TIP3   OH244445   5.759   6.750  14.177 -0.0275  0.1006 -0.4516
 7677TIP3    H144446   5.756   6.833  14.225  1.3093  0.0536 -0.2313
 7677TIP3    H244447   5.705   6.764  14.100  1.2081  1.6613 -1.0928
 7678TIP3   OH244448   1.372   4.629  16.598  0.0261 -0.3456  0.4640
 7678TIP3    H144449   1.294   4.676  16.568  1.3225  0.6522 -1.6268
 7678TIP3    H244450   1.414   4.600  16.517  1.0963 -2.1002  1.5951
 7679TIP3   OH244451   5.587   5.233   0.785 -0.1336 -0.0439  0.2756
 7679TIP3    H144452   5.599   5.235   0.880 -0.3371  1.2458  0.2890
 7679TIP3    H244453   5.676   5.239   0.750 -0.1214  0.5081  0.3906
 7680TIP3   OH244454   0.801   2.465   0.902  1.1043  0.5230  0.3528
 7680TIP3    H144455   0.769   2.402   0.966  0.1706  1.7024  1.0989
 7680TIP3    H244456   0.870   2.419   0.855 -0.1904 -1.3452  0.2072
 7681TIP3   OH244457   2.408   4.182   5.572 -0.1080 -0.2676  0.4760
 7681TIP3    H144458   2.443   4.247   5.512  0.3335  0.8053  1.8426
 7681TIP3    H244459   2.318   4.169   5.544 -0.1150  0.7189 -0.0015
 7682TIP3   OH244460   4.412   4.942  14.549  0.5578 -0.0563  0.5221
 7682TIP3    H144461   4.329   4.988  14.535  0.5439 -0.7000 -2.2141
 7682TIP3    H244462   4.394   4.852  14.521  1.8337 -0.5456  1.2153
 7683TIP3   OH244463   1.248   3.392   1.475 -0.4521 -0.2683 -0.3199
 7683TIP3    H144464   1.180   3.439   1.523  0.6247 -0.2958  1.3124
 7683TIP3    H244465   1.236   3.419   1.384 -1.2744  1.4056  0.2409
 7684TIP3   OH244466   0.461   5.187   4.046 -0.2813 -0.4266 -0.3771
 7684TIP3    H144467   0.439   5.097   4.020 -2.4807 -0.2259  0.6341
 7684TIP3    H244468   0.377   5.231   4.056  0.7422  1.6799 -0.5133
 7685TIP3   OH244469   4.943   6.052   1.584  0.0839 -0.2505  0.0120
 7685TIP3    H144470   4.993   6.015   1.657  1.1002  1.5071  0.2548
 7685TIP3    H244471   4.906   6.133   1.619  0.6202  0.6463 -1.3979
 7686TIP3   OH244472   5.424   2.508   6.585  0.0800  0.4828  0.4352
 7686TIP3    H144473   5.480   2.482   6.658  0.2269  1.2994  0.6242
 7686TIP3    H244474   5.485   2.530   6.514  0.0605  2.1095  0.8862
 7687TIP3   OH244475   6.265   4.236  13.248  0.1441  0.4826 -0.2385
 7687TIP3    H144476   6.223   4.322  13.247 -1.2275 -0.1571 -0.1394
 7687TIP3    H244477   6.279   4.215  13.156  1.0684  1.0547 -0.2510
 7688TIP3   OH244478   1.742   2.646   2.926 -0.8613  0.4133  0.1222
 7688TIP3    H144479   1.783   2.729   2.901 -0.3132  0.6287  1.6119
 7688TIP3    H244480   1.688   2.668   3.002 -0.4730 -0.6487  0.7219
 7689TIP3   OH244481   3.715   5.975   1.853  0.5059 -0.1937  0.5510
 7689TIP3    H144482   3.784   6.018   1.904  1.1180 -2.0636  1.4065
 7689TIP3    H244483   3.762   5.917   1.793 -0.2611  1.0165 -1.3021
 7690TIP3   OH244484   0.495   3.889  13.712  0.3949  0.3752  0.2155
 7690TIP3    H144485   0.516   3.842  13.793 -1.0927 -3.3543 -1.2977
 7690TIP3    H244486   0.527   3.831  13.643 -0.6265  2.1902 -1.8882
 7691TIP3   OH244487   6.646   3.792   6.322  0.2921 -0.4129  0.1708
 7691TIP3    H144488   6.575   3.755   6.270 -0.6274  0.6275  0.6470
 7691TIP3    H244489   6.644   3.742   6.404 -1.8459  1.4436  1.3761
 7692TIP3   OH244490   5.788   0.056  12.546 -0.5321  0.2069  0.1316
 7692TIP3    H144491   5.822   0.143  12.568  0.8211 -0.1301 -0.5133
 7692TIP3    H244492   5.831   0.033  12.464 -0.1834 -1.4349  0.7286
 7693TIP3   OH244493   2.665   3.958  16.874 -0.0866 -0.0918  0.2908
 7693TIP3    H144494   2.641   3.880  16.925  1.4240 -1.1993 -0.5850
 7693TIP3    H244495   2.750   3.984  16.910  0.6396 -0.4377 -1.1148
 7694TIP3   OH244496   6.488   3.847  12.238  0.8218 -0.1009 -0.3545
 7694TIP3    H144497   6.535   3.911  12.292  0.1635  0.0065  0.0945
 7694TIP3    H244498   6.551   3.776  12.226  0.1886 -1.3347  2.7202
 7695TIP3   OH244499   4.826   3.290  15.557  0.4596  0.1107  0.7003
 7695TIP3    H144500   4.884   3.222  15.522 -0.7076 -0.5569  0.0163
 7695TIP3    H244501   4.871   3.372  15.538 -0.3498 -0.1621 -2.9947
 7696TIP3   OH244502   6.187   2.125   3.236 -0.2424  0.2257  0.4344
 7696TIP3    H144503   6.211   2.145   3.327 -1.6292 -0.6153  1.0254
 7696TIP3    H244504   6.107   2.074   3.244  0.2399 -0.8602 -1.2232
 7697TIP3   OH244505   6.361   3.999  10.890 -0.1728 -0.0693 -0.2264
 7697TIP3    H144506   6.423   4.064  10.924 -0.8308  0.6521 -0.3612
 7697TIP3    H244507   6.398   3.971  10.806  1.0030 -1.1926  0.6357
 7698TIP3   OH244508   0.551   1.308  12.804  0.2675  0.0777 -0.6661
 7698TIP3    H144509   0.619   1.325  12.869  0.1065 -1.9302  0.0962
 7698TIP3    H244510   0.553   1.213  12.791 -0.9420  0.2179 -2.2536
 7699TIP3   OH244511   1.472   3.633  15.955 -0.2816 -0.5558 -0.1926
 7699TIP3    H144512   1.526   3.707  15.927  1.0349 -1.3388  0.2137
 7699TIP3    H244513   1.533   3.560  15.964 -0.8811 -0.8067  3.0791
 7700TIP3   OH244514   2.086   4.745   3.364 -0.0848 -0.2907  0.0547
 7700TIP3    H144515   2.171   4.785   3.382 -0.3207  0.4245 -0.3707
 7700TIP3    H244516   2.027   4.819   3.351 -0.0886 -0.6907 -2.8701
 7701TIP3   OH244517   1.543   5.385  13.955 -0.0862 -0.0690  0.3191
 7701TIP3    H144518   1.520   5.467  14.000  0.8538  1.1457 -1.2951
 7701TIP3    H244519   1.460   5.352  13.921 -0.1322  2.4228 -2.4679
 7702TIP3   OH244520   5.274   2.391  11.983 -0.8588 -0.3410  0.2483
 7702TIP3    H144521   5.293   2.448  12.058  0.4045 -1.3565  0.7484
 7702TIP3    H244522   5.234   2.449  11.918 -0.4340  0.9271  1.0711
 7703TIP3   OH244523   4.122   3.797   2.507  0.0750 -0.3622  0.9027
 7703TIP3    H144524   4.104   3.888   2.483 -0.5657 -0.7634 -0.1948
 7703TIP3    H244525   4.068   3.745   2.448  1.8645 -1.5266  0.1978
 7704TIP3   OH244526   2.628   3.167   4.629  0.5801 -0.4148  0.2114
 7704TIP3    H144527   2.684   3.149   4.705  2.5068 -0.4725 -1.1697
 7704TIP3    H244528   2.672   3.238   4.582  0.3047 -1.4582 -1.7172
 7705TIP3   OH244529   6.648   6.006   3.455  0.1963 -0.0370  0.4212
 7705TIP3    H144530   6.721   6.020   3.515  1.2602  2.7382 -1.3170
 7705TIP3    H244531   6.583   5.957   3.506  2.5494 -1.1294  2.5521
 7706TIP3   OH244532   4.523   1.424   3.783  0.9426 -0.3021 -0.0059
 7706TIP3    H144533   4.577   1.358   3.828  0.2601  0.0433  1.3595
 7706TIP3    H244534   4.587   1.485   3.745  1.5415 -0.5204  0.6237
 7707TIP3   OH244535   2.170   6.526   3.528 -0.7859  0.0816 -0.2124
 7707TIP3    H144536   2.149   6.619   3.528 -0.2376  0.2509  1.7648
 7707TIP3    H244537   2.092   6.483   3.562 -0.1201  0.1242  1.4594
 7708TIP3   OH244538   0.880   4.233  14.587  0.1236 -0.2904 -0.3110
 7708TIP3    H144539   0.941   4.166  14.559 -0.0569 -0.5523 -0.0910
 7708TIP3    H244540   0.898   4.244  14.681 -0.6191 -0.8566 -0.0947
 7709TIP3   OH244541   1.156   1.064  16.300  0.2519  0.1016  0.6072
 7709TIP3    H144542   1.236   1.044  16.348  0.6892 -1.5284 -0.7210
 7709TIP3    H244543   1.185   1.111  16.222  0.3012 -2.7390 -1.2241
 7710TIP3   OH244544   0.902   3.244  14.175 -0.0688  0.2352 -0.8157
 7710TIP3    H144545   0.919   3.337  14.158 -0.2467  0.2209 -1.0836
 7710TIP3    H244546   0.891   3.206  14.088 -1.9856  0.3408 -0.6510
 7711TIP3   OH244547   2.325   4.963  12.671 -0.4746 -0.4991  0.6549
 7711TIP3    H144548   2.351   4.965  12.579  0.1419 -1.1495  0.8115
 7711TIP3    H244549   2.230   4.977  12.669 -0.1002  2.7475  0.1235
 7712TIP3   OH244550   6.130   4.518   0.017 -0.4738  0.2588  0.8913
 7712TIP3    H144551   6.175   4.592   0.058 -3.3326  1.4988  2.0894
 7712TIP3    H244552   6.156   4.442   0.068  1.1703  0.6740  0.7341
 7713TIP3   OH244553   3.017   5.597  12.959 -0.2414  0.3516  0.1534
 7713TIP3    H144554   3.059   5.548  12.888  0.4971 -1.1430  1.5664
 7713TIP3    H244555   2.977   5.673  12.915  0.1787 -0.5174 -1.8414
 7714TIP3   OH244556   1.941   2.652   0.515  0.0730  0.2753  0.4822
 7714TIP3    H144557   1.856   2.692   0.536  0.3042  0.4695  1.0638
 7714TIP3    H244558   1.934   2.629   0.422 -1.1782 -1.0732  0.8645
 7715TIP3   OH244559   4.586   2.063  12.831  0.1987 -0.0293 -0.0675
 7715TIP3    H144560   4.521   2.087  12.765 -0.5798 -1.8870 -0.0533
 7715TIP3    H244561   4.536   2.058  12.913  0.7311  0.2616  0.2764
 7716TIP3   OH244562   3.696   2.140   0.951 -0.5471 -0.0506 -0.4647
 7716TIP3    H144563   3.608   2.176   0.947 -0.4030  0.2541 -0.9624
 7716TIP3    H244564   3.702   2.081   0.876 -0.1826  0.2659 -0.6859
 7717TIP3   OH244565   1.128   4.794   4.089  0.3572 -0.0365 -0.1145
 7717TIP3    H144566   1.037   4.780   4.114 -0.2151  2.2420 -0.6618
 7717TIP3    H244567   1.129   4.777   3.995  0.6337 -0.5831 -0.0157
 7718TIP3   OH244568   6.092   1.909  14.714 -0.1241 -0.0904 -0.5759
 7718TIP3    H144569   6.059   1.971  14.779 -1.5121 -0.3522 -1.0005
 7718TIP3    H244570   6.164   1.956  14.671 -0.5526  0.8737 -0.2715
 7719TIP3   OH244571   0.806   3.428  10.877  0.7941  0.2422 -0.3021
 7719TIP3    H144572   0.836   3.510  10.837  0.9436 -0.1511 -1.0181
 7719TIP3    H244573   0.875   3.365  10.856  0.5130 -0.1494 -0.0552
 7720TIP3   OH244574   5.017   6.110   2.548 -0.1487  0.0303 -0.3733
 7720TIP3    H144575   5.062   6.063   2.618  1.2840 -0.4865 -1.5930
 7720TIP3    H244576   4.928   6.074   2.549  0.5514 -1.8161 -0.4423
 7721TIP3   OH244577   0.266   2.164  13.477  0.5007 -0.4147 -0.4313
 7721TIP3    H144578   0.205   2.228  13.515  0.3851 -1.0287  0.4686
 7721TIP3    H244579   0.322   2.215  13.420 -0.0593  0.3731 -0.2997
 7722TIP3   OH244580   0.784   6.634  10.963 -0.3373 -0.2364  0.2803
 7722TIP3    H144581   0.759   6.541  10.958 -0.0045 -0.5600  3.0018
 7722TIP3    H244582   0.801   6.659  10.872 -0.3484 -2.8591 -0.5326
 7723TIP3   OH244583   5.216   0.823  11.835  0.3206  0.4016 -0.1176
 7723TIP3    H144584   5.190   0.883  11.906  0.8695 -0.2334  0.6318
 7723TIP3    H244585   5.135   0.777  11.812  0.4494 -0.5773  1.2576
 7724TIP3   OH244586   4.133   3.383   6.159  0.4373 -0.0672 -0.1259
 7724TIP3    H144587   4.172   3.448   6.218  0.7576 -0.1301 -0.2671
 7724TIP3    H244588   4.043   3.372   6.192 -0.4386  2.1824 -1.4640
 7725TIP3   OH244589   4.852   3.922  17.030 -0.8666 -0.1354 -0.0671
 7725TIP3    H144590   4.869   3.847  17.087 -0.0381 -0.6093 -0.9073
 7725TIP3    H244591   4.845   3.884  16.942 -1.1432  0.6922 -0.4098
 7726TIP3   OH244592   3.429   6.029   1.175 -0.5669 -0.3001  0.3540
 7726TIP3    H144593   3.409   6.005   1.266 -0.3319 -1.5420  0.0966
 7726TIP3    H244594   3.511   5.983   1.156 -0.7513 -0.2538 -0.5663
 7727TIP3   OH244595   2.621   0.725   4.449  0.2646 -0.0804  0.1895
 7727TIP3    H144596   2.529   0.698   4.452  0.2464  0.0176  0.7625
 7727TIP3    H244597   2.653   0.695   4.364 -0.0404 -0.9583  0.3788
 7728TIP3   OH244598   6.165   2.512   2.444 -0.4399  0.0172 -0.5933
 7728TIP3    H144599   6.198   2.530   2.532 -1.5667  1.9526 -0.5183
 7728TIP3    H244600   6.229   2.554   2.386 -0.0923 -0.6238 -0.6843
 7729TIP3   OH244601   5.525   1.846  12.548 -0.3209  0.3504  0.4446
 7729TIP3    H144602   5.576   1.855  12.628  0.7582 -2.8478  0.2825
 7729TIP3    H244603   5.582   1.879  12.479 -0.6001  1.5961  0.7928
 7730TIP3   OH244604   0.313   6.721   5.983  0.3912  0.0836  0.3721
 7730TIP3    H144605   0.219   6.734   6.000  0.1508 -0.8572 -0.1517
 7730TIP3    H244606   0.357   6.781   6.042 -0.5842  1.8033 -0.5762
 7731TIP3   OH244607   5.647   6.088   0.419  0.3355  0.0905  0.2817
 7731TIP3    H144608   5.642   6.172   0.373  1.1551  0.4359  0.8034
 7731TIP3    H244609   5.570   6.040   0.389 -0.3189  1.1481  0.2049
 7732TIP3   OH244610   1.440   1.051  16.396  0.5536 -0.2648 -0.1843
 7732TIP3    H144611   1.532   1.033  16.415  1.3451  2.0013 -1.4559
 7732TIP3    H244612   1.431   1.036  16.301  0.3635  2.0641 -0.5987
 7733TIP3   OH244613   5.438   3.668   4.404  0.6547 -0.0015 -0.1456
 7733TIP3    H144614   5.461   3.757   4.433  0.5498 -0.3475  1.0622
 7733TIP3    H244615   5.500   3.611   4.450  1.0799 -0.5261 -1.3404
 7734TIP3   OH244616   5.280   6.677   0.236  0.2837  0.5740 -0.5120
 7734TIP3    H144617   5.359   6.630   0.207  1.7227  2.3137  0.3946
 7734TIP3    H244618   5.276   6.659   0.330 -0.5459  0.3241 -0.5902
 7735TIP3   OH244619   3.085   3.261  14.661 -0.5343 -0.4444  0.1149
 7735TIP3    H144620   2.997   3.249  14.627 -1.0190 -0.6708  1.4108
 7735TIP3    H244621   3.085   3.351  14.694  0.9980  1.0748 -3.4595
 7736TIP3   OH244622   4.364   2.117   4.894  0.3859 -0.5155 -0.0897
 7736TIP3    H144623   4.457   2.096   4.904  0.5755 -0.2275 -1.1404
 7736TIP3    H244624   4.328   2.044   4.844 -0.7589 -2.4528  3.2663
 7737TIP3   OH244625   2.870   6.017   3.084  0.5854  0.8778 -0.0925
 7737TIP3    H144626   2.922   5.936   3.082  0.3602  0.7330 -1.5382
 7737TIP3    H244627   2.782   5.988   3.106  0.5411  0.7383 -0.4382
 7738TIP3   OH244628   3.585   5.335   2.706  0.2337 -0.2207 -0.8155
 7738TIP3    H144629   3.495   5.347   2.674 -0.6933  0.3307  1.7788
 7738TIP3    H244630   3.612   5.422   2.735  1.9613 -0.2175 -2.2810
 7739TIP3   OH244631   5.939   4.593   2.713 -0.6446 -0.5664  0.1899
 7739TIP3    H144632   6.025   4.553   2.719 -0.7064 -0.7240  0.0436
 7739TIP3    H244633   5.956   4.687   2.713 -0.2381 -0.5392 -2.5091
 7740TIP3   OH244634   5.076   4.921   2.060  0.0566  0.2730  0.0400
 7740TIP3    H144635   5.142   4.987   2.037 -0.6341  0.6083 -1.0564
 7740TIP3    H244636   5.067   4.928   2.155  0.9116  0.8726  0.0916
 7741TIP3   OH244637   5.870   0.003  13.811 -0.5316 -0.1929 -0.0292
 7741TIP3    H144638   5.860   0.025  13.719  2.6510 -0.6574 -0.5965
 7741TIP3    H244639   5.935   0.066  13.844 -1.5541 -0.0705  1.9213
 7742TIP3   OH244640   3.424   2.496  11.144 -0.2830 -0.1300  0.0828
 7742TIP3    H144641   3.378   2.439  11.083  0.4666 -2.1487  1.2863
 7742TIP3    H244642   3.369   2.497  11.222 -0.5076  1.2253 -0.0645
 7743TIP3   OH244643   5.357   3.309  14.548  0.3996 -0.0198 -0.1331
 7743TIP3    H144644   5.422   3.282  14.613  1.4028 -0.9247 -1.4625
 7743TIP3    H244645   5.311   3.228  14.525  0.0411  0.2962 -0.5428
 7744TIP3   OH244646   2.882   0.096   1.064 -1.1404  0.3553  0.1375
 7744TIP3    H144647   2.888   0.057   1.151  0.8317  0.2176 -0.0065
 7744TIP3    H244648   2.964   0.145   1.055 -1.4049  0.5286 -1.5513
 7745TIP3   OH244649   5.976   1.940   2.244  0.0196  0.5526 -0.0874
 7745TIP3    H144650   6.021   1.915   2.163  0.0610  2.1356 -0.5933
 7745TIP3    H244651   5.995   2.034   2.254 -1.4896  0.7996  0.7818
 7746TIP3   OH244652   1.029   2.954   0.907 -0.0164 -0.5380 -0.4631
 7746TIP3    H144653   1.038   3.033   0.854  0.0499 -0.2015  0.0404
 7746TIP3    H244654   0.943   2.918   0.883 -1.3276  1.2113  1.2898
 7747TIP3   OH244655   4.946   1.056  16.295 -0.6903 -0.2493  0.1825
 7747TIP3    H144656   4.982   1.033  16.210 -0.7808 -2.7042  0.7385
 7747TIP3    H244657   4.867   1.003  16.304  0.1737 -1.2936  2.4086
 7748TIP3   OH244658   6.220   4.749  12.771 -0.6919  0.3063  0.5876
 7748TIP3    H144659   6.217   4.844  12.766  1.9475  0.4551  0.4712
 7748TIP3    H244660   6.222   4.719  12.680 -3.4407 -0.0442  0.5670
 7749TIP3   OH244661   0.317   3.251   4.733  0.0779  0.1276  0.3671
 7749TIP3    H144662   0.276   3.224   4.652 -0.0669 -0.7026  0.7050
 7749TIP3    H244663   0.254   3.311   4.774 -0.7287 -0.9886  0.7946
 7750TIP3   OH244664   0.653   5.739  15.412 -0.7453 -0.0785 -0.6183
 7750TIP3    H144665   0.641   5.772  15.324  0.4980 -0.1172 -0.8248
 7750TIP3    H244666   0.733   5.781  15.443 -0.7262 -0.6731  0.1834
 7751TIP3   OH244667   5.606   0.582   4.335 -0.6967  0.1530 -0.1043
 7751TIP3    H144668   5.593   0.656   4.395 -3.4177  0.5227 -1.0310
 7751TIP3    H244669   5.596   0.620   4.248  1.9651 -0.6196 -0.8484
 7752TIP3   OH244670   3.224   2.994   5.239 -0.3137 -0.8075  0.0979
 7752TIP3    H144671   3.273   2.988   5.157 -1.3067 -0.0298 -0.5812
 7752TIP3    H244672   3.290   3.012   5.306  0.3809 -0.2187 -0.7247
 7753TIP3   OH244673   1.071   2.900  10.997  0.1492  0.0565 -0.5318
 7753TIP3    H144674   1.113   2.892  10.912  0.0290  0.5591 -0.6431
 7753TIP3    H244675   0.978   2.901  10.978  0.0681 -1.2810 -0.2657
 7754TIP3   OH244676   4.353   1.829   0.725  0.3577  0.0836  0.1540
 7754TIP3    H144677   4.268   1.786   0.726  0.1225  0.5180  1.5634
 7754TIP3    H244678   4.362   1.867   0.813  1.3042  1.4152 -0.4749
 7755TIP3   OH244679   6.727   4.324   2.274  0.1608  0.0640  0.0970
 7755TIP3    H144680   6.805   4.359   2.315  1.5867 -0.7301 -1.8168
 7755TIP3    H244681   6.657   4.385   2.298  1.4177  0.9990  1.5152
 7756TIP3   OH244682   5.358   1.651   3.672 -0.0954  0.4771 -0.4369
 7756TIP3    H144683   5.424   1.650   3.742 -0.1656 -0.7773 -0.3801
 7756TIP3    H244684   5.407   1.672   3.593  0.2094  0.4954 -0.2457
 7757TIP3   OH244685   2.400   0.262   1.016 -0.3561 -0.0979  0.3592
 7757TIP3    H144686   2.390   0.182   0.964  0.8041  0.4159 -0.7021
 7757TIP3    H244687   2.488   0.254   1.053 -0.6952  0.1409  1.2434
 7758TIP3   OH244688   3.532   2.766  11.558 -0.1636  0.2011 -0.2242
 7758TIP3    H144689   3.588   2.793  11.485  2.2819  1.1005  1.8382
 7758TIP3    H244690   3.470   2.838  11.569 -0.5780  0.0381 -1.4056
 7759TIP3   OH244691   0.055   4.369  15.554  0.5030 -0.0467 -0.5145
 7759TIP3    H144692   0.026   4.456  15.527 -0.0119 -0.2628 -0.6819
 7759TIP3    H244693   0.044   4.315  15.476  0.7351 -0.2844 -0.3866
 7760TIP3   OH244694   6.420   4.895   1.414 -0.1644 -0.3000  0.5311
 7760TIP3    H144695   6.348   4.948   1.448 -1.0806 -0.4334 -1.0856
 7760TIP3    H244696   6.382   4.808   1.403 -0.6257  0.1951 -2.7673
 7761TIP3   OH244697   3.490   0.368  12.229  0.1277 -0.3752 -0.6730
 7761TIP3    H144698   3.535   0.431  12.174 -1.3583 -0.1746 -1.7090
 7761TIP3    H244699   3.551   0.351  12.301  1.6541  0.1858 -1.7844
 7762TIP3   OH244700   5.908   5.401  13.793  0.2187  0.1227  0.4819
 7762TIP3    H144701   5.964   5.365  13.724  1.1112  0.9795  0.7356
 7762TIP3    H244702   5.958   5.388  13.873  0.4331  1.6178  0.6178
 7763TIP3   OH244703   1.806   2.234  15.067 -0.0874  0.3209  0.2322
 7763TIP3    H144704   1.743   2.258  15.136 -0.6447 -1.3505  0.3369
 7763TIP3    H244705   1.756   2.177  15.009  1.0037 -0.0526 -0.3491
 7764TIP3   OH244706   2.819   3.343  14.525 -0.2381 -0.5843 -0.6485
 7764TIP3    H144707   2.765   3.278  14.480  3.2250 -2.4299 -2.4604
 7764TIP3    H244708   2.854   3.398  14.455  1.2640 -0.2808  0.2915
 7765TIP3   OH244709   3.938   6.051   2.013 -0.0058  0.0586  0.0334
 7765TIP3    H144710   3.996   5.975   2.012 -1.3737 -1.0247 -0.4329
 7765TIP3    H244711   3.996   6.126   2.001  1.4199 -0.8758  0.8553
 7766TIP3   OH244712   2.338   4.492  16.853 -0.1641  0.2494 -0.7358
 7766TIP3    H144713   2.319   4.449  16.936  2.3209  0.8013  0.2044
 7766TIP3    H244714   2.291   4.575  16.858 -1.1343 -0.2965 -0.5037
 7767TIP3   OH244715   5.997   4.877   4.269 -0.0242  0.1390 -0.3389
 7767TIP3    H144716   6.081   4.876   4.314 -0.2550  1.8731  0.2234
 7767TIP3    H244717   5.959   4.791   4.286  1.0448 -0.1706  0.5590
 7768TIP3   OH244718   1.359   4.114  14.384  0.0371  0.2184 -0.3378
 7768TIP3    H144719   1.366   4.021  14.360 -0.5120  0.2819 -0.7548
 7768TIP3    H244720   1.303   4.114  14.462  2.7782 -0.1031  1.7838
 7769TIP3   OH244721   3.271   5.768   3.458 -0.4053 -0.2533  0.2091
 7769TIP3    H144722   3.270   5.831   3.530 -1.1299 -0.0574  0.0271
 7769TIP3    H244723   3.301   5.687   3.499 -1.3882 -0.3016  0.8740
 7770TIP3   OH244724   1.681   0.215   2.800  0.1714  0.2104 -0.2796
 7770TIP3    H144725   1.611   0.227   2.864  1.4851  0.8172  1.0774
 7770TIP3    H244726   1.703   0.303   2.771  0.2785  0.0122 -0.8165
 7771TIP3   OH244727   3.911   1.874  11.713  0.3889  0.8126  0.0542
 7771TIP3    H144728   3.838   1.903  11.769  1.0762  3.0352 -0.0889
 7771TIP3    H244729   3.982   1.854  11.774 -0.2187 -1.1982  0.1834
 7772TIP3   OH244730   3.294   6.039  11.126 -0.2363  0.7906  0.6448
 7772TIP3    H144731   3.206   6.073  11.141 -1.2584 -0.9143 -1.1127
 7772TIP3    H244732   3.296   5.956  11.173  0.1408  0.4381  0.0149
 7773TIP3   OH244733   6.410   4.214  14.443  0.1738  0.4465 -0.1198
 7773TIP3    H144734   6.391   4.188  14.533 -0.1231 -0.0024 -0.3053
 7773TIP3    H244735   6.410   4.131  14.394 -1.4462  0.8381 -0.8575
 7774TIP3   OH244736   4.933   0.342   2.169  0.4860 -0.4328 -0.0621
 7774TIP3    H144737   4.974   0.261   2.140  0.5031  0.4356 -2.7479
 7774TIP3    H244738   4.839   0.322   2.170  0.4409 -0.3678 -1.3043
 7775TIP3   OH244739   6.783   5.521  12.868  0.1356  0.3164  0.0122
 7775TIP3    H144740   6.813   5.441  12.912 -0.5617  0.5331  0.9168
 7775TIP3    H244741   6.763   5.493  12.779 -1.3639 -0.8312  0.6724
 7776TIP3   OH244742   0.757   3.819  14.207  0.0909 -0.8679 -0.1672
 7776TIP3    H144743   0.677   3.770  14.229  0.4705 -2.1437 -1.4471
 7776TIP3    H244744   0.728   3.890  14.150 -0.1259 -1.4799 -0.8342
 7777TIP3   OH244745   0.930   4.432  17.177  0.5490  0.4405 -0.9717
 7777TIP3    H144746   0.894   4.513  17.142 -0.6012 -0.0328 -0.9178
 7777TIP3    H244747   0.916   4.438  17.272 -3.0297 -1.3939 -1.2351
 7778TIP3   OH244748   0.198   2.639  16.067  0.0299 -0.4416  0.2533
 7778TIP3    H144749   0.103   2.654  16.067 -0.2498 -1.7198  2.4750
 7778TIP3    H244750   0.207   2.546  16.047  0.7062 -0.6606  1.4862
 7779TIP3   OH244751   1.263   1.564  11.096  0.0143 -0.2309  0.2313
 7779TIP3    H144752   1.206   1.575  11.019 -1.1090 -0.2718  1.0338
 7779TIP3    H244753   1.257   1.470  11.116 -0.7166 -0.0138  1.1054
 7780TIP3   OH244754   1.775   0.709   1.875  0.2633  0.0747 -0.3742
 7780TIP3    H144755   1.810   0.785   1.829 -1.2761  0.9216 -0.2513
 7780TIP3    H244756   1.794   0.726   1.967 -1.3160  1.0965 -0.1816
 7781TIP3   OH244757   1.624   0.100   1.939 -0.1355  0.1194 -0.0643
 7781TIP3    H144758   1.704   0.149   1.919  0.0799 -0.1408  0.1499
 7781TIP3    H244759   1.654   0.023   1.987 -0.1950 -1.5794 -2.5490
 7782TIP3   OH244760   1.712   2.245   6.424  0.4231 -0.3416 -0.1373
 7782TIP3    H144761   1.751   2.216   6.506 -0.6238 -0.7468  0.2414
 7782TIP3    H244762   1.691   2.164   6.377  0.0482 -0.1343 -0.3291
 7783TIP3   OH244763   5.818   3.804   1.610  0.0205  0.3299  0.1786
 7783TIP3    H144764   5.897   3.758   1.638  0.5004  1.4724  0.8009
 7783TIP3    H244765   5.757   3.735   1.585  0.6185 -0.6538  1.3195
 7784TIP3   OH244766   0.160   2.332   5.565  0.3024 -0.1985  0.8134
 7784TIP3    H144767   0.178   2.248   5.608 -1.1283 -1.4285 -0.8655
 7784TIP3    H244768   0.179   2.316   5.472  0.9981  1.6627  0.5919
 7785TIP3   OH244769   4.919   1.439   0.275 -0.0400 -0.2557 -0.4436
 7785TIP3    H144770   4.827   1.437   0.301 -0.1890 -0.8959 -0.9969
 7785TIP3    H244771   4.918   1.481   0.189  0.3806  1.2861  0.2788
 7786TIP3   OH244772   4.018   2.736  14.617 -0.1676  0.0208  0.5301
 7786TIP3    H144773   4.037   2.724  14.524  0.2510  0.3407  0.5734
 7786TIP3    H244774   4.037   2.651  14.657 -1.9555 -0.6277  0.0728
 7787TIP3   OH244775   6.611   5.928  15.075 -0.2669 -0.2079  0.2064
 7787TIP3    H144776   6.667   5.994  15.116 -2.3721  1.7808  0.0406
 7787TIP3    H244777   6.627   5.849  15.126  0.4381  1.0662  2.0777
 7788TIP3   OH244778   3.778   3.896  15.821  0.4650 -0.3202 -0.3447
 7788TIP3    H144779   3.858   3.861  15.859  0.6109  0.4826  0.1108
 7788TIP3    H244780   3.766   3.846  15.740  1.3732 -0.5166 -0.3721
 7789TIP3   OH244781   1.735   0.778  15.793  0.3705 -0.3215  0.0327
 7789TIP3    H144782   1.675   0.729  15.737 -0.7995  0.5147  0.5110
 7789TIP3    H244783   1.733   0.868  15.758 -0.1198  0.1324  1.1877
 7790TIP3   OH244784   6.047   0.627  12.568  0.3405 -0.6055  0.3034
 7790TIP3    H144785   6.111   0.675  12.621  0.6880  1.2120 -1.6155
 7790TIP3    H244786   6.100   0.581  12.503 -0.2098 -0.6572 -0.1144
 7791TIP3   OH244787   2.146   6.259   1.990 -0.1205 -0.3760 -0.1845
 7791TIP3    H144788   2.220   6.285   2.045  0.7408 -0.1566 -1.4095
 7791TIP3    H244789   2.168   6.169   1.962 -0.2004 -0.2340 -0.7187
 7792TIP3   OH244790   2.071   3.723  12.033 -0.3004 -0.0461 -0.7399
 7792TIP3    H144791   2.014   3.655  11.996  1.2736 -1.2388 -1.0791
 7792TIP3    H244792   2.069   3.707  12.128  2.1925 -2.4325 -0.9807
 7793TIP3   OH244793   0.838   3.600  17.086 -0.6829 -0.0109  0.3300
 7793TIP3    H144794   0.768   3.665  17.087  0.9167  1.7812  0.0530
 7793TIP3    H244795   0.799   3.525  17.041 -2.9238  0.2797  1.6270
 7794TIP3   OH244796   4.724   6.651  15.155 -0.5114  0.1875  0.0422
 7794TIP3    H144797   4.802   6.631  15.104 -0.9706 -0.6267 -0.3738
 7794TIP3    H244798   4.744   6.733  15.200  0.2746  0.4037 -0.6815
 7795TIP3   OH244799   4.824   6.752   2.479 -0.3215 -0.2430 -0.5438
 7795TIP3    H144800   4.904   6.746   2.426 -0.0704  2.3032 -0.5567
 7795TIP3    H244801   4.771   6.818   2.435 -0.7354  0.9170  1.5873
 7796TIP3   OH244802   2.019   4.953  14.152 -0.2230  0.7464  0.3851
 7796TIP3    H144803   2.016   5.007  14.073 -2.3018 -1.5167 -1.2803
 7796TIP3    H244804   2.106   4.912  14.150  0.3364  1.9215  0.1736
 7797TIP3   OH244805   0.347   5.542   4.541  0.7396  0.5148 -0.1819
 7797TIP3    H144806   0.282   5.611   4.523  1.0131  0.3812 -1.8307
 7797TIP3    H244807   0.417   5.587   4.587  0.0276  0.9138  0.5397
 7798TIP3   OH244808   5.883   4.089  13.646 -0.3932 -0.1049  0.2228
 7798TIP3    H144809   5.909   4.140  13.569 -0.3671  0.2618  0.4692
 7798TIP3    H244810   5.815   4.030  13.614  0.0470 -0.3848 -0.2110
 7799TIP3   OH244811   6.396   2.352   2.101 -0.0106  0.0813 -0.1812
 7799TIP3    H144812   6.491   2.354   2.099  0.0575 -0.1452  1.4504
 7799TIP3    H244813   6.374   2.262   2.127 -0.6032  0.5829  1.1191
 7800TIP3   OH244814   3.694   3.661   2.539  0.9859 -0.1174 -0.1323
 7800TIP3    H144815   3.746   3.660   2.619 -1.1989  0.7364  1.4087
 7800TIP3    H244816   3.710   3.747   2.501  1.4431 -0.2312 -0.2005
 7801TIP3   OH244817   4.255   0.874  15.656 -0.8709 -0.7429  0.2155
 7801TIP3    H144818   4.181   0.814  15.645 -0.8025 -0.8966  0.5689
 7801TIP3    H244819   4.309   0.861  15.577 -1.5818 -0.1037 -0.3908
 7802TIP3   OH244820   6.215   1.001  14.666  0.2703  0.0196  0.6660
 7802TIP3    H144821   6.160   1.071  14.701 -0.4287 -0.2954  0.2139
 7802TIP3    H244822   6.235   0.946  14.742 -0.4324 -0.1263  0.7473
 7803TIP3   OH244823   6.283   3.084  10.387  0.0341  0.1038 -0.3559
 7803TIP3    H144824   6.372   3.105  10.413  0.7341 -2.3176 -0.5359
 7803TIP3    H244825   6.292   3.017  10.319 -1.9058  0.7649 -1.3498
 7804TIP3   OH244826   3.768   3.398  15.395 -0.9329 -0.1838 -0.4829
 7804TIP3    H144827   3.715   3.446  15.459 -0.6473 -2.1785  1.3810
 7804TIP3    H244828   3.705   3.344  15.347 -0.9704  0.1354 -0.7970
 7805TIP3   OH244829   3.688   3.450  16.138  0.8641 -0.3762 -0.0976
 7805TIP3    H144830   3.675   3.366  16.182  0.6714 -0.2012  0.1820
 7805TIP3    H244831   3.752   3.496  16.191  1.3470 -0.5375 -0.5252
 7806TIP3   OH244832   5.219   5.811   3.841 -0.5169  0.6292 -0.2503
 7806TIP3    H144833   5.307   5.844   3.853 -0.1602 -0.5029  0.4304
 7806TIP3    H244834   5.229   5.716   3.841 -1.5979  0.4974 -1.2866
 7807TIP3   OH244835   2.973   1.749  12.302 -0.3020 -0.0542 -0.6583
 7807TIP3    H144836   2.989   1.840  12.278  1.2772 -0.1149  0.0593
 7807TIP3    H244837   3.040   1.699  12.256 -0.3357 -0.7144 -0.0197
 7808TIP3   OH244838   5.401   6.233   5.326  0.0340 -0.1653 -0.2290
 7808TIP3    H144839   5.314   6.192   5.324 -0.4369  0.7704  0.4247
 7808TIP3    H244840   5.450   6.187   5.259 -1.2204 -0.1540 -1.1985
 7809TIP3   OH244841   1.212   4.748   1.228 -0.2501 -0.8150  0.4154
 7809TIP3    H144842   1.307   4.741   1.228 -0.2894 -1.4454 -0.2581
 7809TIP3    H244843   1.190   4.779   1.316  0.4989 -1.8329  0.9794
 7810TIP3   OH244844   4.926   6.223  16.671 -0.1909  0.0955  0.8878
 7810TIP3    H144845   5.010   6.258  16.698 -0.4573  1.3565  0.1627
 7810TIP3    H244846   4.947   6.162  16.600 -0.0054  2.2663 -1.0451
 7811TIP3   OH244847   3.575   5.180  11.669 -0.5136 -0.6751  0.7821
 7811TIP3    H144848   3.481   5.172  11.654 -0.3702  0.0338 -0.6333
 7811TIP3    H244849   3.594   5.273  11.656  0.6393 -1.0674 -0.6563
 7812TIP3   OH244850   5.694   4.091  16.209 -0.3795  0.3980 -0.7358
 7812TIP3    H144851   5.647   4.027  16.262  2.7370 -0.2578  1.5448
 7812TIP3    H244852   5.684   4.061  16.119  0.8750 -3.3663  0.2083
 7813TIP3   OH244853   2.264   0.203   2.610  0.4030  0.1441 -0.1296
 7813TIP3    H144854   2.354   0.180   2.636  0.9326  1.0166 -1.1188
 7813TIP3    H244855   2.268   0.209   2.515 -0.4290  1.3184 -0.1044
 7814TIP3   OH244856   2.502   4.011  15.794  0.7418  0.1605 -0.2773
 7814TIP3    H144857   2.500   3.962  15.711 -0.3013 -1.2307  0.5261
 7814TIP3    H244858   2.413   4.046  15.803  0.2193 -1.4094  1.1877
 7815TIP3   OH244859   1.232   0.247   5.361 -0.5235 -0.0062 -0.2337
 7815TIP3    H144860   1.203   0.165   5.399  0.6626  0.2549  1.3231
 7815TIP3    H244861   1.157   0.306   5.370 -0.1543  0.1798  2.1806
 7816TIP3   OH244862   3.093   0.651   3.049  0.1994  0.2010  0.1428
 7816TIP3    H144863   3.144   0.586   3.001 -0.4689 -0.3477  0.1570
 7816TIP3    H244864   3.105   0.732   3.001  0.8894  0.0286  0.0137
 7817TIP3   OH244865   6.520   6.471  11.916 -0.4678  0.3844  0.2679
 7817TIP3    H144866   6.578   6.399  11.942 -0.6126  0.9587  2.3851
 7817TIP3    H244867   6.556   6.548  11.962 -0.7386  1.5284 -1.3702
 7818TIP3   OH244868   4.775   1.875  13.758  0.1482 -0.2964 -0.3269
 7818TIP3    H144869   4.825   1.957  13.763 -0.0960 -0.0303 -1.7193
 7818TIP3    H244870   4.745   1.871  13.667  2.1021 -3.0660 -0.9818
 7819TIP3   OH244871   1.780   1.073   5.476  0.0146  0.2652 -0.4020
 7819TIP3    H144872   1.747   1.162   5.486 -1.8835 -0.3586 -0.6350
 7819TIP3    H244873   1.797   1.044   5.566 -0.0351  0.6297 -0.2727
 7820TIP3   OH244874   4.545   6.684   5.020 -0.9748 -0.7464 -0.1955
 7820TIP3    H144875   4.625   6.633   5.030 -1.2705 -1.2902 -0.5831
 7820TIP3    H244876   4.508   6.687   5.108 -0.7018 -0.7712 -0.0774
 7821TIP3   OH244877   4.795   6.365   3.442 -0.5532  0.5117 -0.3558
 7821TIP3    H144878   4.840   6.338   3.363  0.3092 -1.6435  0.7889
 7821TIP3    H244879   4.702   6.355   3.422 -0.3118 -1.2761 -0.7124
 7822TIP3   OH244880   5.272   2.684   3.296 -0.0780  0.5732 -0.2325
 7822TIP3    H144881   5.241   2.718   3.380 -0.3023 -0.8353  0.2799
 7822TIP3    H244882   5.367   2.694   3.299 -0.0367  0.0535  0.4190
 7823TIP3   OH244883   0.899   3.870   4.511 -0.2287 -0.1971 -0.0420
 7823TIP3    H144884   0.831   3.882   4.578  0.4221 -1.6451  0.9416
 7823TIP3    H244885   0.892   3.777   4.488 -0.2493  0.2176 -1.8018
 7824TIP3   OH244886   5.083   3.277  14.382 -0.3089  0.0578  0.1289
 7824TIP3    H144887   5.141   3.231  14.320  0.7719  1.8114 -0.2375
 7824TIP3    H244888   5.115   3.251  14.468  1.1487  1.0728 -0.0656
 7825TIP3   OH244889   0.793   5.847   4.055 -0.2155 -0.3504 -0.2409
 7825TIP3    H144890   0.735   5.799   4.114 -0.2756  0.4029  0.3305
 7825TIP3    H244891   0.773   5.939   4.071  1.5736 -0.0336  0.4542
 7826TIP3   OH244892   6.649   3.233   6.204 -0.1146 -0.1701  0.0857
 7826TIP3    H144893   6.584   3.301   6.219  1.1385  1.2059 -0.4435
 7826TIP3    H244894   6.663   3.194   6.290 -0.7881  0.3019  0.4199
 7827TIP3   OH244895   1.847   3.642   5.994 -0.2060  0.4687  0.3361
 7827TIP3    H144896   1.840   3.550   6.020 -1.0616  0.4030 -0.1150
 7827TIP3    H244897   1.883   3.685   6.072  1.9965 -0.5234 -0.0536
 7828TIP3   OH244898   1.925   3.093   5.870 -0.6112  0.0210  0.0944
 7828TIP3    H144899   1.971   3.174   5.895  1.1220 -1.1676  0.9416
 7828TIP3    H244900   1.986   3.048   5.811 -1.2529 -0.9930  0.1822
 7829TIP3   OH244901   2.685   6.265  15.735 -0.0349 -0.8896  0.1081
 7829TIP3    H144902   2.636   6.295  15.812 -1.6573 -1.1758 -0.7809
 7829TIP3    H244903   2.765   6.226  15.772 -0.0974  0.2436  1.5558
 7830TIP3   OH244904   2.561   6.638  12.337  0.0267  1.0566 -0.2949
 7830TIP3    H144905   2.599   6.655  12.423 -1.7793 -0.3289  0.8344
 7830TIP3    H244906   2.557   6.543  12.331 -2.7517  1.1277 -0.5538
 7831TIP3   OH244907   5.399   3.250  16.666 -0.0147 -1.1347 -0.2322
 7831TIP3    H144908   5.306   3.266  16.649  0.7408  0.9036 -3.0938
 7831TIP3    H244909   5.413   3.282  16.755 -1.8213 -0.4014 -0.1808
 7832TIP3   OH244910   4.008   0.365  15.097  0.0531 -0.0084 -0.5053
 7832TIP3    H144911   3.937   0.312  15.134  0.5808 -0.1879  0.2803
 7832TIP3    H244912   4.001   0.352  15.003 -1.4764  0.6432 -0.5086
 7833TIP3   OH244913   2.828   5.838   0.331  0.1696 -0.1629  0.0782
 7833TIP3    H144914   2.777   5.909   0.292 -0.5993 -1.3242 -1.1115
 7833TIP3    H244915   2.883   5.806   0.260  0.1725 -1.0564  0.4711
 7834TIP3   OH244916   5.214   6.413  11.783 -0.4058  0.1534 -0.4056
 7834TIP3    H144917   5.156   6.350  11.827 -2.5900  2.0943 -0.2827
 7834TIP3    H244918   5.294   6.412  11.835 -0.6250 -1.9814 -0.0141
 7835TIP3   OH244919   1.371   6.344  15.545  0.1371  0.6396  0.4925
 7835TIP3    H144920   1.400   6.373  15.459 -2.2807  1.0285 -0.2546
 7835TIP3    H244921   1.437   6.280  15.572  1.5031  1.2732 -1.1589
 7836TIP3   OH244922   3.679   2.877   5.661  0.4076  0.1264  0.0103
 7836TIP3    H144923   3.606   2.937   5.677 -0.0683 -0.1150 -1.1666
 7836TIP3    H244924   3.750   2.934   5.629  0.5604  0.2822  0.6057
 7837TIP3   OH244925   4.289   5.065  15.800 -0.1480 -0.0336 -0.0275
 7837TIP3    H144926   4.313   5.097  15.714  0.6794 -1.7733 -0.5020
 7837TIP3    H244927   4.320   4.974  15.801 -2.6906 -1.0019  1.0384
 7838TIP3   OH244928   4.102   3.047   0.756 -0.1960 -0.3342 -0.1215
 7838TIP3    H144929   4.172   2.997   0.714 -0.4383  0.6833 -1.8409
 7838TIP3    H244930   4.147   3.122   0.795 -0.1205 -0.6178  0.3390
 7839TIP3   OH244931   1.502   6.661  15.249  0.2199  0.0953 -0.0470
 7839TIP3    H144932   1.495   6.679  15.342 -1.2084 -0.6257  0.0111
 7839TIP3    H244933   1.567   6.724  15.217  2.3110 -1.0047  1.7626
 7840TIP3   OH244934   5.645   4.178   1.012 -0.1379 -0.2265 -0.1863
 7840TIP3    H144935   5.667   4.089   0.984  0.3997  0.0227 -0.5903
 7840TIP3    H244936   5.721   4.230   0.986 -0.2613  0.2746  0.4388
 7841TIP3   OH244937   1.416   2.211  16.634 -0.3289  0.1033 -0.2856
 7841TIP3    H144938   1.333   2.237  16.595 -0.4534  0.5151  0.2389
 7841TIP3    H244939   1.470   2.183  16.560 -1.8229 -2.7877 -0.4054
 7842TIP3   OH244940   4.992   0.731  12.109  1.1526  0.3504  0.3069
 7842TIP3    H144941   5.010   0.678  12.187  0.8339 -0.7742 -0.3676
 7842TIP3    H244942   4.972   0.818  12.144  1.0381 -0.1255  1.4756
 7843TIP3   OH244943   2.178   6.470  10.770 -0.0575  0.3427  0.6316
 7843TIP3    H144944   2.174   6.376  10.748 -3.0644  0.7698 -1.2414
 7843TIP3    H244945   2.249   6.504  10.715  0.6277 -0.6979  0.8414
 7844TIP3   OH244946   5.149   0.514   3.265  0.5514 -0.6789 -0.5049
 7844TIP3    H144947   5.182   0.481   3.348  0.7429 -0.7120 -0.5943
 7844TIP3    H244948   5.092   0.444   3.233 -0.2016 -0.3148  0.0031
 7845TIP3   OH244949   1.234   3.944  12.920 -0.3391 -0.0019  0.2810
 7845TIP3    H144950   1.165   3.996  12.961  0.7053 -0.2637  2.4898
 7845TIP3    H244951   1.304   3.941  12.984  1.3512 -0.6122 -1.4954
 7846TIP3   OH244952   3.408   0.165   4.325 -0.6500 -0.1842  0.0228
 7846TIP3    H144953   3.486   0.211   4.294 -0.2460  0.5574  1.9902
 7846TIP3    H244954   3.405   0.085   4.273  1.2574 -0.0814 -0.3097
 7847TIP3   OH244955   2.897   1.200   1.957  0.0438 -0.2749 -0.8454
 7847TIP3    H144956   2.966   1.137   1.939  0.0192 -0.0194 -1.9266
 7847TIP3    H244957   2.910   1.269   1.892  0.1933  0.9451  0.4292
 7848TIP3   OH244958   3.043   5.031   3.177  0.2766  0.3233  0.2223
 7848TIP3    H144959   3.030   5.069   3.090  0.3504 -1.6539 -0.7151
 7848TIP3    H244960   3.134   5.001   3.176  0.0907 -0.2684  0.7582
 7849TIP3   OH244961   6.507   3.206  15.775  0.1955 -0.3639  0.1307
 7849TIP3    H144962   6.587   3.231  15.821 -1.0503  2.6270  0.9634
 7849TIP3    H244963   6.527   3.219  15.682  0.2499  2.1340  0.4241
 7850TIP3   OH244964   4.408   2.313   1.392 -0.1776 -0.6382 -0.1221
 7850TIP3    H144965   4.394   2.236   1.446  0.1167  0.8473  2.2092
 7850TIP3    H244966   4.490   2.351   1.425 -1.2563  1.6601  0.1191
 7851TIP3   OH244967   1.391   1.719  14.572  0.1139 -0.2330  0.8992
 7851TIP3    H144968   1.320   1.739  14.634 -0.1889 -0.4086  0.6097
 7851TIP3    H244969   1.471   1.728  14.624 -0.1933 -1.8564  1.7478
 7852TIP3   OH244970   2.229   6.477   3.878  0.0357 -0.0082 -0.1064
 7852TIP3    H144971   2.310   6.452   3.833  0.4273  2.1014 -0.6786
 7852TIP3    H244972   2.181   6.395   3.888  0.9670 -0.8893 -2.3081
 7853TIP3   OH244973   1.477   1.635   6.232 -0.8552  0.4942  0.2705
 7853TIP3    H144974   1.417   1.563   6.213 -0.5957 -0.0138  1.3109
 7853TIP3    H244975   1.541   1.632   6.161 -0.0282 -1.2220  1.0291
 7854TIP3   OH244976   5.499   4.228   0.327 -0.0310  0.0736 -0.2826
 7854TIP3    H144977   5.530   4.302   0.378  1.4722  0.8438 -2.2227
 7854TIP3    H244978   5.526   4.151   0.377 -0.6291  0.7798  1.1904
 7855TIP3   OH244979   3.853   0.019   3.752 -0.4744 -0.1251 -0.0036
 7855TIP3    H144980   3.848   0.104   3.708  2.6528 -0.4957 -1.3583
 7855TIP3    H244981   3.911   0.034   3.827 -0.7957 -0.8321  0.4016
 7856TIP3   OH244982   1.284   2.421   0.919  0.7624  0.0953  0.5821
 7856TIP3    H144983   1.275   2.428   0.824  2.0089 -0.7185  0.3891
 7856TIP3    H244984   1.215   2.478   0.953  0.1095  0.1840 -0.7993
 7857TIP3   OH244985   5.917   3.396   1.754  0.5226 -0.6924 -0.0945
 7857TIP3    H144986   5.982   3.457   1.719  0.5001  0.2760  1.4701
 7857TIP3    H244987   5.939   3.312   1.714  0.4663  0.3101 -2.4352
 7858TIP3   OH244988   1.527   5.699   3.867 -0.4661  0.0359  0.3451
 7858TIP3    H144989   1.454   5.743   3.823  0.5875 -0.7949 -2.4312
 7858TIP3    H244990   1.600   5.759   3.859 -0.1089 -0.3848  0.4192
 7859TIP3   OH244991   4.077   5.569   3.219 -0.7486 -0.1775  0.5060
 7859TIP3    H144992   4.169   5.554   3.236 -0.7594 -1.1771 -0.2253
 7859TIP3    H244993   4.065   5.664   3.230  0.3637 -0.0392  0.5733
 7860TIP3   OH244994   3.257   0.742   6.196  0.2588  0.1505 -0.1394
 7860TIP3    H144995   3.353   0.745   6.197  0.2522  0.3286 -0.0740
 7860TIP3    H244996   3.233   0.769   6.108  0.1935  2.2631  0.4627
 7861TIP3   OH244997   3.396   5.149  11.360  0.1251 -0.3733  0.5957
 7861TIP3    H144998   3.409   5.240  11.387 -0.5527 -0.5789  1.6947
 7861TIP3    H244999   3.453   5.137  11.284  0.9476  0.6885  1.0355
 7862TIP3   OH245000   2.420   4.117  14.411  0.2026 -0.1871 -0.0227
 7862TIP3    H145001   2.376   4.184  14.463  1.0799 -0.3157  0.9245
 7862TIP3    H245002   2.484   4.078  14.472  0.5289 -1.0588 -0.9002
 7863TIP3   OH245003   2.167   5.230   6.239 -0.5751  0.2124 -0.9852
 7863TIP3    H145004   2.226   5.304   6.225  2.7837 -1.9791  0.4335
 7863TIP3    H245005   2.187   5.168   6.169 -0.0292 -1.2091  0.3679
 7864TIP3   OH245006   0.489   2.206  10.906  0.0915 -0.6109  0.0064
 7864TIP3    H145007   0.556   2.161  10.856  0.5579 -0.5639  0.5852
 7864TIP3    H245008   0.491   2.296  10.873  0.2885 -0.6176  0.0025
 7865TIP3   OH245009   3.372   6.039  16.831 -0.4075  0.0735 -0.4023
 7865TIP3    H145010   3.435   6.111  16.826  1.4611 -1.0058  3.7258
 7865TIP3    H245011   3.426   5.960  16.842 -2.4484 -1.6130 -1.5922
 7866TIP3   OH245012   1.765   0.541   5.005  0.3297 -0.5233  0.2825
 7866TIP3    H145013   1.794   0.450   4.995  1.8878 -0.0113 -0.1749
 7866TIP3    H245014   1.705   0.539   5.080  0.3040 -1.9286  0.2496
 7867TIP3   OH245015   4.785   6.374   0.174  0.1715 -0.0111  0.9523
 7867TIP3    H145016   4.873   6.395   0.205 -0.3169  2.2666  0.9747
 7867TIP3    H245017   4.762   6.447   0.116 -1.2323 -1.1949 -0.0646
 7868TIP3   OH245018   0.603   6.364  12.906 -0.5319  0.0243  0.3149
 7868TIP3    H145019   0.641   6.441  12.950 -0.1656  0.8068 -1.2833
 7868TIP3    H245020   0.663   6.293  12.927  1.7386  1.1641 -1.8620
 7869TIP3   OH245021   2.630   3.283  14.785 -0.6179 -0.0842  0.0290
 7869TIP3    H145022   2.569   3.303  14.857 -0.0349 -2.6479  1.3746
 7869TIP3    H245023   2.633   3.187  14.783  2.3839 -0.0716 -0.8266
 7870TIP3   OH245024   1.603   6.635   4.626 -0.3465 -0.3549 -0.4931
 7870TIP3    H145025   1.622   6.598   4.539 -1.6069 -0.3244 -0.8066
 7870TIP3    H245026   1.508   6.627   4.634 -0.0742 -2.7008  1.9387
 7871TIP3   OH245027   3.243   4.241   1.299  0.4120  0.5423  0.2192
 7871TIP3    H145028   3.296   4.268   1.374  1.3567  0.3309 -0.3479
 7871TIP3    H245029   3.264   4.148   1.288 -0.6779  0.2506  0.4470
 7872TIP3   OH245030   2.576   3.650   3.108  0.0490  0.2806 -0.4428
 7872TIP3    H145031   2.615   3.567   3.136 -0.1864 -0.0580 -1.1051
 7872TIP3    H245032   2.620   3.716   3.161  0.0213 -0.2920  0.3125
 7873TIP3   OH245033   6.125   1.401  17.109  0.5519  0.0274 -0.0392
 7873TIP3    H145034   6.154   1.314  17.138  2.0339  0.6069  0.2727
 7873TIP3    H245035   6.191   1.461  17.142 -1.2069  1.4870  1.0374
 7874TIP3   OH245036   1.195   3.486   4.352 -0.5435  0.5288 -0.1624
 7874TIP3    H145037   1.171   3.546   4.423  1.1807 -1.7484  2.5659
 7874TIP3    H245038   1.114   3.437   4.334 -0.3972 -0.8554  2.4421
 7875TIP3   OH245039   2.184   3.952   4.610 -0.0983  0.6510  0.3300
 7875TIP3    H145040   2.260   4.008   4.627  0.0961  0.4417  0.1532
 7875TIP3    H245041   2.222   3.868   4.583 -0.3697  0.1981  1.3047
 7876TIP3   OH245042   1.153   5.921   4.124 -0.0963 -0.1806  0.9032
 7876TIP3    H145043   1.109   5.899   4.042 -0.1911 -0.8032  1.1193
 7876TIP3    H245044   1.083   5.960   4.178  0.0808  0.7039  0.5084
 7877TIP3   OH245045   1.727   0.330   3.136  0.5824 -0.2304 -0.0833
 7877TIP3    H145046   1.683   0.328   3.051  0.7209 -0.6952 -0.1453
 7877TIP3    H245047   1.707   0.417   3.171  0.2551 -0.1567 -0.4465
 7878TIP3   OH245048   4.756   5.959   2.687 -0.2372  0.1422 -0.3033
 7878TIP3    H145049   4.698   5.965   2.611  2.0156  0.6730 -2.1213
 7878TIP3    H245050   4.789   5.869   2.685 -3.0249 -1.1135  2.4614
 7879TIP3   OH245051   4.499   3.659   5.410 -0.0688 -0.1348 -0.3684
 7879TIP3    H145052   4.587   3.637   5.378 -0.6543  0.2995 -2.4769
 7879TIP3    H245053   4.458   3.575   5.429  0.4282 -0.4030 -0.4601
 7880TIP3   OH245054   4.689   3.991   1.887  0.4341  0.1164 -0.3193
 7880TIP3    H145055   4.619   3.948   1.839  0.3631  0.0043 -0.1151
 7880TIP3    H245056   4.667   3.978   1.980  2.3591 -2.7902 -0.1275
 7881TIP3   OH245057   0.770   4.265   4.356 -0.4163 -0.2361 -0.0666
 7881TIP3    H145058   0.855   4.247   4.396 -0.0237 -1.4469 -1.3925
 7881TIP3    H245059   0.707   4.215   4.408 -0.2902  0.3443  0.6655
 7882TIP3   OH245060   1.629   4.985   3.124 -0.0557 -0.6679  0.0530
 7882TIP3    H145061   1.666   4.898   3.141  1.3944 -0.0649  0.1150
 7882TIP3    H245062   1.560   4.969   3.060  0.5497 -1.8057 -0.3576
 7883TIP3   OH245063   2.844   3.100  15.245  0.6976  0.2518  0.2258
 7883TIP3    H145064   2.796   3.165  15.192  1.2477  1.4643  1.1592
 7883TIP3    H245065   2.933   3.102  15.209  0.2879 -1.4161 -0.9849
 7884TIP3   OH245066   5.132   6.733   1.341 -0.1642  0.2240 -0.2590
 7884TIP3    H145067   5.105   6.670   1.274  0.0962 -0.5553  0.3530
 7884TIP3    H245068   5.139   6.681   1.421 -0.7953  1.2084  0.4530
 7885TIP3   OH245069   2.447   3.994  12.809 -0.0533  0.1060  0.0559
 7885TIP3    H145070   2.381   3.926  12.824  0.8764 -0.8781 -0.2109
 7885TIP3    H245071   2.401   4.076  12.827 -1.4041 -0.5402 -0.3091
 7886TIP3   OH245072   4.627   3.204  14.078 -0.0809  0.0593  0.8008
 7886TIP3    H145073   4.576   3.136  14.033  2.1596 -0.8162 -0.5896
 7886TIP3    H245074   4.669   3.157  14.151  1.1351  0.0038  0.0912
 7887TIP3   OH245075   2.073   1.058   1.758  0.0504 -0.3019  0.1032
 7887TIP3    H145076   2.165   1.050   1.786  0.1865  1.2580  0.1910
 7887TIP3    H245077   2.047   1.145   1.788 -0.5391  0.5032 -2.5040
 7888TIP3   OH245078   0.285   5.788   1.476  0.5668  0.2331  0.1865
 7888TIP3    H145079   0.296   5.771   1.382 -3.4514 -0.4984 -0.3369
 7888TIP3    H245080   0.335   5.719   1.519 -1.7321 -2.7845 -1.6343
 7889TIP3   OH245081   1.851   2.595   2.003 -0.2034 -0.2657  0.4134
 7889TIP3    H145082   1.915   2.528   1.978 -1.5470 -2.0394  1.5510
 7889TIP3    H245083   1.886   2.631   2.085 -0.4165 -0.9121  0.7947
 7890TIP3   OH245084   1.432   5.708  14.546  0.0427  0.4284  0.1013
 7890TIP3    H145085   1.449   5.795  14.581  0.3543  0.3293  0.1946
 7890TIP3    H245086   1.471   5.709  14.459  2.6935 -0.5719  1.1955
 7891TIP3   OH245087   0.207   2.723   4.970 -0.5918  0.3995  0.6824
 7891TIP3    H145088   0.239   2.647   4.923  1.6039 -0.1261  2.8337
 7891TIP3    H245089   0.145   2.688   5.034 -1.7542  0.8093 -0.1945
 7892TIP3   OH245090   1.034   4.518  14.027 -0.0599  0.6739  0.3565
 7892TIP3    H145091   1.066   4.443  13.978 -1.0964  0.7734 -0.4936
 7892TIP3    H245092   0.939   4.510  14.026 -0.1766  1.8127  0.5480
 7893TIP3   OH245093   1.552   3.755  15.570  0.0986 -0.3187 -0.3810
 7893TIP3    H145094   1.528   3.814  15.499  1.0273  1.8770  1.0309
 7893TIP3    H245095   1.478   3.695  15.576 -1.3848  1.3055 -1.2567
 7894TIP3   OH245096   1.144   1.077  16.974 -0.0067  0.3142  0.2121
 7894TIP3    H145097   1.192   1.143  16.924  1.6538 -0.8490  0.2130
 7894TIP3    H245098   1.056   1.078  16.936  0.5037  1.2458 -1.0079
 7895TIP3   OH245099   1.794   5.082   5.365 -0.3698 -0.5717  0.6893
 7895TIP3    H145100   1.702   5.097   5.343 -0.1822 -1.2135 -0.5650
 7895TIP3    H245101   1.843   5.134   5.302  0.1622  1.3255  2.5224
 7896TIP3   OH245102   1.336   4.639  14.529  0.1071 -0.5496  0.0366
 7896TIP3    H145103   1.273   4.569  14.545 -1.3770  0.7474  0.0970
 7896TIP3    H245104   1.392   4.606  14.459 -1.4113 -1.2709 -0.8822
 7897TIP3   OH245105   4.768   6.183   2.824 -0.5148  0.0343 -0.0902
 7897TIP3    H145106   4.787   6.103   2.775  1.3788  0.6638 -0.4725
 7897TIP3    H245107   4.849   6.202   2.871 -1.1304  1.4064  0.4645
 7898TIP3   OH245108   1.158   6.483  16.126  0.1662  0.2452 -0.0156
 7898TIP3    H145109   1.093   6.539  16.085  0.3689 -0.6473 -1.6343
 7898TIP3    H245110   1.235   6.539  16.136  0.1037  0.5000 -0.8596
 7899TIP3   OH245111   3.662   6.628  14.498  0.4488 -0.1878  0.6802
 7899TIP3    H145112   3.732   6.628  14.432  1.0880  0.5621  1.3506
 7899TIP3    H245113   3.623   6.541  14.490  0.8123 -0.2704 -0.3777
 7900TIP3   OH245114   5.004   3.476   4.895 -0.4535 -0.5653  0.0962
 7900TIP3    H145115   4.978   3.527   4.818 -0.2737 -1.2772 -0.4520
 7900TIP3    H245116   5.070   3.531   4.939 -0.1202 -0.4001 -0.5863
 7901TIP3   OH245117   1.650   0.706   3.878 -0.2070 -0.3901 -0.4297
 7901TIP3    H145118   1.690   0.694   3.964 -1.6701 -0.5458  0.2488
 7901TIP3    H245119   1.595   0.629   3.866 -1.0730  0.2932 -0.9025
 7902TIP3   OH245120   5.605   5.942  12.809  0.6675 -0.3333  0.9368
 7902TIP3    H145121   5.650   5.901  12.883  2.6776 -0.3142 -0.2227
 7902TIP3    H245122   5.674   5.984  12.758 -0.4715 -1.1917 -1.5020
 7903TIP3   OH245123   5.517   2.131  14.161  0.8949 -0.1445 -0.1565
 7903TIP3    H145124   5.529   2.064  14.094 -2.2602 -2.7505  1.5889
 7903TIP3    H245125   5.489   2.209  14.113 -2.8001 -2.3379 -1.9987
 7904TIP3   OH245126   1.752   6.531  10.787 -0.2360  0.3313  0.5485
 7904TIP3    H145127   1.676   6.538  10.731 -0.0343 -1.5400 -0.0422
 7904TIP3    H245128   1.811   6.601  10.759 -0.4462 -0.1275 -1.0910
 7905TIP3   OH245129   2.468   2.645   3.090 -0.0162  0.0489 -0.9712
 7905TIP3    H145130   2.416   2.567   3.071  0.7433 -0.1989 -2.1902
 7905TIP3    H245131   2.405   2.718   3.083 -0.5158 -0.3617 -0.8441
 7906TIP3   OH245132   6.133   2.531   0.830 -0.4935  0.9084 -0.1942
 7906TIP3    H145133   6.075   2.471   0.878  0.1331  1.5234  1.4104
 7906TIP3    H245134   6.187   2.473   0.776  0.8320 -0.1556  2.1017
 7907TIP3   OH245135   0.976   0.991  11.382 -0.3464 -0.0504  0.5483
 7907TIP3    H145136   1.054   1.024  11.336 -0.2550 -0.4044  0.4426
 7907TIP3    H245137   0.965   1.049  11.457  0.5239 -0.5089  1.0436
 7908TIP3   OH245138   6.422   5.055  13.172  0.4552 -0.5024 -0.3326
 7908TIP3    H145139   6.431   4.967  13.137 -0.6894 -0.5976 -0.4186
 7908TIP3    H245140   6.357   5.047  13.242  0.6117  0.1986 -0.0975
 7909TIP3   OH245141   1.992   3.153  12.067 -0.2035  0.0912 -0.2987
 7909TIP3    H145142   2.070   3.161  12.012 -0.6675 -1.3173 -1.2046
 7909TIP3    H245143   1.918   3.154  12.006 -0.8248  0.1955  0.4370
 7910TIP3   OH245144   5.739   3.593   4.383  0.2992 -0.5037 -0.2293
 7910TIP3    H145145   5.755   3.684   4.357  0.5052 -0.7765 -1.0957
 7910TIP3    H245146   5.822   3.549   4.368  0.3490 -0.7396  0.6734
 7911TIP3   OH245147   1.772   4.419   3.075 -0.1799  0.0140  0.1322
 7911TIP3    H145148   1.700   4.458   3.124 -0.5271  0.2572 -0.5558
 7911TIP3    H245149   1.817   4.363   3.138 -1.0165 -0.2018  0.5498
 7912TIP3   OH245150   0.206   3.780  15.840  0.6194  0.1270 -0.3789
 7912TIP3    H145151   0.270   3.790  15.911 -0.4836 -0.1595  0.6805
 7912TIP3    H245152   0.228   3.696  15.800  2.5434  1.1940 -1.7624
 7913TIP3   OH245153   6.340   4.875  16.734 -0.0845  0.4231  0.3215
 7913TIP3    H145154   6.370   4.956  16.775 -0.6222  1.0769 -0.5337
 7913TIP3    H245155   6.247   4.890  16.716  0.0058 -0.0669 -0.5961
 7914TIP3   OH245156   1.925   5.144   6.359  0.0544  0.4132  0.0907
 7914TIP3    H145157   1.937   5.054   6.389  0.9740  0.6176  0.3732
 7914TIP3    H245158   1.992   5.156   6.291 -0.7548  0.5608 -0.7006
 7915TIP3   OH245159   2.524   0.146   5.446  0.3975 -0.4891  0.3036
 7915TIP3    H145160   2.493   0.150   5.355  0.1408 -2.3364  0.2604
 7915TIP3    H245161   2.464   0.203   5.494 -1.5073 -1.9402 -0.2080
 7916TIP3   OH245162   2.684   4.735  14.333  0.1309  0.3029 -0.2858
 7916TIP3    H145163   2.740   4.778  14.398 -1.3765  1.7259  0.1514
 7916TIP3    H245164   2.672   4.801  14.264 -0.8872  0.0076 -0.4144
 7917TIP3   OH245165   2.634   0.558   1.803  0.5916  0.6354  0.1948
 7917TIP3    H145166   2.684   0.563   1.884  0.7217  2.8926  0.0367
 7917TIP3    H245167   2.593   0.472   1.806  1.2669  0.3194  2.2434
 7918TIP3   OH245168   4.613   5.419   2.093 -0.5591 -1.1252 -0.6029
 7918TIP3    H145169   4.699   5.420   2.134 -0.5184  0.2393 -0.6739
 7918TIP3    H245170   4.612   5.497   2.038 -2.0802 -0.7657 -0.1001
 7919TIP3   OH245171   5.004   3.975   2.445  0.0581  0.0092  0.0455
 7919TIP3    H145172   5.071   3.931   2.498 -0.1587 -1.0103 -0.5033
 7919TIP3    H245173   4.928   3.979   2.503  0.2797  0.2512  0.3231
 7920TIP3   OH245174   1.354   6.326   4.559  0.1843  0.0050 -0.1870
 7920TIP3    H145175   1.263   6.318   4.531  1.1209 -3.0132 -3.0626
 7920TIP3    H245176   1.350   6.321   4.654 -2.6519  0.8593 -0.1550
 7921TIP3   OH245177   4.892   0.099  12.829  0.2190 -0.4028 -0.2692
 7921TIP3    H145178   4.948   0.082  12.905  0.2206  0.3756 -0.0871
 7921TIP3    H245179   4.945   0.073  12.754  0.6634 -0.0892 -0.0686
 7922TIP3   OH245180   3.403   5.448  15.123  0.0781  0.7668  0.6552
 7922TIP3    H145181   3.420   5.446  15.218 -1.1135 -2.8477  0.9315
 7922TIP3    H245182   3.466   5.388  15.086 -1.2038  0.0496 -0.4504
 7923TIP3   OH245183   1.258   2.996  16.475  0.1798  0.1166 -0.0894
 7923TIP3    H145184   1.347   3.030  16.466 -0.6736  2.4861 -0.1440
 7923TIP3    H245185   1.237   3.007  16.568 -1.0731  2.4679 -0.5754
 7924TIP3   OH245186   3.563   5.987   5.163 -0.3244 -0.6759  0.7888
 7924TIP3    H145187   3.593   6.078   5.155 -0.3313 -0.8463 -2.8346
 7924TIP3    H245188   3.642   5.934   5.151 -0.5499 -1.1461  1.3618
 7925TIP3   OH245189   5.404   1.814  14.949  0.2187  0.0781  0.0506
 7925TIP3    H145190   5.384   1.854  14.865  0.0125  1.6612  0.8077
 7925TIP3    H245191   5.376   1.879  15.014  0.0420 -1.2360  1.3616
 7926TIP3   OH245192   3.810   1.272   3.833 -0.0033 -0.4444 -0.4168
 7926TIP3    H145193   3.730   1.220   3.830 -0.5674  0.4319 -2.3533
 7926TIP3    H245194   3.805   1.320   3.915 -2.4341  0.9899 -1.3119
 7927TIP3   OH245195   5.722   2.808   3.066  0.4537 -0.5391  0.5578
 7927TIP3    H145196   5.817   2.802   3.056  0.6262 -0.8712  2.1078
 7927TIP3    H245197   5.690   2.836   2.980  1.9058 -0.8497 -0.1108
 7928TIP3   OH245198   3.869   2.700   3.881  0.0206  0.6770 -0.2112
 7928TIP3    H145199   3.863   2.617   3.833  0.7200  1.0086 -0.8864
 7928TIP3    H245200   3.891   2.674   3.971  2.4123  0.2070 -0.8627
 7929TIP3   OH245201   2.318   3.447  12.828  0.2080 -0.3330 -0.6569
 7929TIP3    H145202   2.393   3.500  12.855  0.1475 -0.8292  0.5284
 7929TIP3    H245203   2.242   3.497  12.857  0.1400 -0.8120  0.0214
 7930TIP3   OH245204   3.932   6.594  12.460  0.2692  0.2218 -0.4793
 7930TIP3    H145205   4.018   6.552  12.455 -0.4941 -1.7380  1.3978
 7930TIP3    H245206   3.881   6.554  12.390 -0.2576 -1.6871  0.9013
 7931TIP3   OH245207   2.449   3.892   3.998 -0.2978 -0.2884 -0.1711
 7931TIP3    H145208   2.466   3.979   3.963 -1.3672 -0.0914 -0.2444
 7931TIP3    H245209   2.429   3.838   3.921  2.1981 -1.0947 -0.3272
 7932TIP3   OH245210   1.226   5.942   2.757 -0.5944  0.8727 -0.5672
 7932TIP3    H145211   1.166   5.885   2.805 -0.3426 -0.0862 -1.3356
 7932TIP3    H245212   1.301   5.953   2.816  0.9276 -2.4578 -1.5917
 7933TIP3   OH245213   1.643   4.758  15.974 -0.5993 -0.3668 -0.4637
 7933TIP3    H145214   1.636   4.738  15.881  0.8143  0.5864 -0.7870
 7933TIP3    H245215   1.552   4.758  16.005 -1.1139 -0.2606 -1.9141
 7934TIP3   OH245216   1.089   2.105  12.825 -0.4038  0.0257 -0.0487
 7934TIP3    H145217   1.179   2.109  12.857 -0.1202 -3.4711 -0.0418
 7934TIP3    H245218   1.095   2.133  12.734  0.8161 -0.6227 -0.1958
 7935TIP3   OH245219   4.977   2.209  15.197 -0.8733  0.8569 -0.2275
 7935TIP3    H145220   4.890   2.230  15.231 -0.6782  0.7963  0.3225
 7935TIP3    H245221   5.035   2.220  15.273 -0.5642 -0.2624 -0.2876
 7936TIP3   OH245222   6.759   6.144   4.100 -0.1553 -0.2805  0.0457
 7936TIP3    H145223   6.689   6.101   4.150  0.4952 -1.0603  0.3066
 7936TIP3    H245224   6.728   6.234   4.088 -1.0471 -0.5210  0.4501
 7937TIP3   OH245225   3.036   5.602   4.271  0.6053  0.5097 -0.5988
 7937TIP3    H145226   3.125   5.613   4.239  2.5122 -0.4505  3.6269
 7937TIP3    H245227   3.036   5.645   4.357 -2.6227 -0.5975  0.0957
 7938TIP3   OH245228   2.341   0.433  16.829 -0.1798 -0.3694 -0.6520
 7938TIP3    H145229   2.375   0.387  16.752 -0.5945 -1.8487  0.0172
 7938TIP3    H245230   2.416   0.436  16.889  0.7189  2.4377 -1.7451
 7939TIP3   OH245231   2.417   4.214   5.128 -0.0356 -0.8288  0.0697
 7939TIP3    H145232   2.439   4.273   5.056 -0.3007 -1.5133 -0.5856
 7939TIP3    H245233   2.442   4.127   5.097 -1.2359 -1.2921  0.3187
 7940TIP3   OH245234   1.931   6.681  15.518  0.5177 -0.2620 -0.3320
 7940TIP3    H145235   1.837   6.683  15.535  0.6087  1.9611  0.3136
 7940TIP3    H245236   1.970   6.653  15.601  0.4262 -1.6571 -0.7453
 7941TIP3   OH245237   2.276   2.052  13.474  0.1106 -0.4039 -0.0140
 7941TIP3    H145238   2.255   1.975  13.526  1.7398 -1.0855 -0.3177
 7941TIP3    H245239   2.369   2.067  13.490  0.5742 -0.3944 -2.3906
 7942TIP3   OH245240   5.926   6.715  12.873  0.1733  0.1987 -0.0126
 7942TIP3    H145241   5.850   6.772  12.865 -0.9969 -1.4927 -1.6427
 7942TIP3    H245242   5.992   6.755  12.816 -0.3031  0.4173 -0.4149
 7943TIP3   OH245243   4.086   1.614   3.622 -0.8624 -0.5360 -0.6307
 7943TIP3    H145244   4.091   1.646   3.532  0.2268 -1.5753 -0.9760
 7943TIP3    H245245   4.159   1.552   3.629 -0.0734  0.5001  1.3637
 7944TIP3   OH245246   3.740   6.283   5.144  0.7216  0.2691 -1.1009
 7944TIP3    H145247   3.821   6.320   5.180  2.5132 -3.2814 -1.0484
 7944TIP3    H245248   3.757   6.275   5.050  1.4756 -2.4629 -0.8296
 7945TIP3   OH245249   0.308   4.583  11.576 -0.2095 -0.5312  0.0756
 7945TIP3    H145250   0.328   4.534  11.496 -2.3680 -1.9336  0.3204
 7945TIP3    H245251   0.252   4.655  11.547 -0.1045 -0.4084  0.1782
 7946TIP3   OH245252   3.252   1.086   3.098 -0.2295  0.0073  0.7355
 7946TIP3    H145253   3.344   1.069   3.080 -0.7618 -0.6189 -1.7712
 7946TIP3    H245254   3.239   1.178   3.075 -0.5011 -0.2637 -0.2142
 7947TIP3   OH245255   1.199   4.782  10.746  0.3022 -0.4798  0.9139
 7947TIP3    H145256   1.161   4.813  10.829 -0.5825  1.7640 -0.2536
 7947TIP3    H245257   1.247   4.857  10.712  1.8533 -1.8204  0.0445
 7948TIP3   OH245258   5.612   2.463   1.349  0.2606 -0.1099 -0.5966
 7948TIP3    H145259   5.540   2.525   1.340 -0.4040 -0.9313 -1.1026
 7948TIP3    H245260   5.668   2.501   1.417  0.5789  1.7009 -1.7909
 7949TIP3   OH245261   5.627   1.869   1.572 -0.7240 -0.6383 -0.3605
 7949TIP3    H145262   5.667   1.791   1.533  0.4177  0.6515 -1.9058
 7949TIP3    H245263   5.648   1.863   1.665 -0.4588 -2.0507 -0.4928
 7950TIP3   OH245264   2.073   5.409  14.755 -0.0823 -0.4800  0.7765
 7950TIP3    H145265   2.038   5.466  14.823 -0.2037  1.5434 -0.8522
 7950TIP3    H245266   2.166   5.400  14.776 -0.4071 -1.1823  2.0169
 7951TIP3   OH245267   0.843   4.467  10.987 -0.5422  0.0560  0.3324
 7951TIP3    H145268   0.880   4.481  11.074 -0.9623  1.5724  0.2994
 7951TIP3    H245269   0.805   4.379  10.990  0.2427 -0.2642  1.3703
 7952TIP3   OH245270   3.301   4.777   0.469  0.3170 -0.2694 -0.3161
 7952TIP3    H145271   3.303   4.830   0.389 -0.0365 -0.2149 -0.2905
 7952TIP3    H245272   3.210   4.781   0.498 -0.0285 -1.9693 -1.0427
 7953TIP3   OH245273   2.919   3.108   5.732 -0.4354 -0.2680 -0.0976
 7953TIP3    H145274   2.906   3.180   5.671  2.1196  0.4605  0.1206
 7953TIP3    H245275   2.873   3.135   5.812 -0.1270  0.7814 -0.2638
 7954TIP3   OH245276   2.869   0.728  13.230  0.1896 -0.0266  0.2971
 7954TIP3    H145277   2.958   0.761  13.216  0.4769 -0.5476  0.8668
 7954TIP3    H245278   2.880   0.650  13.285 -0.7324  0.7797  1.6921
 7955TIP3   OH245279   4.565   1.699  13.166  0.2480  0.1915 -0.2542
 7955TIP3    H145280   4.655   1.717  13.140  1.0962 -0.6714  1.8757
 7955TIP3    H245281   4.572   1.633  13.235 -1.9609  0.6291  0.4857
 7956TIP3   OH245282   5.222   5.795  15.576 -0.2293 -0.0977  0.1566
 7956TIP3    H145283   5.165   5.722  15.601 -1.2940  0.4491 -0.5465
 7956TIP3    H245284   5.177   5.835  15.501  0.4664  1.1121  0.3542
 7957TIP3   OH245285   3.086   2.551   1.520 -0.5123  0.3405 -0.5929
 7957TIP3    H145286   3.021   2.515   1.580 -0.9307  0.5739 -0.8984
 7957TIP3    H245287   3.036   2.610   1.463  0.0869  1.0431 -0.3973
 7958TIP3   OH245288   4.913   3.272  14.009  0.4887  0.2439  0.1382
 7958TIP3    H145289   4.925   3.241  14.099 -1.6205  3.1493  1.6271
 7958TIP3    H245290   4.820   3.260  13.992  0.7581  0.2611 -1.4652
 7959TIP3   OH245291   0.252   5.162  14.743  0.0095 -0.4077  0.0160
 7959TIP3    H145292   0.166   5.123  14.761  0.0141 -0.0443  0.8820
 7959TIP3    H245293   0.244   5.253  14.772  0.4079 -0.1095 -0.7584
 7960TIP3   OH245294   2.520   0.456  11.400 -0.1796 -0.1599 -0.2662
 7960TIP3    H145295   2.584   0.468  11.470  0.1511  0.3460 -0.6525
 7960TIP3    H245296   2.463   0.386  11.432  0.6200 -0.6818  0.0457
 7961TIP3   OH245297   3.547   0.110  12.646  0.2019 -0.1370 -0.1457
 7961TIP3    H145298   3.575   0.196  12.677  1.3509 -0.4979 -0.1341
 7961TIP3    H245299   3.627   0.058  12.644 -0.4617 -1.1867 -0.2417
 7962TIP3   OH245300   5.982   2.724  12.954  0.6640 -0.5581  1.3478
 7962TIP3    H145301   6.047   2.790  12.977  1.0093 -0.3089 -0.2125
 7962TIP3    H245302   5.982   2.723  12.858 -1.0618 -1.1240  1.3182
 7963TIP3   OH245303   1.109   1.830  11.909 -0.4300  0.4850 -0.1193
 7963TIP3    H145304   1.062   1.881  11.843 -0.5034  2.0427  1.0709
 7963TIP3    H245305   1.097   1.880  11.990 -0.9991 -1.7597  1.2565
 7964TIP3   OH245306   1.616   0.117  14.744 -0.5340 -0.5024 -0.0486
 7964TIP3    H145307   1.596   0.122  14.650 -0.2668 -0.2239 -0.0934
 7964TIP3    H245308   1.611   0.208  14.774  0.0465 -0.5058  0.0674
 7965TIP3   OH245309   5.582   2.923   3.556  0.2227  0.1805  0.0214
 7965TIP3    H145310   5.654   2.882   3.604  0.9598  0.0219 -1.1967
 7965TIP3    H245311   5.613   2.929   3.466 -1.2400  0.2392 -0.5045
 7966TIP3   OH245312   4.555   5.678   6.295 -0.1869  0.3073  0.0424
 7966TIP3    H145313   4.518   5.665   6.382  0.4979 -1.6647  0.0890
 7966TIP3    H245314   4.537   5.770   6.275 -1.5696  0.4457  1.6753
 7967TIP3   OH245315   3.120   1.936  13.117  0.3838 -0.1219 -0.8865
 7967TIP3    H145316   3.128   1.874  13.190 -0.2112 -2.2155 -2.4764
 7967TIP3    H245317   3.049   1.994  13.143  1.6952  0.6657  1.1460
 7968TIP3   OH245318   4.529   1.406  10.748 -0.7589  0.4853 -0.2437
 7968TIP3    H145319   4.456   1.345  10.753  0.1697 -0.7735 -1.0927
 7968TIP3    H245320   4.604   1.357  10.784  0.4506  0.3163 -2.7597
 7969TIP3   OH245321   2.856   4.251   2.200 -0.0760 -0.1163 -0.3624
 7969TIP3    H145322   2.894   4.166   2.174  2.8945  0.7772  0.6774
 7969TIP3    H245323   2.863   4.252   2.295 -1.1082  0.8878 -0.2800
 7970TIP3   OH245324   3.224   0.235  12.698  0.3125 -0.4330 -0.0454
 7970TIP3    H145325   3.270   0.256  12.779 -0.8555 -0.4620  0.6447
 7970TIP3    H245326   3.290   0.247  12.629  1.1836  0.0759  0.8512
 7971TIP3   OH245327   1.557   6.353   4.379  0.1141  0.2177  0.5020
 7971TIP3    H145328   1.471   6.358   4.421 -0.3111  1.1267 -0.4402
 7971TIP3    H245329   1.578   6.443   4.355  1.8238  0.1617  1.6474
 7972TIP3   OH245330   6.605   3.792  11.786 -0.1708  0.7928 -0.2922
 7972TIP3    H145331   6.530   3.847  11.765 -0.3472  0.2678 -1.0974
 7972TIP3    H245332   6.567   3.713  11.824  0.0257  0.8694  0.0636
 7973TIP3   OH245333   3.340   5.749   3.889 -0.1107  0.3495  0.1075
 7973TIP3    H145334   3.311   5.740   3.980  0.4031  1.2114  0.3632
 7973TIP3    H245335   3.356   5.659   3.860 -0.4744  0.0541  0.8033
 7974TIP3   OH245336   1.477   3.322   2.270 -0.2452  0.0384 -0.3457
 7974TIP3    H145337   1.404   3.348   2.214 -0.2987 -0.6236 -0.5980
 7974TIP3    H245338   1.527   3.260   2.217 -0.7769 -1.2788  0.6246
 7975TIP3   OH245339   6.681   2.626  11.141 -0.0811 -0.3185  0.2495
 7975TIP3    H145340   6.601   2.610  11.191  0.5751  0.0317  1.4580
 7975TIP3    H245341   6.741   2.556  11.168 -0.4832 -1.5900 -1.8908
 7976TIP3   OH245342   1.861   1.110   4.595 -0.1347 -0.7786  0.4629
 7976TIP3    H145343   1.865   1.102   4.691 -1.5737  0.4453  0.6681
 7976TIP3    H245344   1.853   1.021   4.564 -1.7532 -1.0853  1.6419
 7977TIP3   OH245345   0.924   2.956  16.621  0.2111 -0.2804 -0.0089
 7977TIP3    H145346   0.908   2.895  16.693 -0.3829 -0.4388 -0.2619
 7977TIP3    H245347   1.013   2.987  16.634 -0.4059  0.9193  1.7053
 7978TIP3   OH245348   5.525   3.438   2.429  0.2582  0.1464 -0.0521
 7978TIP3    H145349   5.597   3.465   2.372  0.5374  0.2789  0.3508
 7978TIP3    H245350   5.486   3.363   2.385  0.8337 -0.1137 -0.1327
 7979TIP3   OH245351   5.750   5.486  10.848 -0.4101  0.0181 -0.1175
 7979TIP3    H145352   5.740   5.551  10.778  0.5978  0.9787  0.6061
 7979TIP3    H245353   5.774   5.406  10.801 -1.1889  0.2716 -0.9861
 7980TIP3   OH245354   3.100   2.675   2.364 -0.3948 -0.4702  0.1540
 7980TIP3    H145355   3.024   2.689   2.308 -0.7239 -2.7231 -0.0581
 7980TIP3    H245356   3.116   2.581   2.359  0.0117 -0.6610  3.2668
 7981TIP3   OH245357   3.567   5.868  14.507 -0.5939 -0.9154 -0.1848
 7981TIP3    H145358   3.602   5.782  14.485 -2.2886 -1.7683  0.3210
 7981TIP3    H245359   3.626   5.902  14.574  0.4318 -1.3931 -0.8195
 7982TIP3   OH245360   2.318   2.522  17.120  0.1203  0.8347 -0.3829
 7982TIP3    H145361   2.389   2.530  17.056 -0.2949 -1.0198 -1.1328
 7982TIP3    H245362   2.319   2.430  17.145 -1.7701  0.8457 -0.1360
 7983TIP3   OH245363   6.291   3.227   1.545  0.2362  0.0972 -0.0196
 7983TIP3    H145364   6.317   3.318   1.531 -1.7263  1.0159  1.7371
 7983TIP3    H245365   6.275   3.221   1.639  1.5845 -2.4751  0.1433
 7984TIP3   OH245366   5.449   5.679   2.258 -0.2890 -0.0895  0.5189
 7984TIP3    H145367   5.520   5.627   2.296 -0.9165 -1.4648 -0.1255
 7984TIP3    H245368   5.458   5.765   2.300  1.0753 -0.5519  1.2583
 7985TIP3   OH245369   5.935   0.451  12.889  0.0633  0.4660 -0.4233
 7985TIP3    H145370   5.904   0.534  12.851 -0.0475 -0.6339 -2.9718
 7985TIP3    H245371   6.030   0.453  12.875  0.7177  1.8628  3.2752
 7986TIP3   OH245372   3.878   3.962  10.858  0.2998 -0.2699  0.3167
 7986TIP3    H145373   3.927   4.035  10.822  1.5343  0.3395  2.9330
 7986TIP3    H245374   3.812   4.002  10.915  0.3913 -1.1353  1.0693
 7987TIP3   OH245375   2.654   1.946  14.600  0.3016 -0.9406 -0.1676
 7987TIP3    H145376   2.731   1.946  14.657 -0.9891 -0.2532  1.6957
 7987TIP3    H245377   2.615   1.860  14.612  0.2224 -0.9226 -0.2935
 7988TIP3   OH245378   5.470   0.166  12.334 -0.5395 -0.2943  0.0673
 7988TIP3    H145379   5.455   0.088  12.387 -2.2688  0.0613  0.1494
 7988TIP3    H245380   5.406   0.160  12.263 -1.8017  1.7898  0.9242
 7989TIP3   OH245381   6.556   6.623   1.601  0.4265  1.2939  0.4773
 7989TIP3    H145382   6.634   6.674   1.622  2.3978 -1.5577  0.5372
 7989TIP3    H245383   6.560   6.611   1.507  0.6267  0.2810  0.6106
 7990TIP3   OH245384   2.321   5.385   2.216 -0.5203  0.7002  0.2004
 7990TIP3    H145385   2.226   5.398   2.215 -0.6085  0.0911  0.0203
 7990TIP3    H245386   2.347   5.398   2.307 -0.8003  0.7306  0.2762
 7991TIP3   OH245387   0.919   0.036  12.838  0.1361 -0.4908 -0.4917
 7991TIP3    H145388   0.970  -0.045  12.846  1.4858  0.0923 -2.5009
 7991TIP3    H245389   0.978   0.105  12.866 -1.2993 -0.2008  2.0627
 7992TIP3   OH245390   5.703   5.251  14.282 -0.0146  0.1177  0.0829
 7992TIP3    H145391   5.755   5.194  14.339 -0.5051 -0.7183 -0.2816
 7992TIP3    H245392   5.761   5.271  14.209 -0.9837 -3.1488 -1.8122
 7993TIP3   OH245393   4.684   5.991  11.370  0.4072 -0.3189  0.2284
 7993TIP3    H145394   4.627   5.939  11.427  1.7500 -1.9859  0.1299
 7993TIP3    H245395   4.743   6.036  11.430 -1.1991  1.7614  0.3583
 7994TIP3   OH245396   4.925   5.513   3.796  0.1240  0.3373 -0.6071
 7994TIP3    H145397   4.857   5.450   3.819 -0.6635  0.8737 -1.3980
 7994TIP3    H245398   4.930   5.510   3.700  0.3889  1.1523 -0.6298
 7995TIP3   OH245399   3.888   4.674  13.433 -0.2856 -0.5805 -0.1113
 7995TIP3    H145400   3.928   4.607  13.488  0.2926  0.6762  1.0578
 7995TIP3    H245401   3.961   4.715  13.386 -0.7272 -1.3391 -1.5099
 7996TIP3   OH245402   2.616   2.220   5.994  0.8235 -0.4576 -0.0498
 7996TIP3    H145403   2.664   2.218   5.911 -0.6816  0.2909 -0.9823
 7996TIP3    H245404   2.633   2.135   6.033  1.7781 -0.7316 -1.0041
 7997TIP3   OH245405   4.848   0.388  12.916 -0.0514  0.1098 -0.1876
 7997TIP3    H145406   4.886   0.301  12.907  0.6482  0.3155  0.6425
 7997TIP3    H245407   4.865   0.412  13.007 -0.2553  1.1029 -0.4016
 7998TIP3   OH245408   4.983   1.140   5.196 -0.3307  0.2231  0.5101
 7998TIP3    H145409   4.897   1.121   5.235 -0.9687 -0.4834 -1.1598
 7998TIP3    H245410   5.042   1.145   5.271 -1.4326 -1.3932  1.5570
 7999TIP3   OH245411   3.675   4.972   2.994  0.2076 -0.0416  0.3834
 7999TIP3    H145412   3.721   4.923   3.062  2.9858 -1.4754 -2.3308
 7999TIP3    H245413   3.732   5.046   2.975 -0.3853  0.1859 -0.5905
 8000TIP3   OH245414   0.909   4.205  13.746 -0.1159  0.3245 -0.3463
 8000TIP3    H145415   0.891   4.232  13.836 -0.5120  0.0147 -0.3315
 8000TIP3    H245416   1.004   4.218  13.736 -0.1584  0.8697 -0.0577
 8001TIP3   OH245417   2.558   3.560   5.850 -0.0961  0.3856  0.2978
 8001TIP3    H145418   2.539   3.497   5.920 -2.8285 -0.3327 -0.9638
 8001TIP3    H245419   2.528   3.644   5.886  2.1564  0.7872  1.4039
 8002TIP3   OH245420   3.639   5.027  14.822  0.5627 -0.2968 -0.4101
 8002TIP3    H145421   3.642   5.122  14.822  2.4871 -0.2856  1.0478
 8002TIP3    H245422   3.605   5.004  14.908  1.6337 -0.8909 -0.1185
 8003TIP3   OH245423   1.239   2.591   0.131 -0.6854 -0.5296 -0.3438
 8003TIP3    H145424   1.297   2.667   0.129 -0.6695 -0.3873  2.0106
 8003TIP3    H245425   1.291   2.523   0.173 -1.4705 -1.1164 -0.2997
 8004TIP3   OH245426   3.052   6.417  12.627  0.0486  0.4524 -0.0746
 8004TIP3    H145427   2.999   6.362  12.685  1.0808 -0.1959  0.2824
 8004TIP3    H245428   3.084   6.487  12.684 -0.2464  0.7223 -0.2396
 8005TIP3   OH245429   6.320   4.937   5.707 -0.3881  0.2763 -0.3270
 8005TIP3    H145430   6.378   4.996   5.659 -0.2112 -0.0942 -0.5758
 8005TIP3    H245431   6.369   4.854   5.711 -0.2377  0.4059  0.8147
 8006TIP3   OH245432   4.591   1.809  14.956  0.2897  0.4581  0.0244
 8006TIP3    H145433   4.686   1.804  14.967  0.0425 -1.3739  1.9940
 8006TIP3    H245434   4.555   1.761  15.031 -2.1107 -1.7278 -2.2755
 8007TIP3   OH245435   4.898   5.839   3.632 -0.0594  0.3125 -0.7304
 8007TIP3    H145436   4.941   5.785   3.566  0.1107  0.9907 -1.1922
 8007TIP3    H245437   4.852   5.906   3.582 -1.5876 -0.3261 -0.2372
 8008TIP3   OH245438   6.737   6.401  15.954 -0.1442  0.3810  0.0678
 8008TIP3    H145439   6.736   6.432  15.863 -0.7977 -0.7953 -0.3581
 8008TIP3    H245440   6.652   6.358  15.965 -0.4559  1.3099  1.5411
 8009TIP3   OH245441   5.488   3.744  13.813  0.3917  0.1579  0.2126
 8009TIP3    H145442   5.561   3.791  13.773  2.2085 -0.8525  2.1442
 8009TIP3    H245443   5.413   3.803  13.802  1.2669  0.9078 -2.5013
 8010TIP3   OH245444   5.460   0.691  10.859 -0.5680  0.0607 -0.0681
 8010TIP3    H145445   5.525   0.621  10.862 -1.0286 -0.3563  0.3866
 8010TIP3    H245446   5.421   0.685  10.772 -0.2880  0.0521 -0.1945
 8011TIP3   OH245447   1.319   5.490   1.552 -0.8317  0.0297  0.3304
 8011TIP3    H145448   1.349   5.410   1.507 -1.4142 -0.0234  0.0201
 8011TIP3    H245449   1.395   5.521   1.600 -0.6342 -0.7936  0.5624
 8012TIP3   OH245450   0.055   4.521   6.600 -0.1882 -0.6188  0.0672
 8012TIP3    H145451   0.107   4.476   6.667  1.6318  0.5446 -0.4972
 8012TIP3    H245452  -0.031   4.479   6.605  0.8734 -2.8808  0.7928
 8013TIP3   OH245453   2.683   1.941   4.437  0.1544 -0.5736  0.2421
 8013TIP3    H145454   2.656   1.908   4.523  0.0072  1.4750  1.0191
 8013TIP3    H245455   2.619   1.903   4.377  0.3044 -2.1039  0.9804
 8014TIP3   OH245456   4.368   2.806   1.850 -0.0563 -0.4803  0.0072
 8014TIP3    H145457   4.461   2.782   1.848 -0.0511 -0.5765  1.1139
 8014TIP3    H245458   4.334   2.775   1.765  1.1234  0.4774 -0.8532
 8015TIP3   OH245459   2.207   3.156   0.610  0.0725  0.1272 -0.0244
 8015TIP3    H145460   2.252   3.098   0.549  0.8283  0.7815 -0.1074
 8015TIP3    H245461   2.238   3.129   0.696  0.8504  0.7427 -0.0971
 8016TIP3   OH245462   5.536   5.006  15.222  0.0402 -0.1620 -0.5751
 8016TIP3    H145463   5.455   5.016  15.172 -0.1153  1.4921 -0.0464
 8016TIP3    H245464   5.601   4.979  15.158 -0.5807  0.0477 -1.3065
 8017TIP3   OH245465   0.822   5.048   2.211 -0.7590 -0.9197  0.1589
 8017TIP3    H145466   0.849   4.967   2.253  0.3969 -1.0903 -0.8515
 8017TIP3    H245467   0.870   5.050   2.128 -0.5661  0.8993  0.2549
 8018TIP3   OH245468   3.616   3.996  12.932  0.1151 -0.3034 -0.4911
 8018TIP3    H145469   3.648   4.074  12.978  0.5188 -0.1757 -0.9748
 8018TIP3    H245470   3.642   3.923  12.988 -2.7880  0.0184  1.4518
 8019TIP3   OH245471   5.655   3.508  12.783  0.3995  0.1175  0.0455
 8019TIP3    H145472   5.677   3.520  12.875  0.2833 -1.2163  0.2715
 8019TIP3    H245473   5.595   3.434  12.783 -1.3330  1.4699 -0.9034
 8020TIP3   OH245474   5.123   1.077  12.739 -0.0387 -0.1537 -0.3442
 8020TIP3    H145475   5.093   0.991  12.710  1.5687 -0.3994 -1.4471
 8020TIP3    H245476   5.124   1.071  12.834 -2.1020 -0.5544 -0.3178
 8021TIP3   OH245477   3.639   4.325   5.107 -0.1004 -0.0995 -0.0357
 8021TIP3    H145478   3.667   4.357   5.193 -0.0276 -1.8893  0.6488
 8021TIP3    H245479   3.549   4.356   5.098  0.9185  3.0387 -0.8869
 8022TIP3   OH245480   2.148   1.877  11.971 -0.2676 -0.7007 -0.5115
 8022TIP3    H145481   2.072   1.933  11.986 -0.6435 -0.9414 -1.4266
 8022TIP3    H245482   2.151   1.820  12.048  0.3623  0.8087  0.6336
 8023TIP3   OH245483   1.634   4.140  17.125  0.1237 -0.3420  0.2018
 8023TIP3    H145484   1.661   4.181  17.206  0.7120  0.5443 -0.4270
 8023TIP3    H245485   1.593   4.210  17.074 -0.4965 -0.9460 -0.1562
 8024TIP3   OH245486   3.897   0.767   0.894 -0.0674  0.1242 -0.2544
 8024TIP3    H145487   3.942   0.742   0.975  0.1777  0.7502 -0.1947
 8024TIP3    H245488   3.967   0.801   0.837 -0.4449  1.0626 -0.1749
 8025TIP3   OH245489   0.201   1.912   2.761  0.1940 -0.3790  0.4242
 8025TIP3    H145490   0.215   1.852   2.687  1.3521 -0.5731  0.7752
 8025TIP3    H245491   0.114   1.948   2.747  0.4774 -0.2435 -1.1663
 8026TIP3   OH245492   2.530   5.831  16.138  0.0463  0.0187 -0.0361
 8026TIP3    H145493   2.449   5.882  16.132  0.7706  1.4984  1.6708
 8026TIP3    H245494   2.566   5.854  16.224  1.5720 -1.6935 -0.1586
 8027TIP3   OH245495   2.568   6.409  15.941  0.2019  0.1512  0.1436
 8027TIP3    H145496   2.493   6.461  15.912 -0.2213 -0.5744 -0.1224
 8027TIP3    H245497   2.625   6.471  15.986 -0.8126  0.6177  0.8343
 8028TIP3   OH245498   1.968   0.441  16.747 -0.0710 -0.6704  0.3036
 8028TIP3    H145499   2.006   0.505  16.807 -2.0196 -0.1235  1.0332
 8028TIP3    H245500   1.995   0.356  16.783 -1.6417 -0.3866  2.3758
 8029TIP3   OH245501   0.776   4.947  15.720  0.3407 -0.4912  0.1222
 8029TIP3    H145502   0.800   4.885  15.651 -0.4454  0.2014 -0.8068
 8029TIP3    H245503   0.814   5.030  15.691  0.5292 -0.3226  0.8465
 8030TIP3   OH245504   1.351   6.010   6.065  0.0506 -0.4257 -0.3019
 8030TIP3    H145505   1.380   6.039   5.979 -0.2338  0.8832  0.0089
 8030TIP3    H245506   1.431   5.993   6.114  0.3736  2.2318  0.2522
 8031TIP3   OH245507   2.407   2.500   2.335  0.3307  0.1695  0.1349
 8031TIP3    H145508   2.442   2.423   2.380 -0.1541  0.7978  1.6479
 8031TIP3    H245509   2.407   2.568   2.401  0.1456  1.3151 -1.0072
 8032TIP3   OH245510   0.403   5.455   2.264 -0.0234 -0.2166  0.0630
 8032TIP3    H145511   0.347   5.425   2.336  0.2096 -0.4629  0.1423
 8032TIP3    H245512   0.487   5.474   2.305 -0.3228  1.0652  0.1025
 8033TIP3   OH245513   2.555   4.374   1.393 -0.7057  0.0341 -0.6391
 8033TIP3    H145514   2.515   4.367   1.480 -1.8772  0.4253 -1.1230
 8033TIP3    H245515   2.586   4.286   1.374 -1.9819 -0.4594 -0.5250
 8034TIP3   OH245516   2.453   4.374   5.370  0.1426 -1.0660 -0.7365
 8034TIP3    H145517   2.358   4.384   5.376  0.3938  1.1617  0.7138
 8034TIP3    H245518   2.466   4.323   5.290 -2.2735 -2.1808 -0.5306
 8035TIP3   OH245519   5.771   2.838   3.996  0.2105  0.0878  0.5850
 8035TIP3    H145520   5.788   2.924   4.035  1.4240 -0.5719  1.5732
 8035TIP3    H245521   5.675   2.832   3.994  0.0768  1.7858 -0.2905
 8036TIP3   OH245522   5.184   4.869  14.425  0.0516 -0.2864  0.0011
 8036TIP3    H145523   5.267   4.881  14.378  0.1869  0.4995  0.4256
 8036TIP3    H245524   5.133   4.811  14.369  0.9428 -0.8933 -0.1969
 8037TIP3   OH245525   6.126   2.893  15.228 -0.1145 -0.3013 -0.5481
 8037TIP3    H145526   6.165   2.963  15.174 -0.3079 -0.0191 -0.3253
 8037TIP3    H245527   6.181   2.817  15.210  1.3140  0.3837  0.6812
 8038TIP3   OH245528   1.508   1.520   1.080 -0.3813  0.5468  0.4192
 8038TIP3    H145529   1.537   1.472   1.003  0.7098  1.1240  0.4568
 8038TIP3    H245530   1.555   1.603   1.077 -1.5665  1.2653  0.8326
 8039TIP3   OH245531   0.171   0.588  11.213  0.1076 -0.0327 -0.3416
 8039TIP3    H145532   0.127   0.604  11.296  1.4141  0.5944  0.2448
 8039TIP3    H245533   0.227   0.664  11.199  1.2789 -0.9538 -0.8970
 8040TIP3   OH245534   6.145   5.058  16.090 -0.6031 -0.0676 -0.2315
 8040TIP3    H145535   6.105   5.042  16.004  1.5084  0.1756 -1.3483
 8040TIP3    H245536   6.197   4.979  16.107 -2.2957 -0.8523  1.6815
 8041TIP3   OH245537   5.942   3.064   5.049  0.2931  0.0700  0.1157
 8041TIP3    H145538   5.913   2.976   5.071 -0.3864 -0.3218 -2.1606
 8041TIP3    H245539   5.972   3.058   4.959  1.5597  1.8843  0.3668
 8042TIP3   OH245540   2.976   5.862  11.853  0.2274 -0.3556 -0.4642
 8042TIP3    H145541   3.024   5.941  11.876  0.0198 -0.2963 -0.2326
 8042TIP3    H245542   2.986   5.805  11.930 -0.4191 -0.1823 -0.2497
 8043TIP3   OH245543   1.604   1.402   3.762 -0.1223  0.0137 -0.2363
 8043TIP3    H145544   1.594   1.420   3.669 -1.1581  0.9821  0.0273
 8043TIP3    H245545   1.658   1.474   3.795  0.7695 -0.6695 -0.1942
 8044TIP3   OH245546   1.056   5.394  16.058  0.1392 -0.7324  0.1153
 8044TIP3    H145547   1.123   5.339  16.098  0.7283 -1.1374 -1.3540
 8044TIP3    H245548   1.044   5.358  15.970 -1.9946 -0.6446  0.3174
 8045TIP3   OH245549   2.141   3.215   3.859 -0.0305  0.4075 -0.1810
 8045TIP3    H145550   2.153   3.262   3.776 -2.1135  0.2063 -0.6615
 8045TIP3    H245551   2.134   3.123   3.834 -1.9477  0.4649  0.0169
 8046TIP3   OH245552   3.084   3.820   0.869 -0.0100 -0.3957  0.4999
 8046TIP3    H145553   3.068   3.726   0.873 -1.3399 -0.1556  3.6314
 8046TIP3    H245554   3.153   3.835   0.934  0.4914  0.7478 -0.2778
 8047TIP3   OH245555   5.109   0.723  16.110 -0.1593 -0.1717  0.4422
 8047TIP3    H145556   5.127   0.644  16.161 -1.2848 -0.0568  1.0321
 8047TIP3    H245557   5.147   0.704  16.024 -0.9872 -1.6440  0.3617
 8048TIP3   OH245558   1.415   4.735   3.798  0.1041 -0.1135 -0.5759
 8048TIP3    H145559   1.423   4.674   3.870 -1.3726 -0.5496 -0.7413
 8048TIP3    H245560   1.324   4.763   3.801  0.2461  0.5300 -1.7368
 8049TIP3   OH245561   3.273   5.649  11.597 -0.1124  0.6345  0.0344
 8049TIP3    H145562   3.217   5.576  11.622  0.2238  0.8899  1.6312
 8049TIP3    H245563   3.362   5.616  11.608  0.0555  0.6311 -1.2577
 8050TIP3   OH245564   0.227   2.300   3.416 -0.2277 -0.0077  0.0385
 8050TIP3    H145565   0.245   2.233   3.483 -2.1648 -0.6150 -0.0053
 8050TIP3    H245566   0.187   2.252   3.344  1.4555  0.7026 -1.4584
 8051TIP3   OH245567   0.795   2.478   2.595  0.2104 -0.3436 -0.8799
 8051TIP3    H145568   0.872   2.504   2.544 -0.1349  0.9681 -0.7805
 8051TIP3    H245569   0.732   2.449   2.529  0.5452 -0.7890 -1.0114
 8052TIP3   OH245570   5.210   2.683   2.638 -0.4632 -0.0706 -0.6580
 8052TIP3    H145571   5.247   2.605   2.595 -0.3917 -0.4448  0.0630
 8052TIP3    H245572   5.271   2.701   2.710  0.3404  1.5494 -1.7046
 8053TIP3   OH245573   0.441   0.989  10.970  0.1979  0.1947 -0.0871
 8053TIP3    H145574   0.460   1.038  11.050  0.0480  1.7800 -0.9847
 8053TIP3    H245575   0.522   0.996  10.918 -0.3791  0.9915 -0.9349
 8054TIP3   OH245576   4.322   0.848  15.256 -0.1646 -0.7781  0.0375
 8054TIP3    H145577   4.285   0.935  15.241  0.7899 -0.5583 -1.1489
 8054TIP3    H245578   4.250   0.788  15.235 -0.4139 -0.3112 -0.4549
 8055TIP3   OH245579   2.429   4.474   1.877 -0.1243 -0.0815 -0.4260
 8055TIP3    H145580   2.512   4.517   1.898 -0.4545  0.5387 -0.3673
 8055TIP3    H245581   2.408   4.423   1.955  0.3248 -0.4515 -0.5365
 8056TIP3   OH245582   4.024   4.087  12.394 -0.4412  0.5338 -0.4477
 8056TIP3    H145583   4.027   4.033  12.315  1.5985 -1.7405  1.0479
 8056TIP3    H245584   4.064   4.033  12.462 -0.4953  3.0577  1.7599
 8057TIP3   OH245585   6.122   3.326   2.979  0.1105  0.7426 -0.5943
 8057TIP3    H145586   6.100   3.376   2.900 -1.6036 -0.0625 -0.6943
 8057TIP3    H245587   6.106   3.235   2.954 -2.6612  0.5804  1.2342
 8058TIP3   OH245588   1.973   0.897  14.142  0.0577  0.6822  0.4084
 8058TIP3    H145589   1.994   0.979  14.099 -0.8151  0.5026 -0.3997
 8058TIP3    H245590   1.979   0.831  14.073  1.1152 -0.0149  1.1215
 8059TIP3   OH245591   0.807   3.857   6.646  0.4372  0.2312  0.7439
 8059TIP3    H145592   0.817   3.947   6.615  2.3340  0.1256  0.9750
 8059TIP3    H245593   0.812   3.804   6.566 -1.2331  0.3066  0.5361
 8060TIP3   OH245594   0.750   1.371  12.243  0.0402 -0.0009  0.1901
 8060TIP3    H145595   0.775   1.429  12.315  2.4963 -1.9628  1.1044
 8060TIP3    H245596   0.656   1.384  12.232 -0.0235  1.9254  2.3137
 8061TIP3   OH245597   4.461   2.312  12.123 -0.0293  0.2746 -0.2307
 8061TIP3    H145598   4.443   2.225  12.087  1.4277  0.0266 -0.4097
 8061TIP3    H245599   4.555   2.324  12.111 -0.3129  2.1791 -0.8722
 8062TIP3   OH245600   4.906   3.213   4.800 -0.0034  0.4331 -0.1299
 8062TIP3    H145601   4.840   3.255   4.745 -1.6909  0.4817  1.8219
 8062TIP3    H245602   4.967   3.284   4.822 -0.5024  0.9090 -0.2551
 8063TIP3   OH245603   1.249   4.539   2.159  0.1288 -0.2681  0.3884
 8063TIP3    H145604   1.223   4.447   2.153 -1.0008  0.0177  0.7560
 8063TIP3    H245605   1.192   4.585   2.098  1.1406  0.1178 -0.2979
 8064TIP3   OH245606   5.519   4.070  11.797  0.1012  0.5298 -0.7020
 8064TIP3    H145607   5.501   4.162  11.774  1.5153  0.9247 -0.3063
 8064TIP3    H245608   5.613   4.067  11.812 -0.0393 -0.8404  0.0314
 8065TIP3   OH245609   0.960   6.219  13.590 -0.2735  0.6930  0.3407
 8065TIP3    H145610   0.989   6.310  13.597 -1.2971  0.9091  2.7633
 8065TIP3    H245611   1.003   6.174  13.662 -0.0433 -0.6997 -0.6192
 8066TIP3   OH245612   0.140   0.834   2.332  0.1981  0.0054  0.0058
 8066TIP3    H145613   0.149   0.754   2.281 -4.3972 -0.5321 -0.3995
 8066TIP3    H245614   0.110   0.899   2.268  1.5320  1.4317  0.7782
 8067TIP3   OH245615   2.653   2.335  14.946  0.1550 -0.2672  0.3739
 8067TIP3    H145616   2.572   2.381  14.964  0.5692  0.8499 -0.5191
 8067TIP3    H245617   2.720   2.385  14.993  0.6304  0.1658 -0.7350
 8068TIP3   OH245618   0.226   6.711  11.500 -0.1419 -0.1038  0.3018
 8068TIP3    H145619   0.257   6.729  11.411  1.9920 -1.5258  0.6747
 8068TIP3    H245620   0.135   6.741  11.500 -0.4511 -0.7069 -2.5631
 8069TIP3   OH245621   2.858   3.013   5.411  0.5326  0.0102  0.2911
 8069TIP3    H145622   2.912   2.948   5.368 -2.1694 -0.2114 -3.2373
 8069TIP3    H245623   2.811   2.964   5.479  1.2719 -0.8063  0.2303
 8070TIP3   OH245624   3.382   3.381  15.698  0.2723 -0.0616 -0.0250
 8070TIP3    H145625   3.447   3.389  15.768  0.2115 -0.7239  0.1192
 8070TIP3    H245626   3.359   3.288  15.698 -1.4056  0.3101  0.5979
 8071TIP3   OH245627   4.021   4.338  17.117  0.6135  0.4188 -0.0478
 8071TIP3    H145628   4.005   4.432  17.109  0.9280  0.5219  0.4967
 8071TIP3    H245629   3.962   4.309  17.186  0.6465  0.2518 -0.0901
 8072TIP3   OH245630   4.924   0.037   5.299 -0.3719 -0.3070 -0.5300
 8072TIP3    H145631   4.879   0.052   5.216  0.4313 -0.1062 -0.9353
 8072TIP3    H245632   5.015   0.061   5.282 -0.1315 -0.5891  0.3125
 8073TIP3   OH245633   1.215   1.895   5.579  0.2862  0.2797 -0.4568
 8073TIP3    H145634   1.182   1.974   5.622  0.9109  1.1714 -1.5786
 8073TIP3    H245635   1.303   1.883   5.615  0.0079 -0.2213  0.0885
 8074TIP3   OH245636   2.193   3.184  11.849 -0.2420  0.2212 -0.2470
 8074TIP3    H145637   2.128   3.143  11.792 -1.4325  1.5777  0.0726
 8074TIP3    H245638   2.197   3.274  11.819  1.3467  0.2182 -0.0988
 8075TIP3   OH245639   1.690   1.048   6.403  0.3676  0.0269  0.4598
 8075TIP3    H145640   1.659   0.973   6.455  0.6322 -0.6420 -0.3293
 8075TIP3    H245641   1.693   1.120   6.466 -0.4007 -0.4893  1.1201
 8076TIP3   OH245642   3.238   4.333  12.377  0.4735 -0.6198  0.4201
 8076TIP3    H145643   3.306   4.389  12.415 -0.0769 -0.4001  1.1088
 8076TIP3    H245644   3.224   4.367  12.289  1.5969 -0.9772  0.0818
 8077TIP3   OH245645   5.504   5.462   5.205 -0.1471 -0.4608 -0.3608
 8077TIP3    H145646   5.438   5.484   5.139 -0.1913  1.5935  0.2843
 8077TIP3    H245647   5.543   5.546   5.228  0.2907 -1.1846  1.7751
 8078TIP3   OH245648   0.299   4.113   3.019 -0.4235 -0.4714 -0.1875
 8078TIP3    H145649   0.370   4.068   3.066 -0.3384  0.7273  0.8745
 8078TIP3    H245650   0.334   4.199   2.999 -2.0826  0.7387  1.7577
 8079TIP3   OH245651   5.885   1.725   3.136  0.0572 -0.7639 -0.0288
 8079TIP3    H145652   5.926   1.639   3.141 -1.3756 -1.4628  0.4756
 8079TIP3    H245653   5.850   1.730   3.047 -0.3501 -0.9529  0.1177
 8080TIP3   OH245654   6.581   0.474  12.005  0.1588  0.3912 -0.5725
 8080TIP3    H145655   6.633   0.546  11.970 -1.4494  1.9441  0.0922
 8080TIP3    H245656   6.492   0.507  12.006 -1.2028 -2.6881 -3.0894
 8081TIP3   OH245657   2.294   6.631  15.462 -0.2046  0.4391 -0.2612
 8081TIP3    H145658   2.319   6.685  15.536 -0.4977  0.2031  0.0114
 8081TIP3    H245659   2.247   6.690  15.403 -1.3489  0.2955  0.4631
 8082TIP3   OH245660   6.538   0.607   2.428 -0.2176  0.1757  0.5869
 8082TIP3    H145661   6.482   0.573   2.498 -0.3434  0.7755  0.7902
 8082TIP3    H245662   6.478   0.652   2.368 -0.1438 -0.5861 -0.0703
 8083TIP3   OH245663   2.641   1.325   3.265  0.4639 -0.5464  0.0540
 8083TIP3    H145664   2.563   1.284   3.301  0.2956  0.5641  1.0027
 8083TIP3    H245665   2.670   1.387   3.333 -1.1059  3.2821 -2.4177
 8084TIP3   OH245666   4.067   1.569  15.197  0.1387  0.2466 -0.0646
 8084TIP3    H145667   4.069   1.485  15.150  0.5222  0.0194  0.3482
 8084TIP3    H245668   4.150   1.571  15.246  0.9143  1.6005 -1.3514
 8085TIP3   OH245669   3.469   2.156   0.211  0.8553  0.0529  0.3996
 8085TIP3    H145670   3.445   2.104   0.134  1.5786 -0.5086  0.5404
 8085TIP3    H245671   3.534   2.218   0.178 -0.5584  1.4298  0.0642
 8086TIP3   OH245672   1.339   0.858  12.274  0.0369  0.7125  0.0423
 8086TIP3    H145673   1.361   0.806  12.197 -2.1361 -1.1974  0.5973
 8086TIP3    H245674   1.391   0.820  12.345 -1.0545 -0.3379  0.3112
 8087TIP3   OH245675   3.189   1.310   2.317  0.3272  0.1325 -0.3787
 8087TIP3    H145676   3.210   1.283   2.406  0.7847 -1.5391 -0.9475
 8087TIP3    H245677   3.236   1.247   2.261  1.6665  2.2730 -1.8534
 8088TIP3   OH245678   2.158   0.304   5.796  0.4784  0.1378  0.2057
 8088TIP3    H145679   2.162   0.306   5.891  1.6867  1.4065  0.1619
 8088TIP3    H245680   2.065   0.307   5.775  0.0561 -2.2683  1.3194
 8089TIP3   OH245681   0.712   5.803   2.561  0.0985  0.3567  0.3036
 8089TIP3    H145682   0.798   5.834   2.533  0.3640 -1.7590 -1.4439
 8089TIP3    H245683   0.730   5.722   2.608 -0.9084  0.3143  0.6407
 8090TIP3   OH245684   4.783   4.672   5.247 -0.2793 -0.1797  0.5172
 8090TIP3    H145685   4.768   4.757   5.288 -1.2886  1.0600 -2.2258
 8090TIP3    H245686   4.803   4.613   5.321 -1.3497  1.9968  2.6797
 8091TIP3   OH245687   4.655   2.140   4.300  0.2756  0.2217  0.2223
 8091TIP3    H145688   4.669   2.094   4.382  0.2614 -0.0129  0.0945
 8091TIP3    H245689   4.743   2.165   4.271  0.7301 -2.6899 -1.4107
 8092TIP3   OH245690   5.592   2.699  11.784  0.3039  0.8529 -0.7083
 8092TIP3    H145691   5.543   2.743  11.714  1.9415  3.2095 -0.5164
 8092TIP3    H245692   5.653   2.766  11.816 -0.1012 -0.2344  2.7465
 8093TIP3   OH245693   0.613   4.853   5.987 -0.5372 -0.2096  0.3814
 8093TIP3    H145694   0.610   4.923   6.052 -0.4307  1.2983 -1.1609
 8093TIP3    H245695   0.705   4.827   5.983 -0.2102  0.9790 -0.4255
 8094TIP3   OH245696   2.404   1.655   3.247 -0.0153 -0.9823 -0.5646
 8094TIP3    H145697   2.309   1.660   3.242 -0.0023  1.8396  0.4862
 8094TIP3    H245698   2.432   1.646   3.155 -1.2556 -1.5374 -0.9107
 8095TIP3   OH245699   4.954   1.996  10.703 -0.3625  0.0433 -0.1257
 8095TIP3    H145700   5.047   1.983  10.683 -0.0852 -0.5420  1.3527
 8095TIP3    H245701   4.929   2.073  10.653  1.2508  0.9367  0.3737
 8096TIP3   OH245702   2.613   3.753  14.651  0.4808  0.4404 -0.2706
 8096TIP3    H145703   2.702   3.768  14.621  0.7073 -0.0831  0.1278
 8096TIP3    H245704   2.568   3.836  14.635  0.6574  0.2761 -1.7924
 8097TIP3   OH245705   3.158   5.009   1.802  0.0080 -0.4436 -0.5837
 8097TIP3    H145706   3.166   5.089   1.855  0.9784 -0.0387 -1.2981
 8097TIP3    H245707   3.065   4.987   1.806  0.0452 -0.4318  1.2691
 8098TIP3   OH245708   0.542   1.011  13.947 -0.1780  0.0413  0.5243
 8098TIP3    H145709   0.596   1.014  13.868 -1.2243 -1.8842 -0.3171
 8098TIP3    H245710   0.503   1.098  13.952 -2.3886 -0.6142 -2.7998
 8099TIP3   OH245711   0.401   0.942  11.933 -0.6270  0.1262  0.0594
 8099TIP3    H145712   0.427   0.954  11.842 -1.2160 -1.4574 -0.3551
 8099TIP3    H245713   0.341   1.014  11.951 -1.8664 -0.4768 -1.3852
 8100TIP3   OH245714   4.789   6.453  12.418 -0.1964  0.9121  0.1922
 8100TIP3    H145715   4.806   6.452  12.512 -0.4434  0.1140  0.2305
 8100TIP3    H245716   4.876   6.449  12.378 -0.1334 -2.3327  0.3994
 8101TIP3   OH245717   6.704   5.885  16.018  0.1190 -0.4511  0.0424
 8101TIP3    H145718   6.616   5.865  16.051 -0.5292  1.1272 -0.6454
 8101TIP3    H245719   6.762   5.828  16.069 -1.1273 -0.2282  1.7964
 8102TIP3   OH245720   3.701   2.325   1.422 -0.4386  0.2491  0.3292
 8102TIP3    H145721   3.629   2.287   1.473 -1.1694  0.3530 -0.6102
 8102TIP3    H245722   3.765   2.352   1.489 -0.9655 -0.4478  1.1379
 8103TIP3   OH245723   6.012   1.280  13.735  0.3291  0.1073  0.4085
 8103TIP3    H145724   6.095   1.281  13.782  1.9648 -3.8182 -1.8637
 8103TIP3    H245725   5.958   1.218  13.784 -0.1444  0.3832  0.2373
 8104TIP3   OH245726   1.703   2.771  12.179 -0.3356 -0.3739 -0.4307
 8104TIP3    H145727   1.707   2.798  12.271 -1.4336  0.1238 -0.5112
 8104TIP3    H245728   1.750   2.688  12.176  0.7767  0.2010  0.3430
 8105TIP3   OH245729   5.333   4.446  12.859 -0.4064  0.0369 -0.4793
 8105TIP3    H145730   5.337   4.352  12.876 -1.3050  0.2258  0.9107
 8105TIP3    H245731   5.423   4.477  12.870 -0.2920 -0.5006  0.1084
 8106TIP3   OH245732   5.366   5.301   4.291 -0.1585  0.0475 -0.2116
 8106TIP3    H145733   5.355   5.270   4.381 -0.0535  1.0190  0.1425
 8106TIP3    H245734   5.425   5.375   4.298 -0.7761  0.6256 -0.9816
 8107TIP3   OH245735   2.024   2.648  14.947  0.1805 -0.1867 -0.2315
 8107TIP3    H145736   1.932   2.671  14.961 -0.3961 -1.0561 -2.2075
 8107TIP3    H245737   2.033   2.563  14.989  0.2211  0.1314  0.4071
 8108TIP3   OH245738   0.841   5.744  13.916 -0.5066 -0.8590 -0.4565
 8108TIP3    H145739   0.906   5.730  13.847  2.1755  0.7342  1.5128
 8108TIP3    H245740   0.788   5.817  13.884  1.4709  0.6831 -0.4959
 8109TIP3   OH245741   3.315   0.018   0.582 -0.3082 -0.4737  0.1428
 8109TIP3    H145742   3.359  -0.067   0.583 -0.2189 -0.4494  1.9040
 8109TIP3    H245743   3.384   0.081   0.565  0.1025 -0.5637  1.3899
 8110TIP3   OH245744   0.193   2.392  15.231  0.2607  0.6132 -0.2350
 8110TIP3    H145745   0.118   2.333  15.226 -0.1296  1.0350  0.4343
 8110TIP3    H245746   0.164   2.463  15.287  0.7584  1.4002 -0.9495
 8111TIP3   OH245747   3.932   2.734   3.547 -0.0805  0.8112  0.2420
 8111TIP3    H145748   3.936   2.733   3.451  1.8093 -1.4361  0.2407
 8111TIP3    H245749   3.849   2.691   3.568  0.3652 -0.4030 -0.4145
 8112TIP3   OH245750   0.341   5.504   1.020 -0.4860 -0.2603 -0.0955
 8112TIP3    H145751   0.257   5.460   1.010 -1.2734  1.4789 -1.8311
 8112TIP3    H245752   0.405   5.438   0.993 -1.6676 -0.3222 -3.1613
 8113TIP3   OH245753   0.159   2.527  11.595  0.3586  0.4923  0.1382
 8113TIP3    H145754   0.226   2.477  11.641  0.2288  1.2146  1.1329
 8113TIP3    H245755   0.081   2.470  11.596  0.4960  0.3081  0.3688
 8114TIP3   OH245756   2.073   0.758  15.169 -0.0464 -0.1193 -0.4783
 8114TIP3    H145757   2.124   0.678  15.184 -1.4481 -0.7645  1.1021
 8114TIP3    H245758   2.120   0.825  15.218  0.9048 -0.0480 -1.4645
 8115TIP3   OH245759   1.232   2.899  10.721 -0.1863  0.0765  0.4740
 8115TIP3    H145760   1.257   2.973  10.665  0.3051  1.8210  2.8026
 8115TIP3    H245761   1.301   2.835  10.708  0.2708  0.7236 -0.4124
 8116TIP3   OH245762   2.896   4.490  11.285  0.1194 -0.4683  0.7754
 8116TIP3    H145763   2.807   4.454  11.286 -0.2091  0.2450 -0.6569
 8116TIP3    H245764   2.897   4.552  11.358 -0.7880  0.0137  0.3973
 8117TIP3   OH245765   3.873   4.115   6.543  0.0096 -0.0250 -0.3478
 8117TIP3    H145766   3.850   4.208   6.531  0.6174  0.3735  1.3190
 8117TIP3    H245767   3.969   4.114   6.536  0.2810 -0.0132  2.3477
 8118TIP3   OH245768   4.528   3.193   0.925 -0.2794  1.2696 -0.4066
 8118TIP3    H145769   4.519   3.277   0.971 -2.1544  0.3301  1.0886
 8118TIP3    H245770   4.544   3.129   0.995 -1.5165  0.0304 -1.2090
 8119TIP3   OH245771   3.429   4.942   1.531 -0.4737 -0.3391  0.2113
 8119TIP3    H145772   3.442   4.870   1.593 -0.5742 -1.4972 -1.0673
 8119TIP3    H245773   3.508   4.942   1.478 -1.0608 -0.3996 -0.6757
 8120TIP3   OH245774   5.509   4.846  13.357 -0.2867  0.1308  0.4320
 8120TIP3    H145775   5.584   4.892  13.394 -0.2948  0.5398 -0.0531
 8120TIP3    H245776   5.524   4.846  13.263  1.0760 -3.2386  0.5161
 8121TIP3   OH245777   4.108   1.829   5.362  0.6303  0.4318 -0.3295
 8121TIP3    H145778   4.186   1.872   5.396  0.6664 -0.7446  1.1849
 8121TIP3    H245779   4.117   1.737   5.389 -1.9922  0.5559  1.2913
 8122TIP3   OH245780   1.713   1.599  16.887 -0.3042  0.0415  0.6584
 8122TIP3    H145781   1.692   1.653  16.963  1.2314  1.5663  0.0758
 8122TIP3    H245782   1.809   1.590  16.891 -0.1093  0.7414 -1.4297
 8123TIP3   OH245783   1.770   5.125   3.825  0.2583 -0.1899  0.1506
 8123TIP3    H145784   1.814   5.203   3.791 -0.0883  1.0517  2.3778
 8123TIP3    H245785   1.823   5.098   3.900 -0.7179 -0.9260  0.5902
 8124TIP3   OH245786   5.952   1.005   2.506  0.5018  0.2025  0.8097
 8124TIP3    H145787   5.865   1.037   2.485  0.3433 -0.3249  0.6561
 8124TIP3    H245788   5.950   0.992   2.601  0.3455 -0.0094  0.7780
 8125TIP3   OH245789   6.611   3.094  16.673 -0.0804  0.0705  0.6362
 8125TIP3    H145790   6.651   3.174  16.639 -0.4834 -1.0374 -2.8002
 8125TIP3    H245791   6.675   3.059  16.735  1.4841  1.4788 -0.1185
 8126TIP3   OH245792   4.505   5.262   2.619 -0.4733 -0.1717  0.0723
 8126TIP3    H145793   4.432   5.291   2.565 -0.8853  1.0171  1.2167
 8126TIP3    H245794   4.583   5.295   2.574 -0.6011 -1.3755 -1.1066
 8127TIP3   OH245795   3.314   4.286  16.480  0.1813  0.4979 -0.4335
 8127TIP3    H145796   3.398   4.302  16.438  1.3178 -1.3106  0.9476
 8127TIP3    H245797   3.251   4.281  16.408  1.6315 -0.2149 -1.7217
 8128TIP3   OH245798   3.233   3.864  15.402 -0.6896 -0.2110 -0.1554
 8128TIP3    H145799   3.175   3.934  15.434 -1.6634 -2.0381  2.4279
 8128TIP3    H245800   3.312   3.873  15.454  0.3293  0.5821 -1.7639
 8129TIP3   OH245801   1.873   0.118  16.661  0.0849  0.2377 -0.0274
 8129TIP3    H145802   1.920   0.141  16.741 -0.6085 -1.9665  1.1133
 8129TIP3    H245803   1.782   0.144  16.679 -0.5175 -2.2289  0.8967
 8130TIP3   OH245804   0.482   0.766  16.993 -0.6581  0.1495 -0.7111
 8130TIP3    H145805   0.427   0.703  17.039  1.0267 -0.0387  1.1431
 8130TIP3    H245806   0.451   0.763  16.902 -1.0948 -2.8179 -0.5409
 8131TIP3   OH245807   0.837   1.553   1.581  0.2914  0.1932  0.1846
 8131TIP3    H145808   0.751   1.535   1.618 -0.7852  1.0227 -1.8129
 8131TIP3    H245809   0.883   1.602   1.649 -1.1585  0.5938  0.8936
 8132TIP3   OH245810   6.430   2.073   5.583 -0.1021  0.9110 -0.2562
 8132TIP3    H145811   6.493   2.108   5.646  1.5607 -1.0736 -0.7151
 8132TIP3    H245812   6.440   1.978   5.588 -0.1334  0.6361 -3.2175
 8133TIP3   OH245813   3.399   0.029   3.060  0.3575  0.2123 -0.5581
 8133TIP3    H145814   3.490   0.024   3.092 -0.3168 -0.1675  1.4579
 8133TIP3    H245815   3.351   0.071   3.132 -1.6533 -2.5388 -0.1249
 8134TIP3   OH245816   0.496   4.404   0.531  0.4426  0.2034  0.1419
 8134TIP3    H145817   0.494   4.450   0.615  1.1367  0.2147  0.1597
 8134TIP3    H245818   0.533   4.467   0.470  0.8068 -0.1115  0.0321
 8135TIP3   OH245819   3.178   5.466   3.363 -0.1480  0.2333  0.0957
 8135TIP3    H145820   3.241   5.507   3.304 -0.9480  1.9310  0.3513
 8135TIP3    H245821   3.219   5.471   3.449 -0.0778  0.1418  0.0674
 8136TIP3   OH245822   2.249   5.311   3.388  0.8421 -0.4730 -0.0357
 8136TIP3    H145823   2.162   5.340   3.360  1.6972  0.5595 -1.8368
 8136TIP3    H245824   2.266   5.359   3.468  0.5698  0.9632 -0.8038
 8137TIP3   OH245825   4.376   4.386   5.284 -0.1269 -0.2681 -0.3862
 8137TIP3    H145826   4.372   4.459   5.222 -1.6213 -0.1105 -0.1369
 8137TIP3    H245827   4.359   4.426   5.369  2.1969 -0.4348  0.2325
 8138TIP3   OH245828   5.074   5.822   2.545  0.4711  0.5449  0.0103
 8138TIP3    H145829   5.113   5.735   2.547 -0.8615 -0.0625  1.1929
 8138TIP3    H245830   5.072   5.850   2.637 -1.2472  0.8024 -0.0658
 8139TIP3   OH245831   5.330   2.491   3.099 -0.1432  0.1484 -0.6071
 8139TIP3    H145832   5.312   2.402   3.130  0.8285  0.0857 -0.1910
 8139TIP3    H245833   5.302   2.547   3.172  2.7249 -0.0303  0.7421
 8140TIP3   OH245834   4.141   2.816  13.165 -0.2561  0.3854 -0.7742
 8140TIP3    H145835   4.057   2.856  13.188  0.4670  0.7187  1.6345
 8140TIP3    H245836   4.140   2.731  13.209  0.4164  0.1196 -1.2571
 8141TIP3   OH245837   4.906   3.421   5.749 -0.0506  0.0192 -0.1884
 8141TIP3    H145838   4.954   3.353   5.796  0.2660  0.4785  0.1632
 8141TIP3    H245839   4.822   3.428   5.795  0.1830  0.3357  0.1891
 8142TIP3   OH245840   2.624   1.960   1.978 -0.2094  0.1508 -0.1557
 8142TIP3    H145841   2.661   1.884   2.023 -1.5734 -1.6592 -1.8916
 8142TIP3    H245842   2.530   1.944   1.977 -0.5530  1.9422 -0.4871
 8143TIP3   OH245843   0.775   4.368  11.244 -0.6072 -0.4657 -0.2195
 8143TIP3    H145844   0.775   4.284  11.200  2.7072 -0.3185 -0.7251
 8143TIP3    H245845   0.781   4.346  11.337  3.7407 -1.0153 -0.4395
 8144TIP3   OH245846   2.032   6.447   3.124  0.0082  0.2141 -0.0727
 8144TIP3    H145847   2.116   6.427   3.166 -0.4605  0.0253  0.8193
 8144TIP3    H245848   2.017   6.540   3.144 -1.1393 -0.3362  1.9579
 8145TIP3   OH245849   2.061   5.547   5.093 -0.6244 -0.2113  0.5177
 8145TIP3    H145850   2.016   5.463   5.094  2.0506 -1.7959  2.7762
 8145TIP3    H245851   2.082   5.562   5.000  0.9671 -3.3745  0.2292
 8146TIP3   OH245852   4.113   3.817  11.680 -0.0510  0.0235  0.4609
 8146TIP3    H145853   4.036   3.866  11.654 -0.8192 -1.1886  0.4088
 8146TIP3    H245854   4.079   3.735  11.716  1.2602 -1.5453 -1.6505
 8147TIP3   OH245855   0.221   1.992  15.152  0.3334  0.1084 -0.1353
 8147TIP3    H145856   0.281   2.050  15.105  0.9414 -1.5496 -1.5092
 8147TIP3    H245857   0.278   1.930  15.196 -0.2876  0.8705  1.8533
 8148TIP3   OH245858   0.161   3.578  14.795 -0.3530  0.4581 -0.0120
 8148TIP3    H145859   0.222   3.634  14.843 -0.8697  0.1396  1.0502
 8148TIP3    H245860   0.118   3.636  14.733  2.3086  0.3550 -2.1039
 8149TIP3   OH245861   0.850   4.378   3.603  0.0538  0.0208 -0.7346
 8149TIP3    H145862   0.772   4.323   3.595 -0.6432  1.0596 -1.2088
 8149TIP3    H245863   0.923   4.317   3.590 -0.6944 -0.8123 -1.1444
 8150TIP3   OH245864   3.853   5.161   2.110  0.3415  0.7444  0.3797
 8150TIP3    H145865   3.783   5.148   2.046  0.8657  0.5081 -0.1563
 8150TIP3    H245866   3.866   5.074   2.150  1.1237  0.5025 -0.3647
 8151TIP3   OH245867   0.591   2.882  14.200  0.2493 -0.2624 -0.1563
 8151TIP3    H145868   0.604   2.815  14.268 -1.8121 -0.7238 -0.1558
 8151TIP3    H245869   0.627   2.843  14.121  0.3722 -0.7730  0.1439
 8152TIP3   OH245870   3.281   1.164   4.720  0.5323 -0.2291  0.1747
 8152TIP3    H145871   3.282   1.223   4.645 -3.4303  0.2107  0.2977
 8152TIP3    H245872   3.190   1.135   4.727  0.7383 -0.4291  4.6901
 8153TIP3   OH245873   4.134   3.576  14.144  0.1402  0.1381  0.3603
 8153TIP3    H145874   4.168   3.488  14.156  0.4269  0.3131  0.8843
 8153TIP3    H245875   4.127   3.612  14.233 -0.6670  0.3889  0.2086
 8154TIP3   OH245876   6.307   3.054   3.372 -0.1627  0.0077  0.4370
 8154TIP3    H145877   6.312   3.081   3.280 -1.3651  0.9704  0.6260
 8154TIP3    H245878   6.280   2.962   3.368  2.2856 -0.7546 -0.1888
 8155TIP3   OH245879   6.199   4.256   5.112  0.2955  0.4080 -0.0581
 8155TIP3    H145880   6.246   4.279   5.193 -0.5400 -0.4534  0.6871
 8155TIP3    H245881   6.116   4.304   5.118 -0.0381 -0.1588 -0.0958
 8156TIP3   OH245882   3.820   0.873  13.490 -0.1024 -0.2444  0.7557
 8156TIP3    H145883   3.913   0.884  13.470 -0.1395  1.4372  1.2985
 8156TIP3    H245884   3.809   0.779  13.506  1.9970 -0.2190  2.9499
 8157TIP3   OH245885   2.614   4.303   0.531  0.4754  0.0435  0.3351
 8157TIP3    H145886   2.615   4.313   0.436 -1.2329 -2.3377 -0.0252
 8157TIP3    H245887   2.689   4.247   0.550  0.8700  0.5926  0.4316
 8158TIP3   OH245888   1.613   4.886   0.252 -0.0967 -0.2810 -0.4816
 8158TIP3    H145889   1.581   4.975   0.237 -0.6919 -0.2333  0.9440
 8158TIP3    H245890   1.568   4.857   0.332  2.1010 -0.8498  0.6283
 8159TIP3   OH245891   4.876   3.874   0.267  0.0930 -0.1816  0.0477
 8159TIP3    H145892   4.811   3.869   0.337  0.3705 -1.9160  0.2332
 8159TIP3    H245893   4.900   3.966   0.262  1.0894 -0.1667  3.2219
 8160TIP3   OH245894   1.939   2.122   4.295 -1.2298 -0.1780 -0.2967
 8160TIP3    H145895   1.938   2.036   4.337 -0.9719  0.4549  1.0488
 8160TIP3    H245896   2.019   2.123   4.243  0.3395  0.2808  1.9785
 8161TIP3   OH245897   6.557   0.918  12.024 -0.1992  0.5024  0.6659
 8161TIP3    H145898   6.502   0.876  11.958 -3.1507  2.4902  1.6880
 8161TIP3    H245899   6.544   0.865  12.102 -1.3651  1.4108  1.1121
 8162TIP3   OH245900   0.210   4.778   0.862 -0.0007 -0.2766 -0.3937
 8162TIP3    H145901   0.254   4.732   0.934  1.3208  0.7771 -0.4928
 8162TIP3    H245902   0.195   4.866   0.895 -0.1979 -0.0367 -1.1044
 8163TIP3   OH245903   3.684   4.148   0.253 -0.1522 -0.1568  0.8940
 8163TIP3    H145904   3.684   4.155   0.349 -0.9514  2.9461  0.7636
 8163TIP3    H245905   3.593   4.130   0.230 -0.0553 -0.3778  0.6778
 8164TIP3   OH245906   2.258   2.277   5.019 -0.4074 -0.3220  0.2313
 8164TIP3    H145907   2.216   2.356   5.054  1.1317 -0.3653  2.3966
 8164TIP3    H245908   2.347   2.305   4.998 -0.3419 -1.1074 -0.5895
 8165TIP3   OH245909   2.552   5.504  17.101  0.3679  0.5349  0.3329
 8165TIP3    H145910   2.582   5.486  17.190 -1.4927 -1.2734  0.6771
 8165TIP3    H245911   2.459   5.524  17.110  0.1916  0.5462 -1.1925
 8166TIP3   OH245912   5.776   0.867   0.204  0.0762 -0.1845  0.1268
 8166TIP3    H145913   5.727   0.946   0.224 -0.5364 -0.4641 -0.2562
 8166TIP3    H245914   5.848   0.896   0.148  0.2715  0.2045  0.5735
 8167TIP3   OH245915   1.561   5.984   0.807 -0.8268 -0.1922 -0.1112
 8167TIP3    H145916   1.614   6.040   0.751 -0.5722 -0.6959 -0.3862
 8167TIP3    H245917   1.514   6.044   0.865 -1.8191  0.4081 -1.4842
 8168TIP3   OH245918   3.769   3.716  14.902  0.6018  0.1118 -0.0546
 8168TIP3    H145919   3.734   3.705  14.814  0.5734 -1.7646  0.1532
 8168TIP3    H245920   3.733   3.800  14.932 -2.1777 -0.8130 -0.5738
 8169TIP3   OH245921   4.838   1.609  13.862 -0.4865  0.5615 -0.1340
 8169TIP3    H145922   4.803   1.671  13.798  0.7624  0.9192 -0.5012
 8169TIP3    H245923   4.778   1.616  13.937  0.6462  3.6879  0.6363
 8170TIP3   OH245924   0.740   2.112  14.178 -0.0710  0.4482 -0.6277
 8170TIP3    H145925   0.739   2.016  14.182  2.5442  0.3251 -1.2873
 8170TIP3    H245926   0.783   2.138  14.259  1.2784  0.9208 -1.4752
 8171TIP3   OH245927   4.830   4.245  14.019  0.1109 -1.0437  0.0962
 8171TIP3    H145928   4.862   4.158  13.995  1.7104 -0.0393 -1.7665
 8171TIP3    H245929   4.763   4.266  13.954 -0.8848 -1.1734  1.0430
 8172TIP3   OH245930   1.384   1.520  13.410 -0.4121 -0.3850  0.2343
 8172TIP3    H145931   1.386   1.573  13.489 -0.0918 -1.4711  0.9778
 8172TIP3    H245932   1.434   1.570  13.346 -0.5735  0.4476  0.7480
 8173TIP3   OH245933   1.167   2.847  11.462 -0.1849 -0.1432  0.0139
 8173TIP3    H145934   1.074   2.871  11.469 -0.1463 -0.2736  1.0748
 8173TIP3    H245935   1.215   2.925  11.488 -0.0428 -0.7397  1.6750
 8174TIP3   OH245936   5.412   4.122   0.748 -0.1332 -0.2476 -0.1226
 8174TIP3    H145937   5.472   4.182   0.792 -0.4127  0.4244 -0.6449
 8174TIP3    H245938   5.358   4.087   0.819  0.1174  0.0195  0.2059
 8175TIP3   OH245939   4.674   3.572   1.777 -0.2053  0.1591 -0.6147
 8175TIP3    H145940   4.722   3.654   1.790 -1.8694  0.8751  1.6592
 8175TIP3    H245941   4.682   3.526   1.861 -2.9557  0.1112 -0.2723
 8176TIP3   OH245942   2.848   1.425  13.332  0.7214  0.2537 -0.6319
 8176TIP3    H145943   2.792   1.454  13.259  1.4990  0.8636 -0.9957
 8176TIP3    H245944   2.936   1.424  13.296  1.2875  1.7019  0.6191
 8177TIP3   OH245945   1.350   3.631   3.073  0.8756  0.0464  0.1153
 8177TIP3    H145946   1.333   3.725   3.061  1.1632  0.0207 -0.5172
 8177TIP3    H245947   1.438   3.627   3.110  0.8107  0.0272  0.2708
 8178TIP3   OH245948   3.444   2.919   3.269  0.2153  0.2991  0.3804
 8178TIP3    H145949   3.489   2.894   3.188  0.6229 -1.4850  1.0912
 8178TIP3    H245950   3.408   2.837   3.302  1.1043  0.7230  2.6134
 8179TIP3   OH245951   1.886   0.468  13.443  0.0121 -0.2181  0.3179
 8179TIP3    H145952   1.811   0.408  13.437  0.3264 -0.4952 -2.0990
 8179TIP3    H245953   1.935   0.438  13.519 -0.2207 -2.6199 -0.3866
 8180TIP3   OH245954   1.308   1.965  13.209 -0.1342  0.0677 -0.0988
 8180TIP3    H145955   1.351   1.963  13.294  0.0162 -0.6057 -0.1838
 8180TIP3    H245956   1.244   2.037  13.215 -0.2425 -0.0889  0.6339
 8181TIP3   OH245957   6.304   4.428  17.015 -0.1002 -0.0235  0.4413
 8181TIP3    H145958   6.215   4.453  17.040  0.4212  2.2312  0.3128
 8181TIP3    H245959   6.345   4.400  17.096 -0.6362 -0.0983  0.6895
 8182TIP3   OH245960   1.654   4.990  16.641  0.2825 -0.6168  0.5829
 8182TIP3    H145961   1.721   4.970  16.576  2.7258  0.8639  2.4456
 8182TIP3    H245962   1.573   4.999  16.591  1.6967 -1.2314 -1.9658
 8183TIP3   OH245963   5.330   2.111   2.482 -0.5817  0.1003  0.4410
 8183TIP3    H145964   5.246   2.125   2.526 -0.5446  1.4456  0.1104
 8183TIP3    H245965   5.322   2.156   2.399  0.0713 -0.7470 -0.1003
 8184TIP3   OH245966   0.949   1.226  16.390 -0.3448  0.4507 -0.1036
 8184TIP3    H145967   0.871   1.180  16.423 -1.0313  0.9201 -1.0148
 8184TIP3    H245968   1.007   1.155  16.362 -1.6869  0.0572 -2.1606
 8185TIP3   OH245969   1.181   5.443   0.878  0.2363 -0.3233  0.0032
 8185TIP3    H145970   1.183   5.356   0.919  0.5845 -0.7108 -0.8180
 8185TIP3    H245971   1.272   5.464   0.861  0.1724  0.3310  0.4388
 8186TIP3   OH245972   3.902   3.715  13.706  0.0908  0.3658  0.2580
 8186TIP3    H145973   3.898   3.713  13.801  1.1525  0.5717  0.3277
 8186TIP3    H245974   3.949   3.796  13.685 -1.3661  1.0520 -0.5149
 8187TIP3   OH245975   0.524   1.655   1.824  0.2216 -0.1933 -0.0202
 8187TIP3    H145976   0.459   1.719   1.853  0.3265 -0.6499  1.2955
 8187TIP3    H245977   0.495   1.573   1.864  0.6022 -0.7819 -0.9284
 8188TIP3   OH245978   6.736   1.955   5.591  0.2527 -1.1744 -0.0488
 8188TIP3    H145979   6.734   2.002   5.674 -0.4765 -1.3217  0.0256
 8188TIP3    H245980   6.794   1.880   5.607  0.1193 -1.2015  0.3277
 8189TIP3   OH245981   5.390   5.237  13.288 -0.3496 -0.4070 -0.0333
 8189TIP3    H145982   5.381   5.183  13.367  0.0424 -0.2424  0.1226
 8189TIP3    H245983   5.304   5.279  13.279 -0.4277 -0.4983  0.2530
 8190TIP3   OH245984   4.032   5.751  14.410  0.0026  0.2411 -0.0018
 8190TIP3    H145985   4.042   5.675  14.467  0.6036 -1.1831 -1.8986
 8190TIP3    H245986   4.108   5.806  14.430  0.3955 -0.4130  0.3429
 8191TIP3   OH245987   4.446   2.104   5.925  0.4850  0.4287  0.3103
 8191TIP3    H145988   4.517   2.169   5.918  0.2751  0.5230 -1.3037
 8191TIP3    H245989   4.414   2.113   6.015  0.6811  2.3479  0.2262
 8192TIP3   OH245990   4.648   0.416   2.450  0.6179  0.2164  0.7506
 8192TIP3    H145991   4.622   0.331   2.486  0.8445  0.7545  2.2745
 8192TIP3    H245992   4.744   0.414   2.450  0.6676  0.9445  2.1111
 8193TIP3   OH245993   5.028   0.725  13.014  0.6311 -0.4611  0.0003
 8193TIP3    H145994   4.945   0.679  13.013  0.4375 -0.1153 -1.1511
 8193TIP3    H245995   5.040   0.756  12.924  1.0102  1.2613  0.6067
 8194TIP3   OH245996   3.165   1.662   5.268 -0.3049 -0.9572  0.6525
 8194TIP3    H145997   3.176   1.714   5.188  1.1124 -1.8914  0.1920
 8194TIP3    H245998   3.101   1.711   5.320 -0.5928  0.1334 -0.6617
 8195TIP3   OH245999   6.547   1.525   0.619  0.3648  0.2236 -0.3866
 8195TIP3    H146000   6.578   1.544   0.707 -0.0212 -2.9071  0.5489
 8195TIP3    H246001   6.453   1.540   0.623  0.2925 -0.2682 -0.1265
 8196TIP3   OH246002   0.137   0.710   3.545  0.4261 -0.8503  0.0695
 8196TIP3    H146003   0.061   0.737   3.596  0.7217  0.8697 -0.3486
 8196TIP3    H246004   0.195   0.668   3.608  0.5189  0.6921  1.0536
 8197TIP3   OH246005   1.230   6.585  14.305  0.4550 -0.0193 -0.2973
 8197TIP3    H146006   1.144   6.565  14.267 -0.1432  0.0355  0.9952
 8197TIP3    H246007   1.287   6.597  14.229 -1.0022  1.3890 -1.2348
 8198TIP3   OH246008   2.854   6.737   2.317 -0.2433 -0.0847 -0.5283
 8198TIP3    H146009   2.818   6.822   2.344  0.3870 -0.1066  0.4436
 8198TIP3    H246010   2.779   6.678   2.316 -0.5227  0.2585 -0.2321
 8199TIP3   OH246011   0.722   3.978  14.491  0.1175  0.1529  0.0466
 8199TIP3    H146012   0.691   3.891  14.516 -2.0667  0.9683  0.3811
 8199TIP3    H246013   0.739   4.022  14.574  2.5146 -0.3051 -0.1161
 8200TIP3   OH246014   6.543   3.221  11.268  0.9942 -0.6045  0.1720
 8200TIP3    H146015   6.527   3.224  11.362  1.0207 -0.3128  0.1666
 8200TIP3    H246016   6.627   3.177  11.259  0.0462 -2.5218  0.1866
 8201TIP3   OH246017   5.552   2.679   0.955 -0.4078 -0.5883  0.5109
 8201TIP3    H146018   5.527   2.588   0.971  0.0477 -0.9749 -0.8453
 8201TIP3    H246019   5.635   2.672   0.908 -1.4262  0.4446 -1.5592
 8202TIP3   OH246020   4.396   2.877   5.230 -0.0235  0.0239 -0.6367
 8202TIP3    H146021   4.452   2.800   5.239 -0.7994 -0.5703 -0.8057
 8202TIP3    H246022   4.451   2.950   5.260  0.5112 -0.6729  0.1208
 8203TIP3   OH246023   5.567   5.836   4.650 -0.2443 -0.2337 -0.5244
 8203TIP3    H146024   5.500   5.838   4.718 -1.0626 -0.1191 -1.3186
 8203TIP3    H246025   5.588   5.743   4.640 -0.4008 -0.2847 -0.3908
 8204TIP3   OH246026   4.295   2.704  12.838  0.1366  0.0400 -0.3719
 8204TIP3    H146027   4.369   2.764  12.852 -0.0234  0.0925  0.2997
 8204TIP3    H246028   4.313   2.663  12.753  1.0398 -0.0858 -0.1304
 8205TIP3   OH246029   5.965   5.260  12.359  0.6431  0.0426 -0.1586
 8205TIP3    H146030   5.999   5.212  12.435 -1.5566 -0.0130  0.8595
 8205TIP3    H246031   6.043   5.297  12.318  2.0724 -1.4300  1.0707
 8206TIP3   OH246032   4.545   1.543   4.049  0.1943  0.0912  0.1882
 8206TIP3    H146033   4.594   1.604   4.105 -0.6935  0.3569  0.7124
 8206TIP3    H246034   4.611   1.497   3.998  1.2635 -1.5936  2.8678
 8207TIP3   OH246035   6.511   6.609  17.161 -0.0845  0.1530 -0.2117
 8207TIP3    H146036   6.606   6.617  17.154 -0.1883 -0.1692 -3.2841
 8207TIP3    H246037   6.495   6.514  17.160 -0.4493  0.1703  1.2302
 8208TIP3   OH246038   1.157   3.835   2.294 -0.1528  0.1743  0.4258
 8208TIP3    H146039   1.133   3.746   2.320  0.7343  0.2234  1.5257
 8208TIP3    H246040   1.235   3.825   2.240 -0.5274  0.2431 -0.1391
 8209TIP3   OH246041   0.593   6.572   2.527  0.3791  0.4790  0.1815
 8209TIP3    H146042   0.602   6.591   2.621  1.2753 -0.4067  0.2826
 8209TIP3    H246043   0.501   6.548   2.517 -0.0675  1.9169  0.5728
 8210TIP3   OH246044   4.793   3.898  10.476 -0.1170 -0.0622 -0.6092
 8210TIP3    H146045   4.827   3.983  10.447 -2.0904  0.1109 -2.7575
 8210TIP3    H246046   4.864   3.836  10.459  0.3214  0.7441 -1.8557
 8211TIP3   OH246047   5.427   4.377   1.319  0.0333 -0.5379  0.3876
 8211TIP3    H146048   5.513   4.421   1.318 -0.6797  1.1671 -3.4735
 8211TIP3    H246049   5.380   4.420   1.390  0.9746  1.7035 -0.2460
 8212TIP3   OH246050   5.904   3.787   4.003  0.1728  0.4270 -0.2936
 8212TIP3    H146051   5.976   3.804   3.942  0.9014 -0.5160  0.2942
 8212TIP3    H246052   5.839   3.740   3.950  1.0195 -0.8460 -0.2395
 8213TIP3   OH246053   6.712   2.868  13.337 -0.0109 -0.2693  0.1629
 8213TIP3    H146054   6.726   2.834  13.425  0.9373 -0.0115  0.1261
 8213TIP3    H246055   6.800   2.889  13.305 -0.4923  1.5369 -0.0800
 8214TIP3   OH246056   2.852   1.299  15.749  0.0209 -0.5223 -0.1563
 8214TIP3    H146057   2.923   1.264  15.803  0.6176  2.3480  1.0672
 8214TIP3    H246058   2.790   1.336  15.812 -0.3950  0.8999 -1.3516
 8215TIP3   OH246059   0.494   1.268   3.360 -0.1443  0.1943 -0.0431
 8215TIP3    H146060   0.534   1.353   3.375 -0.2681  0.3270 -0.4532
 8215TIP3    H246061   0.556   1.221   3.304  0.1536 -0.1700  0.5803
 8216TIP3   OH246062   6.182   6.578   3.613 -0.2864  0.8471 -0.5496
 8216TIP3    H146063   6.205   6.528   3.691 -1.3335 -0.7427 -1.1955
 8216TIP3    H246064   6.155   6.664   3.646  2.3256  1.3394  0.5355
 8217TIP3   OH246065   3.398   2.101  14.063  0.2213 -0.2525 -0.1185
 8217TIP3    H146066   3.382   2.009  14.084  2.2075 -1.1172 -1.9325
 8217TIP3    H246067   3.368   2.110  13.972 -0.6773  1.1273  0.2900
 8218TIP3   OH246068   0.126   1.168   2.459 -0.1240 -0.5603 -0.0835
 8218TIP3    H146069   0.090   1.084   2.432 -2.4637 -0.2292  1.6480
 8218TIP3    H246070   0.176   1.149   2.538 -1.6099 -0.2384  0.9762
 8219TIP3   OH246071   4.233   2.744  10.730  0.3612 -0.7327  0.0291
 8219TIP3    H146072   4.298   2.675  10.740 -0.2066 -1.4945 -1.3780
 8219TIP3    H246073   4.149   2.699  10.725  0.0487 -0.0340 -1.6794
 8220TIP3   OH246074   5.320   1.212   2.386 -0.0219  0.0357  0.0611
 8220TIP3    H146075   5.393   1.242   2.331 -0.5906  0.8688 -0.2648
 8220TIP3    H246076   5.305   1.284   2.447 -1.0751  0.2237 -0.3896
 8221TIP3   OH246077   6.185   4.320  12.468 -0.2465 -0.1322  0.3672
 8221TIP3    H146078   6.107   4.309  12.413  0.7575  0.6931 -1.2855
 8221TIP3    H246079   6.214   4.231  12.487 -0.6944 -0.4372 -0.3316
 8222TIP3   OH246080   4.417   6.276  14.919 -0.3977 -0.2236  0.1967
 8222TIP3    H146081   4.488   6.244  14.864  0.6162 -0.0956  1.3907
 8222TIP3    H246082   4.376   6.197  14.953 -0.6306 -0.2928 -0.2368
 8223TIP3   OH246083   2.054   1.909   3.830 -0.2583 -0.2183 -0.0251
 8223TIP3    H146084   1.995   1.973   3.790  0.1671 -0.1363 -0.5423
 8223TIP3    H246085   2.031   1.826   3.788  0.3937 -0.0791 -0.6913
 8224TIP3   OH246086   3.445   4.006  11.192 -0.0207  0.1482  0.4479
 8224TIP3    H146087   3.398   3.924  11.177 -0.3999  0.7183 -1.8041
 8224TIP3    H246088   3.520   3.980  11.245 -0.0757 -1.6829 -0.2770
 8225TIP3   OH246089   5.970   1.610   2.864 -1.0065  0.0891 -0.0410
 8225TIP3    H146090   5.999   1.527   2.825 -1.7062  0.6915 -1.9661
 8225TIP3    H246091   5.877   1.615   2.842 -1.2487  0.8499  1.0887
 8226TIP3   OH246092   5.116   1.243   1.255 -0.2796 -0.5156 -0.1802
 8226TIP3    H146093   5.129   1.212   1.166 -1.7615 -0.6752 -0.3693
 8226TIP3    H246094   5.064   1.174   1.297  0.6118 -0.5673  0.8900
 8227TIP3   OH246095   4.910   3.870   2.681 -0.6384 -0.1242 -0.3076
 8227TIP3    H146096   4.960   3.796   2.715 -0.0352  0.6328  0.5105
 8227TIP3    H246097   4.839   3.830   2.631 -1.4467 -1.3328  1.6654
 8228TIP3   OH246098   1.257   3.434  13.687 -0.2192 -0.1647 -0.2418
 8228TIP3    H146099   1.298   3.463  13.605 -0.0322  1.3256  0.3589
 8228TIP3    H246100   1.164   3.428  13.666 -0.3331  1.3618 -0.2818
 8229TIP3   OH246101   4.561   2.844  14.560  0.3848 -0.2974  0.1435
 8229TIP3    H146102   4.474   2.874  14.588  0.2996 -2.3364  2.3733
 8229TIP3    H246103   4.608   2.827  14.641  2.3359 -0.8072 -1.0200
 8230TIP3   OH246104   0.892   3.627   3.284 -0.0697 -0.2618  0.1814
 8230TIP3    H146105   0.874   3.552   3.341  1.0078 -0.7436 -0.0707
 8230TIP3    H246106   0.945   3.686   3.338  0.9334 -0.7091 -0.2810
 8231TIP3   OH246107   4.397   5.102  11.307 -0.1159 -0.2057 -0.5040
 8231TIP3    H146108   4.328   5.072  11.366  0.1077 -1.1502 -0.7047
 8231TIP3    H246109   4.443   5.170  11.356 -0.5672 -0.2694  0.0150
 8232TIP3   OH246110   0.823   6.660   3.958  0.1465 -0.0504  0.1648
 8232TIP3    H146111   0.786   6.745   3.978  1.2437  0.8190 -1.2981
 8232TIP3    H246112   0.824   6.656   3.862  1.5173 -1.0559  0.1861
 8233TIP3   OH246113   1.560   2.525   2.396 -0.4828  0.2245 -0.0010
 8233TIP3    H146114   1.576   2.501   2.304 -0.7041 -0.0576  0.0334
 8233TIP3    H246115   1.514   2.449   2.433  0.8049 -0.2357  0.7068
 8234TIP3   OH246116   6.430   5.842  14.782  0.3953  0.2021 -0.1636
 8234TIP3    H146117   6.390   5.821  14.698  1.4105  1.1536 -0.9156
 8234TIP3    H246118   6.375   5.911  14.819  0.5874  0.5874 -0.5869
 8235TIP3   OH246119   3.544   2.675  14.812 -0.3652 -0.5350 -0.2035
 8235TIP3    H146120   3.478   2.647  14.749  0.9677 -1.0766 -1.4256
 8235TIP3    H246121   3.626   2.636  14.780  0.9785  1.9520 -0.0186
 8236TIP3   OH246122   2.022   1.102   4.193 -0.6786 -0.1254  0.2404
 8236TIP3    H146123   2.044   1.049   4.270 -0.3721 -0.7241 -0.2519
 8236TIP3    H246124   2.106   1.139   4.166 -0.5456 -0.9868 -0.5862
 8237TIP3   OH246125   1.387   1.020  10.645 -0.2524  0.4716  0.2188
 8237TIP3    H146126   1.434   0.980  10.572  0.9807  2.0651  0.0669
 8237TIP3    H246127   1.426   1.107  10.653 -2.2107  1.3346  1.0555
 8238TIP3   OH246128   0.665   0.973  15.105  0.6551 -0.0089  0.3342
 8238TIP3    H146129   0.593   0.951  15.047  0.2676  1.3192  0.2645
 8238TIP3    H246130   0.705   1.051  15.065  2.4391 -0.9897  0.1192
 8239TIP3   OH246131   2.163   5.985   3.514 -0.0850  0.1174 -0.7356
 8239TIP3    H146132   2.109   5.947   3.582 -0.5581  1.5838 -0.2589
 8239TIP3    H246133   2.253   5.958   3.537 -0.1841  0.9657  0.7356
 8240TIP3   OH246134   3.173   4.353   2.680  0.0102 -0.0021  0.0329
 8240TIP3    H146135   3.154   4.389   2.767 -1.9992 -0.7751 -0.0372
 8240TIP3    H246136   3.125   4.409   2.620  2.3872  1.2991 -0.7789
 8241TIP3   OH246137   0.502   5.305  17.020  0.2058 -0.5889 -0.7268
 8241TIP3    H146138   0.578   5.265  16.978 -0.0413 -0.4506 -1.3092
 8241TIP3    H246139   0.514   5.286  17.114  0.0440 -2.0963 -0.9871
 8242TIP3   OH246140   1.571   0.116   2.429  0.0637  0.3909 -0.2614
 8242TIP3    H146141   1.586   0.022   2.418 -0.9206  0.5355 -3.8723
 8242TIP3    H246142   1.504   0.121   2.497 -0.1124 -1.5243 -0.2346
 8243TIP3   OH246143   3.192   6.450  11.359  0.0083  0.7047  0.3312
 8243TIP3    H146144   3.173   6.491  11.443 -0.8301  0.5922  0.2072
 8243TIP3    H246145   3.197   6.523  11.297 -0.5118  0.6953  0.2795
 8244TIP3   OH246146   4.146   0.641   1.298 -0.0427  0.3183 -0.7903
 8244TIP3    H146147   4.073   0.662   1.356 -1.1455  0.4777 -2.1849
 8244TIP3    H246148   4.199   0.579   1.348  0.7349  2.6906  1.5577
 8245TIP3   OH246149   1.305   1.195  15.478 -0.1259  0.1886  0.2059
 8245TIP3    H146150   1.235   1.133  15.500  0.4606  0.1428  2.1364
 8245TIP3    H246151   1.372   1.141  15.435 -0.3412 -0.1840  0.3311
 8246TIP3   OH246152   0.651   5.503   2.215  0.0046 -0.2074 -0.1667
 8246TIP3    H146153   0.688   5.435   2.158 -0.7322  1.7062 -3.1559
 8246TIP3    H246154   0.695   5.583   2.187 -0.3403  0.8524  2.1169
 8247TIP3   OH246155   5.113   6.260  15.814  0.5318 -0.1009  0.2941
 8247TIP3    H146156   5.183   6.248  15.749 -1.1236 -2.2226 -1.2763
 8247TIP3    H246157   5.049   6.316  15.770  0.8509  1.1866  1.4208
 8248TIP3   OH246158   1.143   0.187  11.453 -0.1007  0.1349 -0.3536
 8248TIP3    H146159   1.136   0.265  11.508 -1.8444  1.0629 -1.7713
 8248TIP3    H246160   1.147   0.114  11.514 -2.4773  1.0777  1.0424
 8249TIP3   OH246161   4.809   2.050  12.296  0.6100  0.8789  0.2912
 8249TIP3    H146162   4.863   2.089  12.365 -1.5105  0.6284  2.2057
 8249TIP3    H246163   4.799   1.959  12.323  1.1803  0.3041 -1.3354
 8250TIP3   OH246164   4.804   6.589   0.738  0.2717  0.4727  0.0397
 8250TIP3    H146165   4.890   6.565   0.770 -0.0863 -0.0304  0.6257
 8250TIP3    H246166   4.816   6.678   0.702  1.4130 -0.2340 -1.4501
 8251TIP3   OH246167   0.279   4.850   0.366 -0.4094  0.0621 -0.2057
 8251TIP3    H146168   0.305   4.819   0.452  0.4296 -2.0336 -1.1604
 8251TIP3    H246169   0.305   4.942   0.365 -2.1428  0.6971  2.4088
 8252TIP3   OH246170   0.853   3.936  11.826 -0.6844  0.3115  0.0734
 8252TIP3    H146171   0.894   3.981  11.752 -0.3546 -0.3782 -0.1698
 8252TIP3    H246172   0.916   3.867  11.850 -0.3412  1.1049  1.6056
 8253TIP3   OH246173   2.585   3.500  14.318 -0.9514  0.4813  0.3268
 8253TIP3    H146174   2.597   3.474  14.409 -0.1688  0.5549  0.2478
 8253TIP3    H246175   2.571   3.418  14.271  1.0682  0.1843  0.1495
 8254TIP3   OH246176   5.433   5.534   2.698 -0.1255  0.1339  0.0285
 8254TIP3    H146177   5.450   5.624   2.725 -0.0716 -0.3722  1.7881
 8254TIP3    H246178   5.507   5.511   2.641  1.5045  0.2274  2.0070
 8255TIP3   OH246179   2.129   1.603   3.228 -0.1395 -0.6252  0.5047
 8255TIP3    H146180   2.069   1.653   3.283 -0.1943 -0.7637  0.5715
 8255TIP3    H246181   2.121   1.513   3.259 -1.1251 -0.9356 -0.5483
 8256TIP3   OH246182   1.446   4.042   5.875 -0.0334  0.0975 -0.2319
 8256TIP3    H146183   1.355   4.026   5.899 -0.3115  1.1310 -0.5671
 8256TIP3    H246184   1.496   3.979   5.927 -1.0461 -1.6863 -1.3101
 8257TIP3   OH246185   1.721   4.050  15.241  0.1181  0.1130 -0.8783
 8257TIP3    H146186   1.767   3.989  15.183  1.2556  0.2669 -0.1759
 8257TIP3    H246187   1.760   4.135  15.221  1.6222 -0.0360  1.0906
 8258TIP3   OH246188   5.661   0.157  15.540  0.1934  0.2953 -0.0890
 8258TIP3    H146189   5.674   0.190  15.629  1.8170 -0.1708 -0.1349
 8258TIP3    H246190   5.660   0.236  15.486  0.1049  0.5162  0.2286
 8259TIP3   OH246191   3.991   3.153   3.367 -0.1637 -0.2661 -0.6270
 8259TIP3    H146192   3.933   3.157   3.290 -0.4686  2.0669 -0.3692
 8259TIP3    H246193   4.030   3.240   3.371  0.0978 -0.4300  1.6783
 8260TIP3   OH246194   3.065   4.156   0.539  0.0897  0.0829  0.2879
 8260TIP3    H146195   3.140   4.150   0.479 -0.0289  0.7867  0.0663
 8260TIP3    H246196   3.070   4.075   0.591  0.8387 -0.0073  0.0902
 8261TIP3   OH246197   0.403   5.914   2.156  0.5850 -0.4040 -0.2676
 8261TIP3    H146198   0.444   5.887   2.238 -0.1393 -1.7585 -0.3185
 8261TIP3    H246199   0.313   5.882   2.163  0.3005  0.1149 -1.2959
 8262TIP3   OH246200   1.521   0.578  11.260  0.3800 -0.4591 -0.2675
 8262TIP3    H146201   1.509   0.566  11.354 -0.1480 -0.1681 -0.2928
 8262TIP3    H246202   1.606   0.622  11.252 -0.3913  1.2088  0.2170
 8263TIP3   OH246203   2.223   5.479   2.651 -0.2217 -0.2908  0.0927
 8263TIP3    H146204   2.182   5.429   2.580 -0.7518 -0.3307  0.4248
 8263TIP3    H246205   2.316   5.453   2.647 -0.0388  0.5056 -1.2458
 8264TIP3   OH246206   2.292   1.577  14.214  0.0230  0.5777 -0.3306
 8264TIP3    H146207   2.263   1.531  14.293  0.0799  1.7359  0.3884
 8264TIP3    H246208   2.339   1.654  14.246  1.7477  0.0729 -1.4918
 8265TIP3   OH246209   3.152   2.218   5.561 -0.1139 -0.5944  0.4654
 8265TIP3    H146210   3.184   2.133   5.528 -1.0372 -1.3100  1.3397
 8265TIP3    H246211   3.197   2.229   5.644  0.9806  0.4215 -0.2378
 8266TIP3   OH246212   5.082   0.367   4.207 -0.0394 -0.5670  1.0595
 8266TIP3    H146213   5.108   0.367   4.115  0.2468  0.6969  1.1157
 8266TIP3    H246214   5.103   0.456   4.237 -1.0748 -0.6494  2.0693
 8267TIP3   OH246215   5.936   2.067  11.452 -0.3331  0.5428  0.1136
 8267TIP3    H146216   5.886   2.148  11.446  0.2621  0.9793  0.8107
 8267TIP3    H246217   5.979   2.058  11.367 -2.1213 -0.2128 -0.7474
 8268TIP3   OH246218   3.489   5.413   3.731 -0.3603  0.0330 -0.2189
 8268TIP3    H146219   3.575   5.440   3.699 -0.0830 -0.3051  0.2428
 8268TIP3    H246220   3.482   5.321   3.706  0.2761 -0.5305  1.5449
 8269TIP3   OH246221   4.904   2.323  12.738 -0.0639 -0.0325 -0.4402
 8269TIP3    H146222   4.905   2.260  12.810  0.0172 -1.4420 -1.6460
 8269TIP3    H246223   4.822   2.372  12.751 -0.2454 -0.5207  0.3743
 8270TIP3   OH246224   5.080   3.813   5.265  0.4641 -0.4214 -0.4075
 8270TIP3    H146225   5.070   3.827   5.171  0.8362  2.8852 -0.0695
 8270TIP3    H246226   5.168   3.844   5.285  0.1138 -0.3282  1.1393
 8271TIP3   OH246227   5.425   1.611   2.542  0.2594  0.7607 -0.1040
 8271TIP3    H146228   5.415   1.634   2.634 -2.2533 -0.7025  0.0687
 8271TIP3    H246229   5.416   1.695   2.495 -1.4149  1.1589  0.8524
 8272TIP3   OH246230   1.599   5.484  11.494 -0.0890 -1.0137 -0.2654
 8272TIP3    H146231   1.572   5.399  11.459 -1.4513 -0.4646 -0.6331
 8272TIP3    H246232   1.666   5.515  11.432 -0.8070 -1.0833 -1.0926
 8273TIP3   OH246233   4.857   4.628   4.882 -0.1270  0.1604 -0.1985
 8273TIP3    H146234   4.799   4.603   4.954 -0.4535  0.2158 -0.4411
 8273TIP3    H246235   4.902   4.547   4.858  1.0739  0.4268  1.0352
 8274TIP3   OH246236   5.012   3.000   3.167  0.0910 -0.1490 -1.5970
 8274TIP3    H146237   5.075   2.948   3.117 -1.3215  0.3397 -4.0860
 8274TIP3    H246238   4.929   2.987   3.121 -1.5290 -0.1952  1.1062
 8275TIP3   OH246239   1.466   4.043  11.578 -0.6617 -0.1331 -0.1452
 8275TIP3    H146240   1.429   4.124  11.544  0.3459  0.0955 -0.7108
 8275TIP3    H246241   1.458   4.051  11.673  0.8165  1.3195 -0.1002
 8276TIP3   OH246242   6.709   5.906   1.865 -0.2263  0.2366  0.3450
 8276TIP3    H146243   6.635   5.953   1.904  0.0924  1.3254 -0.3387
 8276TIP3    H246244   6.731   5.839   1.931 -0.0440  1.6777  1.8177
 8277TIP3   OH246245   0.842   4.973   1.406  0.3540  0.4543  0.0736
 8277TIP3    H146246   0.787   4.906   1.366  1.9776 -0.6358 -0.4642
 8277TIP3    H246247   0.873   5.026   1.332  1.4365 -0.0774  0.1197
 8278TIP3   OH246248   3.542   5.626  11.954  0.4588 -0.0672  0.5343
 8278TIP3    H146249   3.545   5.566  11.880  2.4330  0.0501  0.4727
 8278TIP3    H246250   3.461   5.676  11.941  1.2757  0.7283 -2.1829
 8279TIP3   OH246251   1.562   5.590   3.094  0.5813  0.1962  0.0484
 8279TIP3    H146252   1.566   5.520   3.028 -1.7340  0.1795 -0.1566
 8279TIP3    H246253   1.552   5.670   3.042  2.2702  0.6331  0.3207
 8280TIP3   OH246254   2.047   0.862   0.897 -0.2548  0.1892  0.1868
 8280TIP3    H146255   1.964   0.859   0.850 -0.5119  2.1323  0.4234
 8280TIP3    H246256   2.022   0.860   0.990 -0.1538  1.7149  0.2799
 8281TIP3   OH246257   0.498   5.192   2.224  0.1876 -0.0252 -0.4914
 8281TIP3    H146258   0.576   5.207   2.171  0.5078  1.7950  0.4107
 8281TIP3    H246259   0.443   5.268   2.208 -1.4360 -1.2729 -1.0983
 8282TIP3   OH246260   1.399   2.548  14.912  0.0378  0.2611 -0.3073
 8282TIP3    H146261   1.422   2.637  14.939 -2.3744  1.2014 -1.1066
 8282TIP3    H246262   1.446   2.534  14.830  1.6567  0.1433  0.5943
 8283TIP3   OH246263   6.293   4.642   0.430 -0.8259 -0.0487  0.5667
 8283TIP3    H146264   6.354   4.615   0.499  0.1101 -0.4021 -0.3765
 8283TIP3    H246265   6.273   4.734   0.451 -0.0436  0.0480  0.9530
 8284TIP3   OH246266   2.390   3.140  12.010 -0.0715  0.0989  0.1130
 8284TIP3    H146267   2.427   3.054  12.029  0.0062 -0.2813 -1.6237
 8284TIP3    H246268   2.326   3.124  11.941  0.6120  1.5567 -0.8995
 8285TIP3   OH246269   6.595   1.656   1.107 -0.4944  0.2856  0.2359
 8285TIP3    H146270   6.674   1.664   1.161 -1.1656  1.8248  1.0783
 8285TIP3    H246271   6.620   1.596   1.037  0.7542 -0.9252  1.6427
 8286TIP3   OH246272   1.965   1.175  13.377  0.3873 -0.4677  0.3437
 8286TIP3    H146273   2.025   1.236  13.420 -0.4695  0.3579  0.3991
 8286TIP3    H246274   1.973   1.094  13.427 -0.9113  0.5884  2.4088
 8287TIP3   OH246275   4.627   4.984   1.227  0.1623  0.3805  0.1982
 8287TIP3    H146276   4.687   4.954   1.295  1.0006 -1.4999 -1.2839
 8287TIP3    H246277   4.576   4.906   1.204 -0.6385  1.1703 -0.7831
 8288TIP3   OH246278   4.438   5.420   1.204  0.2097  0.4491  0.0494
 8288TIP3    H146279   4.474   5.343   1.248  1.0869  1.9039  2.0290
 8288TIP3    H246280   4.507   5.448   1.145  0.3769  0.4006  0.2199
 8289TIP3   OH246281   0.456   0.791  10.481  0.0012 -0.1080  0.3164
 8289TIP3    H146282   0.511   0.865  10.457 -0.4272 -0.0166 -0.4209
 8289TIP3    H246283   0.506   0.744  10.547  1.5374 -0.7244 -1.2135
 8290TIP3   OH246284   4.969   2.729   0.284  0.0291  0.0548  0.3684
 8290TIP3    H146285   5.017   2.801   0.243  0.2845  0.3055  1.0947
 8290TIP3    H246286   4.991   2.734   0.377  0.1706 -1.0554  0.4156
 8291TIP3   OH246287   5.840   6.778   1.966  0.0931  0.1706 -0.5779
 8291TIP3    H146288   5.863   6.733   1.885  2.7762 -0.5992  0.5003
 8291TIP3    H246289   5.900   6.853   1.970 -0.1130  0.2953  0.5817
 8292TIP3   OH246290   4.170   2.322  16.797 -0.1774  0.6674 -0.4233
 8292TIP3    H146291   4.078   2.297  16.790  0.0703  0.0415 -1.9107
 8292TIP3    H246292   4.211   2.250  16.845 -0.7636  1.8858  2.0658
 8293TIP3   OH246293   1.876   2.484   6.215  0.1578  0.0796 -0.4566
 8293TIP3    H146294   1.840   2.571   6.202  0.7488  0.1962 -1.3862
 8293TIP3    H246295   1.970   2.497   6.228  0.3357 -0.4363 -1.1084
 8294TIP3   OH246296   5.657   4.269  14.356 -0.2454 -0.2309 -0.7846
 8294TIP3    H146297   5.597   4.280  14.282  1.3909  2.7895 -1.8214
 8294TIP3    H246298   5.733   4.225  14.319  0.7277  1.6076 -1.0814
 8295TIP3   OH246299   4.029   3.133  14.482  0.5386 -0.3455 -0.3771
 8295TIP3    H146300   4.119   3.134  14.449  1.1452 -0.5737  1.1551
 8295TIP3    H246301   4.011   3.225  14.504  0.6817 -0.4042 -0.0004
 8296TIP3   OH246302   3.237   3.091   3.417 -0.1150 -0.2306  0.3986
 8296TIP3    H146303   3.163   3.110   3.358  1.0456  0.7492 -0.7853
 8296TIP3    H246304   3.303   3.051   3.360  2.2477  3.4515  0.2208
 8297TIP3   OH246305   3.275   4.169   0.376 -0.3699  0.2229 -0.1792
 8297TIP3    H146306   3.343   4.147   0.440  0.0251  3.1416  0.5485
 8297TIP3    H246307   3.321   4.168   0.291 -0.3753 -1.4963 -0.1938
 8298TIP3   OH246308   4.339   2.311  15.499  0.0281 -0.0753 -0.2108
 8298TIP3    H146309   4.429   2.304  15.531 -0.6433  0.3593  1.9548
 8298TIP3    H246310   4.296   2.232  15.530 -0.8323  0.6937  0.6395
 8299TIP3   OH246311   3.840   0.392  13.334 -0.5436  0.8749 -0.4678
 8299TIP3    H146312   3.830   0.480  13.297 -0.4158  0.1669 -2.2621
 8299TIP3    H246313   3.759   0.377  13.384 -1.0828  1.5491 -1.1266
 8300TIP3   OH246314   3.781   4.408   1.158 -0.2677 -0.1173 -0.2430
 8300TIP3    H146315   3.743   4.494   1.180 -0.2313  0.2515 -1.5144
 8300TIP3    H246316   3.707   4.359   1.122 -0.2442 -0.5655  0.3054
 8301TIP3   OH246317   2.204   0.511  13.614  0.0588  0.4828 -0.1184
 8301TIP3    H146318   2.195   0.470  13.528 -2.7813 -0.1156  0.3636
 8301TIP3    H246319   2.167   0.598  13.604  0.1967  0.6067  0.3924
 8302TIP3   OH246320   5.705   2.425  14.296 -0.1334 -0.0111  0.2282
 8302TIP3    H146321   5.736   2.335  14.309  0.3618  0.1124 -0.0810
 8302TIP3    H246322   5.696   2.434  14.202 -1.5355 -0.1746  0.3316
 8303TIP3   OH246323   4.045   5.135  11.967  0.1938 -0.2008 -0.0269
 8303TIP3    H146324   4.041   5.213  11.911  2.3089 -0.9968 -1.3991
 8303TIP3    H246325   4.126   5.146  12.017 -0.3642 -0.7393  1.0053
 8304TIP3   OH246326   1.144   0.896   2.596 -0.2261  0.1356 -0.0561
 8304TIP3    H146327   1.122   0.811   2.558  0.8759 -0.3485  0.3365
 8304TIP3    H246328   1.066   0.921   2.646 -0.8610 -0.2507 -0.8215
 8305TIP3   OH246329   5.655   1.424  13.694  0.1020  0.4271  0.1628
 8305TIP3    H146330   5.720   1.438  13.762  0.2512  3.2375 -0.4246
 8305TIP3    H246331   5.575   1.463  13.728 -0.6827 -0.9457 -0.0444
 8306TIP3   OH246332   1.450   4.704  11.375  0.4284  0.4661 -0.4070
 8306TIP3    H146333   1.396   4.777  11.345  0.2242  0.7635  0.6272
 8306TIP3    H246334   1.436   4.635  11.311 -0.3910  0.8942 -0.6981
 8307TIP3   OH246335   4.291   2.749   0.803  0.4383 -0.3101  0.3068
 8307TIP3    H146336   4.342   2.706   0.872  0.8749 -0.4145 -0.0743
 8307TIP3    H246337   4.316   2.842   0.809 -1.3867  0.1441  1.9061
 8308TIP3   OH246338   6.068   5.854  14.573  0.3267  0.1446 -0.0050
 8308TIP3    H146339   6.070   5.923  14.639 -0.1026  1.0008 -0.8470
 8308TIP3    H246340   6.102   5.776  14.617  0.1406  0.7167  1.1782
 8309TIP3   OH246341   6.531   4.980   0.760 -0.2682  0.0892 -0.6269
 8309TIP3    H146342   6.529   4.957   0.667 -0.2981 -1.2360 -0.3238
 8309TIP3    H246343   6.613   5.028   0.771  0.5435 -1.1515 -1.0486
 8310TIP3   OH246344   1.817   6.600   0.112  0.1612 -0.1524 -0.3546
 8310TIP3    H146345   1.851   6.652   0.040  1.1849 -0.0645  0.1759
 8310TIP3    H246346   1.870   6.624   0.188 -0.7499 -0.3944  0.3973
 8311TIP3   OH246347   2.576   2.484  11.549 -0.2003 -0.1589 -0.7327
 8311TIP3    H146348   2.581   2.509  11.641 -0.3646  0.9189 -0.9985
 8311TIP3    H246349   2.487   2.505  11.523  0.4818  1.8370 -1.7229
 8312TIP3   OH246350   4.099   3.907  15.949  0.0942 -0.5939 -0.0980
 8312TIP3    H146351   4.067   3.818  15.939 -0.6285 -0.5401  1.5342
 8312TIP3    H246352   4.093   3.925  16.043  2.7103  0.2530 -0.0123
 8313TIP3   OH246353   4.495   6.490   0.459 -0.1586  0.2738  0.0225
 8313TIP3    H146354   4.447   6.408   0.455  0.6026 -0.1800 -0.0446
 8313TIP3    H246355   4.522   6.498   0.550  0.8860 -0.2274 -0.2216
 8314TIP3   OH246356   0.623   4.173   4.113  1.0951 -0.0802 -0.3864
 8314TIP3    H146357   0.682   4.211   4.178 -0.0836 -0.7653  1.1675
 8314TIP3    H246358   0.542   4.224   4.123  1.2850  0.6696 -2.2788
 8315TIP3   OH246359   4.523   1.309  12.567 -0.0886  0.3422  0.1404
 8315TIP3    H146360   4.495   1.264  12.487 -2.6271  0.1959  1.0210
 8315TIP3    H246361   4.551   1.239  12.625 -0.7262  0.2138  0.2930
 8316TIP3   OH246362   1.711   3.813   2.165  0.0520  0.1736 -0.4470
 8316TIP3    H146363   1.697   3.831   2.072  2.1418  0.9218 -0.6715
 8316TIP3    H246364   1.737   3.721   2.167 -1.8436 -0.4020 -0.3389
 8317TIP3   OH246365   2.034   3.846  16.146 -1.0930 -0.1837 -0.3432
 8317TIP3    H146366   2.031   3.939  16.121 -3.0734 -0.4080 -1.0683
 8317TIP3    H246367   2.089   3.806  16.078  0.3824  0.5424  0.3808
 8318TIP3   OH246368   1.575   5.290  13.600  0.4846 -0.6668  0.4135
 8318TIP3    H146369   1.650   5.349  13.600  1.1800 -1.5137 -1.0603
 8318TIP3    H246370   1.606   5.212  13.647  0.3748 -0.8247  0.2251
 8319TIP3   OH246371   1.898   6.649   3.793  0.2700  0.4451  0.5987
 8319TIP3    H146372   1.895   6.554   3.800 -0.5788  0.5367  1.9025
 8319TIP3    H246373   1.814   6.673   3.754  0.7821  0.6302 -0.4194
 8320TIP3   OH246374   1.438   2.056   5.944 -0.2065 -0.2380  0.5315
 8320TIP3    H146375   1.373   2.057   6.015 -0.7308 -1.0142  0.0788
 8320TIP3    H246376   1.432   2.143   5.905 -1.3437 -0.4568  0.1764
 8321TIP3   OH246377   3.279   0.877   3.450  0.2998 -0.5711  0.6311
 8321TIP3    H146378   3.243   0.842   3.531  0.8115 -4.9927 -0.7755
 8321TIP3    H246379   3.205   0.880   3.390  0.7019 -1.8771  0.0249
 8322TIP3   OH246380   6.521   2.068  12.939 -0.1064 -0.3673 -0.0519
 8322TIP3    H146381   6.540   1.996  12.880 -0.3709 -0.5878  0.1271
 8322TIP3    H246382   6.517   2.146  12.883  2.4560 -0.0983  0.0389
 8323TIP3   OH246383   6.648   3.312  12.612  0.0106  0.4354  0.2034
 8323TIP3    H146384   6.578   3.330  12.549  1.2659 -0.1854 -1.4430
 8323TIP3    H246385   6.634   3.222  12.639 -0.0837  0.4574  0.2296
 8324TIP3   OH246386   2.217   2.836   1.564  0.9002 -0.1553  0.0472
 8324TIP3    H146387   2.244   2.871   1.479  2.0893 -0.9186  0.0776
 8324TIP3    H246388   2.300   2.822   1.611  0.2358  1.7511  1.9618
 8325TIP3   OH246389   0.302   5.046   1.630 -0.0796 -0.1253 -0.7831
 8325TIP3    H146390   0.372   5.092   1.583  1.0434  0.2573  1.1595
 8325TIP3    H246391   0.315   5.069   1.722 -0.4944 -3.0184  0.0991
 8326TIP3   OH246392   3.534   0.628  11.307  0.0117  0.7825  0.1538
 8326TIP3    H146393   3.587   0.708  11.312  0.7543  0.3192 -0.0645
 8326TIP3    H246394   3.519   0.615  11.213 -0.2071  0.7277  0.1966
 8327TIP3   OH246395   4.622   0.938  14.318 -0.0715 -0.3604 -0.0791
 8327TIP3    H146396   4.606   0.937  14.412  0.1268  0.7869 -0.0145
 8327TIP3    H246397   4.711   0.905  14.308  0.7934  1.6984  0.3695
 8328TIP3   OH246398   2.211   2.786  12.818  0.3969 -0.2448  0.4928
 8328TIP3    H146399   2.178   2.804  12.730  1.7912  0.0182  0.0075
 8328TIP3    H246400   2.243   2.870  12.850  1.7783 -0.7207  0.4286
 8329TIP3   OH246401   5.821   3.493  14.288  0.0236  0.0255 -0.3542
 8329TIP3    H146402   5.769   3.563  14.327 -0.2065 -0.3227 -0.0285
 8329TIP3    H246403   5.859   3.447  14.363  0.7998  0.2743 -0.5894
 8330TIP3   OH246404   3.389   1.409  14.704  0.6253  0.0126 -0.1249
 8330TIP3    H146405   3.443   1.485  14.726  0.1743  0.6961 -1.3284
 8330TIP3    H246406   3.446   1.354  14.649  0.1347  0.7448 -1.4138
 8331TIP3   OH246407   0.090   4.216   3.756 -0.6864  1.0254  0.2546
 8331TIP3    H146408   0.031   4.141   3.759  1.5664 -1.0140 -1.8438
 8331TIP3    H246409   0.140   4.211   3.837 -0.0439 -0.2657 -0.1971
 8332TIP3   OH246410   2.870   1.924   2.700  0.1319  0.4320  0.1709
 8332TIP3    H146411   2.946   1.923   2.759  0.0322  1.6056  0.3568
 8332TIP3    H246412   2.796   1.901   2.756 -0.2240  3.1529  0.9870
 8333TIP3   OH246413   4.999   6.089  11.236  0.1628  0.1843  0.1350
 8333TIP3    H146414   4.989   6.071  11.329 -1.9162 -1.4982 -0.3505
 8333TIP3    H246415   4.947   6.168  11.221 -0.4892 -0.2393  0.1792
 8334TIP3   OH246416   6.400   0.692  13.367 -0.3056 -0.1554  0.2487
 8334TIP3    H146417   6.409   0.632  13.293  2.9927 -1.0967  1.2045
 8334TIP3    H246418   6.355   0.641  13.434 -0.4225 -0.4228 -0.0306
 8335TIP3   OH246419   6.634   6.414   1.933 -0.2004  0.1680 -0.0849
 8335TIP3    H146420   6.721   6.444   1.907  0.1888 -1.6558 -1.0912
 8335TIP3    H246421   6.642   6.396   2.027  1.1768 -1.9303 -0.5439
 8336TIP3   OH246422   4.819   4.619  13.335  0.3265 -0.1870  0.0711
 8336TIP3    H146423   4.880   4.623  13.409 -0.2331 -1.6327  0.6404
 8336TIP3    H246424   4.816   4.708  13.302  0.5023  0.5233  1.8635
 8337TIP3   OH246425   4.173   2.160   5.603  0.6162 -0.4310  0.3484
 8337TIP3    H146426   4.110   2.216   5.557 -1.3277 -0.0905  3.2120
 8337TIP3    H246427   4.241   2.220   5.633  1.3406 -0.4987 -1.0627
 8338TIP3   OH246428   5.321   0.806   5.026 -0.0598 -0.1217 -0.1712
 8338TIP3    H146429   5.332   0.870   5.096 -0.4634  0.0367 -0.2459
 8338TIP3    H246430   5.226   0.798   5.017 -0.0134 -0.7895 -0.1068
 8339TIP3   OH246431   5.958   0.304   1.957 -0.3249 -0.0977 -0.1475
 8339TIP3    H146432   6.035   0.333   1.907 -1.1651  1.2454 -0.6950
 8339TIP3    H246433   5.893   0.373   1.945 -1.6833 -1.2627  0.2013
 8340TIP3   OH246434   1.614   1.266   4.889  0.0348 -0.6113 -0.1515
 8340TIP3    H146435   1.619   1.206   4.963  1.4958  1.2453  1.3485
 8340TIP3    H246436   1.706   1.287   4.869 -0.4175  0.7901 -0.9024
 8341TIP3   OH246437   5.132   1.114  16.761 -0.3004  0.2226 -0.3978
 8341TIP3    H146438   5.090   1.045  16.710  1.0924 -0.4010 -0.7380
 8341TIP3    H246439   5.222   1.083  16.775 -0.5443  0.4179  2.2909
 8342TIP3   OH246440   4.893   5.303  13.854  0.1001 -0.3911  0.1632
 8342TIP3    H146441   4.863   5.267  13.770 -0.3193  1.3343 -0.4728
 8342TIP3    H246442   4.818   5.292  13.912 -0.8872  1.3811 -0.6594
 8343TIP3   OH246443   5.798   5.931  13.022  0.1835 -1.2537 -0.1287
 8343TIP3    H146444   5.763   5.842  13.013  1.1268 -1.5383 -1.2642
 8343TIP3    H246445   5.892   5.921  13.006  0.4700 -0.2032  0.8186
 8344TIP3   OH246446   4.050   1.732  14.912  0.1047 -0.1008 -0.4480
 8344TIP3    H146447   4.078   1.647  14.946  0.3728 -0.8226 -2.3416
 8344TIP3    H246448   4.123   1.763  14.859 -0.8043  0.2933 -1.5133
 8345TIP3   OH246449   4.706   0.916   4.274 -0.2831  0.5890 -0.4499
 8345TIP3    H146450   4.728   0.998   4.318 -1.2190  1.2066 -1.0853
 8345TIP3    H246451   4.612   0.907   4.286  0.1909 -2.0170  2.2586
 8346TIP3   OH246452   2.678   3.957   4.146  0.2994  0.8895  0.0219
 8346TIP3    H146453   2.600   3.909   4.119 -0.3070  0.8667  1.7295
 8346TIP3    H246454   2.669   4.043   4.106 -0.0699  0.5608 -0.6267
 8347TIP3   OH246455   0.929   0.115   2.308 -0.0247  0.4055 -0.3573
 8347TIP3    H146456   0.878   0.083   2.382 -0.4830  0.3801 -0.6773
 8347TIP3    H246457   0.987   0.043   2.285  0.0518  0.3800 -0.0818
 8348TIP3   OH246458   4.642   2.242  12.470 -0.2877 -0.2734  0.5342
 8348TIP3    H146459   4.566   2.185  12.481 -0.7140  0.3312  0.7996
 8348TIP3    H246460   4.701   2.194  12.412 -0.1762 -1.4309  1.5582
 8349TIP3   OH246461   1.529   0.887   5.196  0.2935 -0.7231  0.8327
 8349TIP3    H146462   1.544   0.792   5.198  0.0857 -0.7541  1.0981
 8349TIP3    H246463   1.539   0.914   5.288  2.3129 -0.1604  0.4921
 8350TIP3   OH246464   1.275   0.297   5.780  0.0868 -0.0818 -0.3683
 8350TIP3    H146465   1.315   0.334   5.858  1.3373 -1.1772 -0.4692
 8350TIP3    H246466   1.214   0.365   5.750 -1.3760 -0.1149  2.2203
 8351TIP3   OH246467   6.751   1.119  16.195 -0.3191  0.0733 -0.2678
 8351TIP3    H146468   6.726   1.063  16.269 -0.2077 -1.1850 -1.1491
 8351TIP3    H246469   6.792   1.196  16.235 -3.2362  1.0272  1.1234
 8352TIP3   OH246470   3.745   0.814   1.207  0.2407 -0.1074 -0.2637
 8352TIP3    H146471   3.697   0.738   1.240 -0.3151  0.9076  1.4061
 8352TIP3    H246472   3.835   0.783   1.195  0.5443 -0.5686  2.5009
 8353TIP3   OH246473   5.105   6.048  14.779  0.0656 -0.1028 -0.5875
 8353TIP3    H146474   5.132   5.962  14.748  1.8013  0.6765 -1.3612
 8353TIP3    H246475   5.009   6.046  14.775  0.0265 -2.2090  0.0849
 8354TIP3   OH246476   5.027   2.980   2.830  0.1400  0.1031  0.1952
 8354TIP3    H146477   4.990   3.067   2.814  0.0061  0.5024  2.2950
 8354TIP3    H246478   5.116   2.984   2.796  0.2867  1.2390  0.6631
 8355TIP3   OH246479   3.631   0.550   2.402  0.3777  0.0024  0.4702
 8355TIP3    H146480   3.539   0.557   2.375  0.0517  0.2417  1.6186
 8355TIP3    H246481   3.645   0.457   2.420  0.7045 -0.2233 -0.8319
 8356TIP3   OH246482   0.867   4.615  15.388 -0.0566 -0.1882  0.8073
 8356TIP3    H146483   0.785   4.630  15.341  0.0914 -0.3611  0.4877
 8356TIP3    H246484   0.867   4.521  15.405 -0.3046 -0.0649  1.5282
 8357TIP3   OH246485   6.040   2.296  12.195  0.6594 -0.3878 -0.2917
 8357TIP3    H146486   6.068   2.233  12.261  1.0083  0.1018  0.0392
 8357TIP3    H246487   5.979   2.354  12.241  1.2858  0.2606 -0.2432
 8358TIP3   OH246488   4.138   0.138   0.539  0.3088  0.5369  0.3807
 8358TIP3    H146489   4.193   0.142   0.462  0.9883 -0.7401  0.7613
 8358TIP3    H246490   4.111   0.046   0.545 -0.4107  0.7780  1.1950
 8359TIP3   OH246491   2.786   2.131  16.208  0.4503  0.2171  0.3206
 8359TIP3    H146492   2.751   2.043  16.217  0.9860  0.0958  1.2989
 8359TIP3    H246493   2.881   2.120  16.210  0.5441  0.7160 -0.6267
 8360TIP3   OH246494   3.298   1.364  15.581 -0.4669  0.2940  0.0966
 8360TIP3    H146495   3.281   1.271  15.568  0.1161  0.5145 -2.9909
 8360TIP3    H246496   3.212   1.406  15.575 -0.7989 -0.0297  2.0185
 8361TIP3   OH246497   2.342   5.535   0.922 -0.4970  0.5949  0.9426
 8361TIP3    H146498   2.283   5.459   0.927 -0.0310  0.1194 -0.3539
 8361TIP3    H246499   2.427   5.501   0.950 -1.0443  1.6197  4.2316
 8362TIP3   OH246500   4.779   0.489   3.368  0.1148 -0.1226  0.5112
 8362TIP3    H146501   4.847   0.437   3.327  0.3745  0.6007  0.0165
 8362TIP3    H246502   4.819   0.523   3.447 -0.2681 -1.2052  1.2073
 8363TIP3   OH246503   6.549   5.381  13.535  0.0298 -0.2195  0.1520
 8363TIP3    H146504   6.512   5.293  13.525  2.6147 -1.2733 -1.2720
 8363TIP3    H246505   6.588   5.381  13.622  1.3633 -1.0925 -0.4193
 8364TIP3   OH246506   2.425   4.132  16.660 -0.2580 -0.0834  0.2245
 8364TIP3    H146507   2.350   4.096  16.612  0.8573 -2.4525  0.1104
 8364TIP3    H246508   2.427   4.082  16.741  1.1559 -0.0290  0.2450
 8365TIP3   OH246509   4.083   5.385  14.277 -0.0443 -0.1195  0.6581
 8365TIP3    H146510   4.121   5.423  14.356  1.1300 -1.0625  0.5721
 8365TIP3    H246511   4.097   5.291  14.286  0.2254 -0.2418 -0.7390
 8366TIP3   OH246512   6.313   4.200  16.157 -0.4153 -0.2831 -0.7340
 8366TIP3    H146513   6.276   4.256  16.225  1.3478 -2.3237  2.1514
 8366TIP3    H246514   6.239   4.150  16.123 -1.4886  1.4995 -1.1375
 8367TIP3   OH246515   1.411   3.743  12.367  0.1932 -0.1969 -0.3557
 8367TIP3    H146516   1.419   3.649  12.353  1.1081 -0.3966  1.3263
 8367TIP3    H246517   1.441   3.757  12.457  0.5907  1.7733 -0.7556
 8368TIP3   OH246518   4.561   3.934  11.220 -0.0096 -0.0907 -0.0098
 8368TIP3    H146519   4.579   3.907  11.310 -1.5498 -0.6718  0.1668
 8368TIP3    H246520   4.485   3.881  11.194 -0.3682  0.9639 -1.2175
 8369TIP3   OH246521   5.156   1.464  15.870  0.0892 -0.0365  0.5332
 8369TIP3    H146522   5.211   1.512  15.809 -1.4687  0.9747 -0.1255
 8369TIP3    H246523   5.083   1.432  15.817  0.9718 -3.1293  0.9448
 8370TIP3   OH246524   0.753   6.500   1.892  0.0751 -0.2143 -0.2208
 8370TIP3    H146525   0.848   6.492   1.903  0.1287 -1.3042 -1.2556
 8370TIP3    H246526   0.740   6.590   1.863  0.9706 -0.4718 -1.5045
 8371TIP3   OH246527   5.470   0.936  14.638  0.4536  0.6701  0.0263
 8371TIP3    H146528   5.532   0.873  14.602  0.4541  1.2839 -1.1066
 8371TIP3    H246529   5.387   0.913  14.598  0.4047  1.2234 -0.1942
 8372TIP3   OH246530   5.020   5.443   3.298  0.3769  0.2983  0.3913
 8372TIP3    H146531   4.929   5.453   3.269  1.4251  2.7129 -2.6103
 8372TIP3    H246532   5.054   5.372   3.243  0.9053  1.0781 -0.3123
 8373TIP3   OH246533   6.387   0.215   4.670 -0.0477  0.2476  0.5168
 8373TIP3    H146534   6.299   0.252   4.663  0.0873  0.5797  0.5832
 8373TIP3    H246535   6.443   0.279   4.626 -0.0175 -0.6371 -0.7894
 8374TIP3   OH246536   6.289   1.713  15.892 -0.2809  0.3926 -0.1448
 8374TIP3    H146537   6.354   1.771  15.933 -1.5527  1.7504  0.0302
 8374TIP3    H246538   6.236   1.682  15.965 -1.4257  1.3720 -0.5264
 8375TIP3   OH246539   4.511   0.560  12.436 -1.0779  0.0804  0.4712
 8375TIP3    H146540   4.515   0.467  12.459  0.2965  0.0417  0.1748
 8375TIP3    H246541   4.418   0.580  12.428 -1.3660 -1.7639 -1.4610
 8376TIP3   OH246542   6.048   1.630   4.961  0.2330  0.4352 -0.7985
 8376TIP3    H146543   5.986   1.694   4.995  0.0787  0.8215 -1.7770
 8376TIP3    H246544   6.066   1.572   5.035 -0.3114  1.0759 -0.1529
 8377TIP3   OH246545   6.165   4.659  14.297  0.0640  0.0712 -0.2704
 8377TIP3    H146546   6.122   4.727  14.349  1.0368  1.6297 -1.3822
 8377TIP3    H246547   6.104   4.641  14.226  0.5103  1.0611 -0.9221
 8378TIP3   OH246548   1.128   5.473   5.805  0.7678 -0.3497  0.3605
 8378TIP3    H146549   1.184   5.512   5.738  1.0087 -0.7048  0.3535
 8378TIP3    H246550   1.111   5.384   5.773  0.2196 -0.2514  0.3736
 8379TIP3   OH246551   2.059   1.671   2.558  0.5043  0.2446 -0.5498
 8379TIP3    H146552   2.017   1.601   2.607  0.2219 -1.1410 -2.6345
 8379TIP3    H246553   2.120   1.711   2.620 -1.5967  0.2651  1.6215
 8380TIP3   OH246554   0.629   3.247  12.492  0.9120 -0.0999 -0.1592
 8380TIP3    H146555   0.712   3.255  12.538  0.5790 -1.3999  0.7067
 8380TIP3    H246556   0.622   3.328  12.441  1.0096  1.7763  2.5442
 8381TIP3   OH246557   4.884   5.192  16.595 -0.1192  0.3282 -0.1767
 8381TIP3    H146558   4.892   5.102  16.628  0.3800  0.8779  1.3087
 8381TIP3    H246559   4.809   5.228  16.642  1.7983  1.7556  2.0409
 8382TIP3   OH246560   3.790   2.062  12.122 -0.6244 -0.3753 -0.4531
 8382TIP3    H146561   3.803   2.157  12.118  0.4582 -0.5546 -1.6526
 8382TIP3    H246562   3.871   2.028  12.160 -1.3372 -0.7748  0.7639
 8383TIP3   OH246563   5.047   1.648  15.166 -0.2401  0.5920  0.0918
 8383TIP3    H146564   5.096   1.636  15.084 -0.5214 -1.4463  0.1709
 8383TIP3    H246565   5.108   1.618  15.234 -0.6088  0.6778  0.4584
 8384TIP3   OH246566   6.296   4.065   4.670 -0.0229  0.1174 -0.4891
 8384TIP3    H146567   6.350   4.082   4.747  1.3870 -0.7236 -1.2596
 8384TIP3    H246568   6.224   4.128   4.678  0.5833  0.6769  1.0239
 8385TIP3   OH246569   1.799   2.632   1.094 -0.4322 -0.0719 -0.0624
 8385TIP3    H146570   1.710   2.642   1.128 -0.6076 -1.8465  0.1027
 8385TIP3    H246571   1.787   2.579   1.014  0.3254  1.0756 -0.9648
 8386TIP3   OH246572   3.767   5.694   4.871  0.2494 -0.0935 -0.1128
 8386TIP3    H146573   3.862   5.701   4.881  0.3139 -0.0158 -0.7533
 8386TIP3    H246574   3.754   5.642   4.793 -0.2451 -0.4606  0.2069
 8387TIP3   OH246575   0.763   0.254  14.374 -0.4942 -0.1223  0.7262
 8387TIP3    H146576   0.732   0.238  14.463  2.2358 -0.3434  1.7316
 8387TIP3    H246577   0.858   0.256  14.382 -0.0692 -1.7540 -2.4695
 8388TIP3   OH246578   4.950   6.545  15.020  0.3896  0.2349  0.0264
 8388TIP3    H146579   4.985   6.498  15.096  1.0545 -0.1208 -0.4915
 8388TIP3    H246580   4.959   6.484  14.947  1.0495  1.0558 -0.6086
 8389TIP3   OH246581   6.230   5.524  10.906 -0.2072  0.1391  0.4547
 8389TIP3    H146582   6.138   5.549  10.899 -0.1256  0.1983 -0.5146
 8389TIP3    H246583   6.276   5.590  10.854  0.2379 -0.6988 -0.2329
 8390TIP3   OH246584   5.577   4.038   0.513  0.3692 -0.3076  0.2099
 8390TIP3    H146585   5.510   4.043   0.581 -0.6643  0.5592 -0.8256
 8390TIP3    H246586   5.534   3.989   0.442  1.0480 -0.2819 -0.2231
 8391TIP3   OH246587   0.670   0.426   4.852  1.0584  0.2662  0.3696
 8391TIP3    H146588   0.712   0.506   4.886 -0.8698  1.9811 -1.0386
 8391TIP3    H246589   0.652   0.374   4.930  1.8811  1.4362  1.3846
 8392TIP3   OH246590   3.114   1.020   1.944  0.0637  0.5552  0.0967
 8392TIP3    H146591   3.196   1.066   1.924 -0.7645  1.5222 -1.2467
 8392TIP3    H246592   3.140   0.929   1.955  1.6133  1.1195  1.7504
 8393TIP3   OH246593   5.737   3.017  13.158 -0.1520 -0.0144 -0.0817
 8393TIP3    H146594   5.805   3.083  13.147 -0.2350  0.3299  1.2704
 8393TIP3    H246595   5.763   2.969  13.237 -0.6091 -0.9645 -0.4943
 8394TIP3   OH246596   4.852   5.803  13.741 -0.1366  0.3434  0.1970
 8394TIP3    H146597   4.876   5.717  13.707 -2.0346 -0.4972  0.8209
 8394TIP3    H246598   4.822   5.852  13.665 -0.9215 -0.2527  0.1139
 8395TIP3   OH246599   1.372   5.067  14.073  0.0834 -0.1135  0.9183
 8395TIP3    H146600   1.383   5.125  13.998 -1.2113 -0.6986  0.2534
 8395TIP3    H246601   1.278   5.046  14.074  0.3846 -1.5490  1.6196
 8396TIP3   OH246602   5.877   0.870   2.088  0.0716 -0.0444 -0.1310
 8396TIP3    H146603   5.853   0.782   2.057 -1.2761  0.0430  0.5599
 8396TIP3    H246604   5.946   0.899   2.029 -0.3655 -1.0537 -1.1709
 8397TIP3   OH246605   4.357   2.415  12.442 -0.2146  0.2762  0.7292
 8397TIP3    H146606   4.277   2.453  12.481 -0.4655 -0.1403  0.6295
 8397TIP3    H246607   4.369   2.333  12.490  0.5627  0.6746  1.2316
 8398TIP3   OH246608   4.015   6.766   4.267  0.1235  0.7046 -0.3371
 8398TIP3    H146609   4.076   6.692   4.277  0.3299  0.8964 -0.1434
 8398TIP3    H246610   4.013   6.783   4.173 -0.8392 -0.3028 -0.5194
 8399TIP3   OH246611   2.237   0.499   1.071  0.1538  0.2982  0.5742
 8399TIP3    H146612   2.286   0.573   1.035  1.6377 -0.2432  1.4175
 8399TIP3    H246613   2.294   0.424   1.059 -0.0566 -0.2034  2.4215
 8400TIP3   OH246614   2.704   3.884  16.155  0.4262  0.9012 -0.1776
 8400TIP3    H146615   2.695   3.951  16.222  0.6910 -0.5258  1.3567
 8400TIP3    H246616   2.623   3.834  16.160  0.6328  0.5100 -0.6091
 8401TIP3   OH246617   0.387   3.490   5.390 -0.3187  0.0776 -0.2440
 8401TIP3    H146618   0.403   3.534   5.307 -1.4398 -0.2722 -0.6684
 8401TIP3    H246619   0.421   3.402   5.379 -1.1535 -0.2104 -0.6255
 8402TIP3   OH246620   3.446   0.302  14.153  0.0282 -0.0564  0.0994
 8402TIP3    H146621   3.450   0.232  14.088  1.3984 -0.9941  1.1319
 8402TIP3    H246622   3.516   0.362  14.128 -0.5313  0.4660 -0.2368
 8403TIP3   OH246623   0.010   2.461  15.642 -0.2229 -0.5761 -0.2331
 8403TIP3    H146624   0.097   2.499  15.635 -0.5207  0.1010 -0.3647
 8403TIP3    H246625   0.025   2.368  15.656  0.5351 -0.3712  0.3861
 8404TIP3   OH246626   6.013   1.069   5.972 -0.6927 -0.2305 -0.0679
 8404TIP3    H146627   5.987   1.112   6.054 -2.9034 -2.0824  0.2776
 8404TIP3    H246628   6.060   0.991   6.000  0.0551  0.0095 -0.6270
 8405TIP3   OH246629   5.600   5.745  15.128  0.1124 -0.1725 -0.0223
 8405TIP3    H146630   5.560   5.696  15.200  2.0373  1.2222  2.1562
 8405TIP3    H246631   5.694   5.739  15.145  0.6839 -0.2588 -2.8031
 8406TIP3   OH246632   0.684   2.300   5.051  0.3522  0.1540  0.5826
 8406TIP3    H146633   0.774   2.279   5.025  1.0396  1.7909  1.4954
 8406TIP3    H246634   0.679   2.395   5.044 -0.6665  0.2788  2.5146
 8407TIP3   OH246635   0.742   4.478  16.208 -0.6485 -0.1099 -0.1799
 8407TIP3    H146636   0.681   4.404  16.219 -0.6401 -0.0679  0.1567
 8407TIP3    H246637   0.685   4.554  16.197 -0.6558 -0.0095  0.5580
 8408TIP3   OH246638   0.309   0.604   4.942  0.0477 -0.0894  0.2065
 8408TIP3    H146639   0.402   0.600   4.960 -0.2593  2.3302  2.9805
 8408TIP3    H246640   0.300   0.674   4.877  0.1195  0.2264  0.5334
 8409TIP3   OH246641   4.279   0.582   3.833 -0.9804 -0.3668 -0.1111
 8409TIP3    H146642   4.255   0.650   3.770  0.6811 -0.9151 -1.4092
 8409TIP3    H246643   4.279   0.501   3.783  0.7495 -0.7704  0.4604
 8410TIP3   OH246644   2.639   3.851  12.970 -0.1416 -0.1039 -0.2059
 8410TIP3    H146645   2.560   3.892  12.936 -0.5870  0.0674  0.9618
 8410TIP3    H246646   2.676   3.915  13.031  0.0623 -0.7607  0.3882
 8411TIP3   OH246647   5.663   0.190   1.690  0.1241  0.4678  0.2800
 8411TIP3    H146648   5.576   0.151   1.686  0.3033  0.1696 -1.2741
 8411TIP3    H246649   5.660   0.247   1.766 -1.4735  0.5302  0.1987
 8412TIP3   OH246650   5.319   6.465  15.998 -0.5293 -0.1899  0.2776
 8412TIP3    H146651   5.318   6.378  15.959 -0.1123  0.0715 -0.3213
 8412TIP3    H246652   5.377   6.516  15.942  0.1148  0.1855  1.2500
 8413TIP3   OH246653   0.923   0.757  11.524  0.1425  0.3129  0.3695
 8413TIP3    H146654   0.963   0.840  11.499 -0.1926  0.0635 -1.1120
 8413TIP3    H246655   0.996   0.705  11.558  0.7624  0.4953 -0.6344
 8414TIP3   OH246656   3.554   0.009  13.181 -0.1136 -0.2536  0.2149
 8414TIP3    H146657   3.487   0.075  13.199  0.1037  0.3478 -1.0418
 8414TIP3    H246658   3.514  -0.074  13.207 -0.9751  0.2094  0.3946
 8415TIP3   OH246659   0.743   2.314   4.309  0.3828  0.7033 -0.5439
 8415TIP3    H146660   0.661   2.279   4.273  0.6996 -0.9687  0.2644
 8415TIP3    H246661   0.800   2.238   4.318  1.4328  1.5714  0.4977
 8416TIP3   OH246662   5.188   6.552  14.497 -0.1825 -0.5829  0.3655
 8416TIP3    H146663   5.189   6.638  14.456 -0.1611  0.6955  2.8932
 8416TIP3    H246664   5.103   6.546  14.540  0.0353 -1.6006  0.7013
 8417TIP3   OH246665   5.261   4.771   5.554  0.2301 -0.0805  0.5646
 8417TIP3    H146666   5.298   4.683   5.552  0.7490  0.1342 -1.1165
 8417TIP3    H246667   5.166   4.758   5.554  0.2450 -0.7107 -1.9808
 8418TIP3   OH246668   1.414   5.698  15.586 -0.1500  0.4530 -0.4720
 8418TIP3    H146669   1.451   5.732  15.505  0.7273  0.5169 -0.0559
 8418TIP3    H246670   1.488   5.654  15.629 -0.8216 -0.3711 -0.1368
 8419TIP3   OH246671   3.541   1.220   7.072 -0.0866 -0.4309  0.1907
 8419TIP3    H146672   3.475   1.206   7.003 -1.9745 -2.4602  2.2514
 8419TIP3    H246673   3.619   1.176   7.039 -0.6574 -0.5679 -1.0546
 8420TIP3   OH246674   0.786   2.100   2.547 -0.3649  0.0179  1.0378
 8420TIP3    H146675   0.803   2.032   2.482  1.3792  1.2538  0.0919
 8420TIP3    H246676   0.697   2.129   2.528  0.3770  0.9621 -1.5081
 8421TIP3   OH246677   3.407   3.285   2.500  0.1558 -0.2063 -0.7119
 8421TIP3    H146678   3.448   3.215   2.552  0.5711  0.1070 -0.6154
 8421TIP3    H246679   3.461   3.290   2.421 -0.3277 -0.5106 -1.0626
 8422TIP3   OH246680   5.513   1.410   1.109 -0.3330 -0.4772  0.1640
 8422TIP3    H146681   5.576   1.366   1.051  1.7219  1.2581  0.9483
 8422TIP3    H246682   5.518   1.360   1.191 -0.0958 -0.4547  0.1656
 8423TIP3   OH246683   4.011   2.533  11.248  0.2701 -0.3237  0.3923
 8423TIP3    H146684   4.098   2.555  11.280 -0.4820  3.2778  0.2922
 8423TIP3    H246685   4.011   2.561  11.157 -1.2887  0.6907  0.6805
 8424TIP3   OH246686   2.280   2.701   5.257  0.3814 -0.1214 -0.3419
 8424TIP3    H146687   2.359   2.650   5.238  0.1723  0.1716 -2.0967
 8424TIP3    H246688   2.239   2.714   5.172 -0.8844  0.8567  0.3958
 8425TIP3   OH246689   3.138   5.429  12.042 -0.0026  0.2825  0.3283
 8425TIP3    H146690   3.216   5.379  12.015  0.0538  0.8631 -0.6371
 8425TIP3    H246691   3.067   5.387  11.993 -0.3687 -0.4751  1.4811
 8426TIP3   OH246692   5.532   0.622   4.974  0.1194  0.1167  0.3045
 8426TIP3    H146693   5.467   0.691   4.983 -0.5714 -0.7387  2.5537
 8426TIP3    H246694   5.493   0.547   5.019  2.4575 -0.5739  1.3013
 8427TIP3   OH246695   6.140   6.658  14.662 -0.5112  0.0596  0.1678
 8427TIP3    H146696   6.164   6.598  14.591 -1.3731  1.4504 -1.3807
 8427TIP3    H246697   6.046   6.643  14.674 -0.4449  0.1036  0.7746
 8428TIP3   OH246698   5.724   0.401  16.026 -0.5415  0.4934 -0.4721
 8428TIP3    H146699   5.732   0.332  16.092 -0.5590  1.6141  0.7330
 8428TIP3    H246700   5.813   0.416  15.995 -0.2793  1.1334  0.5464
 8429TIP3   OH246701   3.504   0.696   1.530 -0.4404  0.1583 -0.1666
 8429TIP3    H146702   3.575   0.637   1.503 -0.2248 -0.2627  1.2387
 8429TIP3    H246703   3.440   0.639   1.572 -0.8825  0.7487 -0.0295
 8430TIP3   OH246704   1.192   6.782   5.814  0.1294  0.1720  0.3251
 8430TIP3    H146705   1.160   6.871   5.798  0.4534  0.1431 -0.5635
 8430TIP3    H246706   1.256   6.791   5.884 -0.4655  0.5089  0.8271
 8431TIP3   OH246707   0.637   5.754  16.314  0.4434 -0.3124  0.3179
 8431TIP3    H146708   0.693   5.824  16.281 -1.2865  0.2694 -1.5618
 8431TIP3    H246709   0.575   5.798  16.372  0.2405 -0.5220  0.2615
 8432TIP3   OH246710   4.542   1.741   4.444 -0.7503  0.0250 -0.2421
 8432TIP3    H146711   4.602   1.723   4.371 -0.0249 -2.1281  0.8048
 8432TIP3    H246712   4.551   1.665   4.501 -0.5333  2.0819  2.6425
 8433TIP3   OH246713   0.840   1.769   3.798  0.1612  0.7738  0.3671
 8433TIP3    H146714   0.880   1.735   3.878  1.5898  1.0494 -0.1959
 8433TIP3    H246715   0.755   1.803   3.826  0.6920  0.9850  1.7943
 8434TIP3   OH246716   6.260   4.661   5.225  0.0221 -0.0134 -0.0691
 8434TIP3    H146717   6.278   4.593   5.291  0.1762  0.7759  0.7241
 8434TIP3    H246718   6.173   4.694   5.248 -1.5134 -2.1012 -2.3871
 8435TIP3   OH246719   2.794   5.157   0.633 -0.0299 -0.5983 -0.2843
 8435TIP3    H146720   2.871   5.213   0.635  0.5629 -1.3716  2.2052
 8435TIP3    H246721   2.724   5.212   0.598  0.7883  1.3703  1.0219
 8436TIP3   OH246722   2.229   2.042   0.785 -0.2235  0.1786  0.0654
 8436TIP3    H146723   2.205   2.127   0.747 -0.0188 -0.5976 -1.9186
 8436TIP3    H246724   2.173   1.979   0.741 -0.0580 -0.7883  1.1854
 8437TIP3   OH246725   4.061   2.488  14.037  0.1091  0.3963 -0.3532
 8437TIP3    H146726   4.079   2.504  14.130  0.2475 -0.8932 -0.1425
 8437TIP3    H246727   4.146   2.469  13.999  0.0621  0.9853 -0.7768
 8438TIP3   OH246728   1.672   1.678  14.303 -0.3866 -0.0723 -0.0421
 8438TIP3    H146729   1.659   1.773  14.306 -0.3670 -0.0978  1.5020
 8438TIP3    H246730   1.584   1.641  14.309 -0.4586 -0.1711 -1.3907
 8439TIP3   OH246731   2.436   6.662   4.342 -0.1910 -0.0496  0.4761
 8439TIP3    H146732   2.503   6.617   4.291  0.3302 -0.1507  1.2327
 8439TIP3    H246733   2.440   6.622   4.429 -1.1292  0.0500  0.5806
 8440TIP3   OH246734   2.522   6.414  16.475  0.9528  0.5382 -0.0207
 8440TIP3    H146735   2.598   6.376  16.432  0.2182 -0.9002 -0.1277
 8440TIP3    H246736   2.470   6.451  16.404  0.9636  0.4254 -0.0878
 8441TIP3   OH246737   5.922   1.426  13.112  1.1531  0.2436  0.4240
 8441TIP3    H146738   5.959   1.379  13.038  0.3051  0.1200  0.0696
 8441TIP3    H246739   5.853   1.369  13.147  1.4042  0.3861  1.1822
 8442TIP3   OH246740   4.348   1.648   5.213  0.1552 -0.0480 -0.1415
 8442TIP3    H146741   4.377   1.720   5.269  0.3816  0.0629 -0.4024
 8442TIP3    H246742   4.359   1.680   5.124  0.4335 -0.4749 -0.2636
 8443TIP3   OH246743   2.022   4.641   1.935  0.4189  0.1068 -0.5807
 8443TIP3    H146744   2.011   4.654   2.029 -0.8622 -2.3890 -0.3105
 8443TIP3    H246745   2.050   4.550   1.926  1.2895  0.5092 -2.5995
 8444TIP3   OH246746   2.637   4.322   4.578 -0.3425  0.1581 -0.3534
 8444TIP3    H146747   2.546   4.339   4.553 -0.0172  1.3561 -0.7831
 8444TIP3    H246748   2.673   4.408   4.597  1.6412  0.1630 -3.4860
 8445TIP3   OH246749   1.681   4.834  12.836  0.5900  0.2328 -0.1074
 8445TIP3    H146750   1.704   4.778  12.909  2.5454  0.9775 -0.0941
 8445TIP3    H246751   1.632   4.907  12.875  0.8076  0.1449  0.3261
 8446TIP3   OH246752   6.334   0.353  11.742  0.9685 -0.4413  0.6510
 8446TIP3    H146753   6.325   0.274  11.795 -0.4092 -1.1731 -0.5861
 8446TIP3    H246754   6.365   0.420  11.803  1.9911 -1.8670  1.7716
 8447TIP3   OH246755   3.525   2.619  11.990 -0.0673 -0.1175  0.5841
 8447TIP3    H146756   3.569   2.700  11.968 -0.0340 -0.0536  0.8849
 8447TIP3    H246757   3.571   2.552  11.939 -0.1527  0.0633  0.2683
 8448TIP3   OH246758   4.283   3.801  12.370  0.5699  0.1143 -0.4785
 8448TIP3    H146759   4.229   3.744  12.315  1.2503 -0.3836 -0.6484
 8448TIP3    H246760   4.323   3.863  12.309 -0.3910  0.9732 -0.2588
 8449TIP3   OH246761   4.777   5.604   5.382 -0.4323  0.2457 -0.0328
 8449TIP3    H146762   4.813   5.679   5.429 -2.4853  2.0038 -1.1054
 8449TIP3    H246763   4.728   5.555   5.448 -1.4259  1.4477  0.1499
 8450TIP3   OH246764   1.122   5.939   5.934 -0.2020  0.2565  0.2563
 8450TIP3    H146765   1.181   5.992   5.988  1.1024 -1.6999  0.8577
 8450TIP3    H246766   1.037   5.947   5.976  0.4274  0.1789  1.5969
 8451TIP3   OH246767   5.816   6.410   0.613 -0.3632 -0.0513 -0.1545
 8451TIP3    H146768   5.784   6.433   0.700 -0.2791  0.1954 -0.1865
 8451TIP3    H246769   5.818   6.315   0.612 -0.3666 -0.0537  0.1134
 8452TIP3   OH246770   5.893   2.433  14.804 -0.3198 -0.2188 -0.1381
 8452TIP3    H146771   5.986   2.454  14.807  0.4245 -2.0371 -3.9215
 8452TIP3    H246772   5.850   2.512  14.836  2.4582  0.6551  1.8205
 8453TIP3   OH246773   5.797   3.636   4.960  0.0238 -0.2767 -0.5530
 8453TIP3    H146774   5.813   3.672   4.872 -2.1446  0.3951 -0.7339
 8453TIP3    H246775   5.873   3.665   5.011  1.1893 -0.4289 -2.1145
 8454TIP3   OH246776   5.509   3.686  10.896 -0.2806 -0.2812  0.0855
 8454TIP3    H146777   5.453   3.742  10.843  1.5326  2.7906  1.1149
 8454TIP3    H246778   5.598   3.705  10.865  0.5344 -1.3771  1.5878
 8455TIP3   OH246779   1.613   1.791  15.533 -0.4062  0.2088  0.2974
 8455TIP3    H146780   1.527   1.761  15.562  0.4448 -0.1873  2.6050
 8455TIP3    H246781   1.653   1.827  15.612  2.0228 -0.7524 -0.4210
 8456TIP3   OH246782   4.702   0.462  15.581 -0.1704 -0.0503 -0.4947
 8456TIP3    H146783   4.720   0.377  15.541 -1.9255 -0.1869 -1.0769
 8456TIP3    H246784   4.711   0.525  15.509  0.7572  0.2325 -0.1475
 8457TIP3   OH246785   1.609   4.699   4.126 -0.0696  0.9187 -0.0916
 8457TIP3    H146786   1.626   4.607   4.105  1.4793  1.5405 -1.8850
 8457TIP3    H246787   1.652   4.712   4.211  1.3045  0.3776 -0.6681
 8458TIP3   OH246788   0.523   2.488   4.684 -0.3134 -0.0499 -0.4251
 8458TIP3    H146789   0.547   2.560   4.743 -1.5286  0.7608 -0.8794
 8458TIP3    H246790   0.477   2.531   4.612 -1.2227 -1.3134 -0.6204
 8459TIP3   OH246791   3.112   3.329  15.225  0.0389 -0.8170 -0.7066
 8459TIP3    H146792   3.104   3.236  15.205 -1.5476 -1.2656  1.6297
 8459TIP3    H246793   3.126   3.371  15.140 -1.2850 -2.9700 -2.0719
 8460TIP3   OH246794   0.071   1.103  13.403 -0.1947  0.4298 -0.0182
 8460TIP3    H146795   0.031   1.016  13.397  0.3572  0.2468 -2.0643
 8460TIP3    H246796   0.006   1.161  13.363 -0.3918  0.9206  0.9824
 8461TIP3   OH246797   3.264   2.274   3.858  0.2823  0.6333 -0.1752
 8461TIP3    H146798   3.248   2.277   3.953 -1.0151 -0.5172 -0.3248
 8461TIP3    H246799   3.178   2.280   3.819 -0.0240 -4.5332 -1.0738
 8462TIP3   OH246800   3.332   1.439   0.195  0.3318 -0.6311 -0.0176
 8462TIP3    H146801   3.327   1.476   0.106 -0.4557 -0.5642  0.0451
 8462TIP3    H246802   3.426   1.435   0.214  0.5271 -0.9761 -0.9932
 8463TIP3   OH246803   0.796   0.759   2.286 -0.1344  0.2592 -0.2628
 8463TIP3    H146804   0.770   0.724   2.201  0.2405  2.4006 -1.3186
 8463TIP3    H246805   0.721   0.810   2.316 -0.1397 -0.2049  0.5730
 8464TIP3   OH246806   3.338   2.338  12.001  0.9192  0.3574  0.1403
 8464TIP3    H146807   3.386   2.270  11.955 -1.3662 -0.1235 -1.7079
 8464TIP3    H246808   3.304   2.395  11.931 -3.7444 -1.0801  0.9158
 8465TIP3   OH246809   5.104   5.728  10.830  0.3313 -0.5242 -0.1282
 8465TIP3    H146810   5.104   5.823  10.826 -1.0760 -0.5036  0.0610
 8465TIP3    H246811   5.173   5.701  10.769 -0.1241  0.5805 -1.1512
 8466TIP3   OH246812   6.052   2.743   4.441  0.6807 -0.6325 -0.4216
 8466TIP3    H146813   6.103   2.747   4.521  0.4359 -0.5192 -0.2706
 8466TIP3    H246814   6.051   2.650   4.418  2.3186 -0.4640 -1.3183
 8467TIP3   OH246815   1.455   5.387  15.683  0.3428 -0.0775 -0.5345
 8467TIP3    H146816   1.489   5.387  15.594  0.9417 -1.9646 -0.3416
 8467TIP3    H246817   1.509   5.451  15.730  1.7547 -0.9625 -0.9189
 8468TIP3   OH246818   6.342   4.220  13.529  0.2038  0.2839  0.0765
 8468TIP3    H146819   6.413   4.209  13.466 -0.0308  0.5106 -0.2311
 8468TIP3    H246820   6.263   4.218  13.475  0.0791  2.6856  0.0604
 8469TIP3   OH246821   3.400   1.120  16.561  0.0870  0.5408 -0.3517
 8469TIP3    H146822   3.421   1.074  16.642 -1.6537  1.2172  0.5586
 8469TIP3    H246823   3.358   1.055  16.505  2.1417 -0.1641 -1.1361
 8470TIP3   OH246824   2.657   5.899   5.362 -0.2938 -0.7273  0.7994
 8470TIP3    H146825   2.694   5.985   5.342  0.1441 -0.8192  1.1895
 8470TIP3    H246826   2.696   5.841   5.297 -0.5230 -0.6456  0.5894
 8471TIP3   OH246827   1.404   3.577   3.442  0.0611 -0.2179 -0.2603
 8471TIP3    H146828   1.359   3.530   3.371 -1.6848  1.0836 -0.0891
 8471TIP3    H246829   1.427   3.661   3.404  3.1110 -1.0611 -0.5448
 8472TIP3   OH246830   6.514   6.252   1.759 -0.0799  0.2433  0.8819
 8472TIP3    H146831   6.582   6.204   1.711  0.5819  1.6142  0.3902
 8472TIP3    H246832   6.563   6.301   1.825 -0.6891  0.5557  1.1014
 8473TIP3   OH246833   3.622   1.368   5.797  0.1998 -0.1312  0.8840
 8473TIP3    H146834   3.538   1.350   5.754  1.0396  0.7810 -1.3114
 8473TIP3    H246835   3.607   1.447   5.848 -1.5395 -2.6113  4.7174
 8474TIP3   OH246836   0.195   2.335  14.197  0.3352 -0.0579 -0.3269
 8474TIP3    H146837   0.126   2.321  14.262  1.0980 -1.3797  0.2325
 8474TIP3    H246838   0.251   2.402  14.237  0.1868 -0.0554 -0.1216
 8475TIP3   OH246839   2.880   0.848  11.267 -0.0158  0.3327  0.1411
 8475TIP3    H146840   2.941   0.815  11.333 -1.6472 -0.1541  1.4501
 8475TIP3    H246841   2.930   0.843  11.185  1.2895 -1.2397  0.9665
 8476TIP3   OH246842   3.019   4.347   0.197 -0.1771 -0.3920 -0.0448
 8476TIP3    H146843   2.960   4.394   0.139 -1.0540  1.1298  1.9349
 8476TIP3    H246844   3.092   4.408   0.212  0.9451 -1.4660 -0.8837
 8477TIP3   OH246845   3.542   1.377  11.788 -0.1632 -0.1521 -0.4272
 8477TIP3    H146846   3.550   1.456  11.841 -1.6545 -0.7632  0.7702
 8477TIP3    H246847   3.448   1.362  11.782  0.1059 -2.6369  0.6095
 8478TIP3   OH246848   4.261   4.273   3.462 -0.9538  0.6197  0.3750
 8478TIP3    H146849   4.287   4.249   3.551  0.1723  0.0029 -0.1022
 8478TIP3    H246850   4.244   4.190   3.419  0.3203  0.7840 -0.5066
 8479TIP3   OH246851   5.674   1.584  16.988  0.4179 -0.9834 -0.3714
 8479TIP3    H146852   5.668   1.650  16.918 -0.0498 -0.6972 -0.0735
 8479TIP3    H246853   5.766   1.561  16.992  0.8875  0.8701  0.6180
 8480TIP3   OH246854   3.468   0.505  15.645 -0.6909  0.1169  0.1837
 8480TIP3    H146855   3.435   0.509  15.734  2.8989 -0.3568  1.6922
 8480TIP3    H246856   3.519   0.424  15.641  0.0680  0.6164 -2.0052
 8481TIP3   OH246857   6.151   5.037  11.959  0.2360  0.5183 -0.6245
 8481TIP3    H146858   6.117   5.100  11.896  0.2018  0.0974 -1.0346
 8481TIP3    H246859   6.209   4.981  11.908  0.4958  0.4000 -0.2055
 8482TIP3   OH246860   1.077   3.649  10.892  0.0488 -0.1066  0.4866
 8482TIP3    H146861   1.090   3.728  10.945 -0.5728  1.1503 -1.1284
 8482TIP3    H246862   0.983   3.646  10.877  0.2274 -0.3209 -0.6662
 8483TIP3   OH246863   4.235   1.170  13.380  0.0228 -0.4769  0.4209
 8483TIP3    H146864   4.256   1.224  13.304 -1.2976  0.3173  0.5899
 8483TIP3    H246865   4.306   1.187  13.442  0.3483 -0.0113 -0.0705
 8484TIP3   OH246866   1.561   0.380   2.439 -0.1932 -0.4514 -0.4004
 8484TIP3    H146867   1.524   0.404   2.523 -0.6856 -0.1827 -0.6876
 8484TIP3    H246868   1.573   0.285   2.444  1.7298 -0.1876  0.7316
 8485TIP3   OH246869   0.629   6.431  11.997  0.0107 -0.6307 -0.4640
 8485TIP3    H146870   0.627   6.444  12.092 -0.7387  0.5060 -0.6139
 8485TIP3    H246871   0.612   6.337  11.985  0.8880 -0.9350  0.5415
 8486TIP3   OH246872   4.452   5.399  16.930 -0.2196  0.6792 -0.3882
 8486TIP3    H146873   4.442   5.310  16.962  1.2445 -0.0370 -1.7966
 8486TIP3    H246874   4.493   5.446  17.003  0.4116 -0.1946 -0.1610
 8487TIP3   OH246875   3.332   1.848   6.167 -0.3754 -0.3039  0.3438
 8487TIP3    H146876   3.388   1.772   6.156  0.0823 -0.3602  2.5278
 8487TIP3    H246877   3.245   1.818   6.142 -0.4240 -1.9696  2.2548
 8488TIP3   OH246878   0.701   3.026   2.912  0.9020 -0.2259  0.3639
 8488TIP3    H146879   0.702   2.933   2.934 -0.1859 -0.3410 -0.0125
 8488TIP3    H246880   0.628   3.062   2.964 -0.3598 -0.1058 -1.3933
 8489TIP3   OH246881   1.101   2.134  10.538 -0.1770 -0.0837  0.0474
 8489TIP3    H146882   1.098   2.171  10.626 -1.1049 -1.3763  0.5839
 8489TIP3    H246883   1.025   2.076  10.533  0.9028 -1.4887 -0.9530
 8490TIP3   OH246884   6.180   6.073  15.471 -0.1536  0.9623 -0.6652
 8490TIP3    H146885   6.140   5.987  15.487  1.3719 -0.1369 -2.3977
 8490TIP3    H246886   6.198   6.107  15.558 -0.7172 -0.5256  0.0774
 8491TIP3   OH246887   3.736   4.417  12.443 -0.3504 -0.2422  0.2604
 8491TIP3    H146888   3.831   4.409  12.434 -0.2493  1.8523 -1.2246
 8491TIP3    H246889   3.702   4.398  12.356 -0.9805  2.3274 -0.1227
 8492TIP3   OH246890   3.213   5.687   5.333  0.1434  0.2143 -0.0439
 8492TIP3    H146891   3.169   5.638   5.263 -0.0099  1.4025 -0.8095
 8492TIP3    H246892   3.298   5.709   5.296 -0.0267  1.0441  0.0539
 8493TIP3   OH246893   0.483   3.059   1.459 -0.1496 -0.6062  0.2663
 8493TIP3    H146894   0.535   3.042   1.381  0.5172  0.1377  0.5272
 8493TIP3    H246895   0.394   3.072   1.426  0.2780  0.5943 -0.4964
 8494TIP3   OH246896   6.740   5.452   5.283 -0.6899  0.0758 -0.3242
 8494TIP3    H146897   6.743   5.539   5.322 -1.3002 -0.0289 -0.0201
 8494TIP3    H246898   6.681   5.402   5.340  0.4087 -0.8268  0.0690
 8495TIP3   OH246899   1.866   4.013  14.598  0.0987  0.0368 -0.1551
 8495TIP3    H146900   1.876   4.047  14.687  0.6815 -0.7722  0.0948
 8495TIP3    H246901   1.791   4.061  14.563  1.1233  1.8986  0.0280
 8496TIP3   OH246902   3.644   0.431   0.322 -0.5159  0.3182  0.7769
 8496TIP3    H146903   3.557   0.458   0.353 -0.2983  1.8820  0.1151
 8496TIP3    H246904   3.639   0.442   0.227 -0.7194 -3.0434  0.2864
 8497TIP3   OH246905   3.830   0.356   0.993 -0.4480 -0.1019 -0.4639
 8497TIP3    H146906   3.798   0.265   0.985 -0.9271  0.0839 -0.7368
 8497TIP3    H246907   3.761   0.408   0.953 -1.4011  0.6312  1.9699
 8498TIP3   OH246908   5.853   5.597  14.175  0.1562  0.0150 -0.7569
 8498TIP3    H146909   5.868   5.600  14.270 -0.8539  2.0212 -0.6176
 8498TIP3    H246910   5.770   5.643  14.162  0.9101  0.9310 -2.7380
 8499TIP3   OH246911   1.550   5.380   2.915 -0.1509  0.1576  0.3493
 8499TIP3    H146912   1.588   5.397   2.829 -0.7009 -0.8696 -0.1133
 8499TIP3    H246913   1.539   5.285   2.918  1.6062 -0.0524  2.2994
 8500TIP3   OH246914   5.092   4.002  12.314  0.2189 -0.5112 -0.2218
 8500TIP3    H146915   5.129   3.963  12.235 -0.6041  0.6949 -1.2413
 8500TIP3    H246916   5.120   4.094  12.310 -0.5689 -0.2331  0.4385
 8501TIP3   OH246917   3.257   1.816   4.580  0.0314  0.0042  0.1225
 8501TIP3    H146918   3.214   1.766   4.510 -2.8367  0.4497  1.4299
 8501TIP3    H246919   3.242   1.764   4.659 -1.2096  1.8399  1.1673
 8502TIP3   OH246920   2.765   5.519   1.811 -0.1020 -0.2436  0.9792
 8502TIP3    H146921   2.699   5.495   1.876 -0.8583 -1.4521 -0.1856
 8502TIP3    H246922   2.716   5.561   1.741  0.2858 -1.4957 -0.0729
 8503TIP3   OH246923   3.893   4.841   3.123 -0.2440  0.1653 -0.2833
 8503TIP3    H146924   3.989   4.839   3.133 -0.2571 -0.3017 -0.2256
 8503TIP3    H246925   3.878   4.823   3.030 -0.2523  0.9708 -0.4437
 8504TIP3   OH246926   0.150   4.097   1.418  0.3577 -0.0399 -0.1678
 8504TIP3    H146927   0.232   4.087   1.370 -0.8796  0.7840 -2.6051
 8504TIP3    H246928   0.084   4.057   1.362 -1.2891  1.6239  0.4703
 8505TIP3   OH246929   2.514   0.929  14.441 -0.5712 -0.4236  0.2261
 8505TIP3    H146930   2.438   0.904  14.388 -0.1737  1.3152 -1.2848
 8505TIP3    H246931   2.479   0.942  14.529 -1.8864 -0.3355 -0.2954
 8506TIP3   OH246932   3.421   2.589  12.916 -0.2931  0.0432  0.1805
 8506TIP3    H146933   3.464   2.526  12.858  2.6187 -0.3631  2.5598
 8506TIP3    H246934   3.437   2.674  12.874 -0.3211 -0.4093 -0.7754
 8507TIP3   OH246935   1.369   3.029  11.597 -0.6355  0.0004 -0.0995
 8507TIP3    H146936   1.431   2.967  11.557  0.0583 -0.5052  1.6611
 8507TIP3    H246937   1.423   3.101  11.628 -1.3510  1.1444 -1.4079
 8508TIP3   OH246938   3.234   5.128   3.411 -0.0381 -0.2818  0.0438
 8508TIP3    H146939   3.316   5.119   3.361 -1.3416 -0.9986 -2.0858
 8508TIP3    H246940   3.177   5.178   3.353 -1.2525 -0.1536  1.3272
 8509TIP3   OH246941   0.874   6.564  15.688 -0.5228 -0.5267 -0.2335
 8509TIP3    H146942   0.967   6.577  15.666 -0.6720  0.1006 -0.5074
 8509TIP3    H246943   0.840   6.509  15.618 -0.1912 -1.3752  0.2517
 8510TIP3   OH246944   5.331   6.213  12.870  0.0245  0.5525 -1.0647
 8510TIP3    H146945   5.411   6.254  12.904  0.2289 -1.5896  1.3225
 8510TIP3    H246946   5.264   6.279  12.884  0.7913  1.1218  0.1904
 8511TIP3   OH246947   2.203   2.711   4.965  0.4146 -0.4151  0.6215
 8511TIP3    H146948   2.181   2.764   4.889  0.8734 -1.6958 -0.4364
 8511TIP3    H246949   2.126   2.655   4.979 -0.1864  0.6657  1.9092
 8512TIP3   OH246950   5.716   3.621   3.848  0.2841 -0.5016  0.1010
 8512TIP3    H146951   5.666   3.612   3.767 -0.0060  2.3071 -0.1541
 8512TIP3    H246952   5.650   3.630   3.916  0.4189  0.7340  0.0998
 8513TIP3   OH246953   4.924   1.316   0.877 -0.3041  0.0574  0.3390
 8513TIP3    H146954   4.879   1.262   0.942 -3.2284  1.3824 -0.3700
 8513TIP3    H246955   4.989   1.258   0.838 -1.1934 -1.9763  1.6972
 8514TIP3   OH246956   2.574   0.421  12.069  0.4073 -0.2365  0.4354
 8514TIP3    H146957   2.544   0.490  12.127 -0.5311  0.2139 -0.5512
 8514TIP3    H246958   2.542   0.340  12.109 -0.0650  0.0524  0.6508
 8515TIP3   OH246959   0.357   1.298  12.352 -0.1980 -0.3466  0.5939
 8515TIP3    H146960   0.402   1.351  12.287 -0.6381 -0.1197  0.4718
 8515TIP3    H246961   0.410   1.219  12.359 -1.4064 -1.4988 -1.8570
 8516TIP3   OH246962   1.636   2.322  11.071 -0.0432  0.2409  0.1829
 8516TIP3    H146963   1.705   2.258  11.051  0.2413  0.8921 -1.0553
 8516TIP3    H246964   1.682   2.406  11.069 -0.5886  0.5560  0.8782
 8517TIP3   OH246965   3.337   1.225  17.056  0.1566  0.3464 -0.2790
 8517TIP3    H146966   3.285   1.233  16.976  0.3755  0.2833 -0.4273
 8517TIP3    H246967   3.346   1.130  17.069 -2.9962  0.1628  1.8478
 8518TIP3   OH246968   4.673   0.882   2.417 -0.7177  0.6545 -0.9313
 8518TIP3    H146969   4.623   0.805   2.444 -1.4642  2.3380  3.2628
 8518TIP3    H246970   4.762   0.865   2.448 -0.7744  1.2831 -0.4146
 8519TIP3   OH246971   3.493   4.982   2.779  0.0420 -0.1842  0.2685
 8519TIP3    H146972   3.563   4.987   2.844 -2.2788  3.0005  2.8627
 8519TIP3    H246973   3.448   5.066   2.786 -3.9606 -1.9609 -1.3173
 8520TIP3   OH246974   6.496   3.329   2.488  0.4808  1.0266 -0.0751
 8520TIP3    H146975   6.447   3.288   2.560  0.3412  0.8561 -0.2654
 8520TIP3    H246976   6.464   3.285   2.409 -0.2990  2.0818 -0.3723
 8521TIP3   OH246977   3.384   5.283  15.666 -0.0949 -0.1685  0.5394
 8521TIP3    H146978   3.480   5.288  15.667 -0.0632 -0.0630 -0.9726
 8521TIP3    H246979   3.358   5.344  15.597 -1.1975 -0.8950  0.2956
 8522TIP3   OH246980   3.633   1.203   6.529  0.3182 -0.6320  0.3424
 8522TIP3    H146981   3.632   1.133   6.463  0.2677 -2.6262  2.3382
 8522TIP3    H246982   3.544   1.238   6.527  0.4604 -0.2772 -0.9851
 8523TIP3   OH246983   2.659   5.896   3.402 -0.3382  0.3122 -0.5691
 8523TIP3    H146984   2.565   5.884   3.414 -0.5342  1.3210 -1.0546
 8523TIP3    H246985   2.671   5.990   3.389  0.8154  0.2962  0.1357
 8524TIP3   OH246986   2.555   0.806  14.895 -0.3412 -0.1780 -0.2094
 8524TIP3    H146987   2.511   0.877  14.849  0.0078  1.2724  1.5941
 8524TIP3    H246988   2.617   0.850  14.953 -1.0311 -1.8792  1.9464
 8525TIP3   OH246989   4.658   6.333   2.635  0.2236 -0.0649 -0.5002
 8525TIP3    H146990   4.688   6.292   2.716  0.2965 -1.6335 -1.2975
 8525TIP3    H246991   4.563   6.319   2.635  0.3576 -1.0305 -1.1933
 8526TIP3   OH246992   4.704   1.047   2.671  0.6051 -0.1884 -0.1296
 8526TIP3    H146993   4.795   1.039   2.699  1.7669  1.4868 -3.0879
 8526TIP3    H246994   4.673   0.957   2.666  1.6037 -0.7416  2.1603
 8527TIP3   OH246995   4.801   2.778   2.160 -0.1394  0.5751 -0.0451
 8527TIP3    H146996   4.812   2.778   2.255  1.9855  0.9356 -0.2363
 8527TIP3    H246997   4.739   2.849   2.142  0.2356  1.1872  1.0054
 8528TIP3   OH246998   1.974   0.068   2.162 -0.0661  0.3004 -0.4879
 8528TIP3    H146999   1.933   0.073   2.248  1.5359 -0.7855  0.3811
 8528TIP3    H247000   1.911   0.019   2.109 -0.8319  0.5096  0.2043
 8529TIP3   OH247001   5.047   5.438   2.351 -0.1098 -0.6810 -0.1097
 8529TIP3    H147002   5.140   5.462   2.354  0.2793 -1.8412 -1.7054
 8529TIP3    H247003   5.022   5.426   2.443  1.5575 -1.2216  0.3055
 8530TIP3   OH247004   6.545   4.078  11.220  0.1237 -0.7636 -0.1397
 8530TIP3    H147005   6.618   4.032  11.179  0.0251 -1.0188 -0.0295
 8530TIP3    H247006   6.503   4.126  11.148  2.1712  1.8072  0.2595
 8531TIP3   OH247007   4.522   2.706  14.328 -0.5121  0.4071  0.4464
 8531TIP3    H147008   4.526   2.742  14.416 -0.0128 -0.8346  0.9624
 8531TIP3    H247009   4.500   2.613  14.341 -1.5903  0.4395 -0.7952
 8532TIP3   OH247010   5.377   2.780  15.608 -0.3894 -0.0381 -0.7266
 8532TIP3    H147011   5.382   2.820  15.521  1.3137  1.3766 -0.0353
 8532TIP3    H247012   5.442   2.826  15.660 -2.2910  0.1098  1.7240
 8533TIP3   OH247013   5.041   4.994   3.904 -1.2224 -0.1144  0.6207
 8533TIP3    H147014   5.094   4.951   3.837  0.5857  0.4691  1.6081
 8533TIP3    H247015   5.034   4.929   3.974  0.4887  0.6709  1.5977
 8534TIP3   OH247016   5.266   4.767   0.102  0.7915  0.0064 -0.6756
 8534TIP3    H147017   5.311   4.799   0.180  0.6671 -0.1792 -0.5270
 8534TIP3    H247018   5.175   4.797   0.113  0.5963 -0.6950 -0.3678
 8535TIP3   OH247019   5.592   5.652   1.497  0.1718  0.6458 -0.7118
 8535TIP3    H147020   5.504   5.675   1.527  0.3878  0.0040  0.4709
 8535TIP3    H247021   5.592   5.674   1.404 -1.5477 -0.2330 -0.9545
 8536TIP3   OH247022   1.626   6.396  16.790 -0.0078  0.1093  0.0836
 8536TIP3    H147023   1.713   6.409  16.751 -0.1277  1.0805  0.1074
 8536TIP3    H247024   1.630   6.309  16.830  2.3742  1.6664  3.6747
 8537TIP3   OH247025   6.446   2.326  12.285 -0.4896 -0.1682 -0.0538
 8537TIP3    H147026   6.448   2.234  12.257 -0.4707 -0.0583 -0.4234
 8537TIP3    H247027   6.538   2.350  12.295 -0.4434  0.1699 -1.1818
 8538TIP3   OH247028   5.946   4.080   3.642  0.3044  0.1221 -0.3451
 8538TIP3    H147029   6.025   4.087   3.589 -0.5311  0.9837 -1.5252
 8538TIP3    H247030   5.965   4.011   3.706  2.4972  1.2500  0.2972
 8539TIP3   OH247031   0.718   3.036   1.957 -0.2557 -0.3738  0.4362
 8539TIP3    H147032   0.759   3.051   1.872 -1.6375 -0.9805 -0.3701
 8539TIP3    H247033   0.782   3.067   2.021  0.2381  1.4133 -0.8687
 8540TIP3   OH247034   3.488   1.561  13.707 -0.3178  0.7544  0.3483
 8540TIP3    H147035   3.521   1.512  13.782 -2.2253  0.9431  1.3712
 8540TIP3    H247036   3.528   1.517  13.631  0.3049 -0.5281  1.3690
 8541TIP3   OH247037   2.867   0.681   0.009  0.6103  0.3327  0.4761
 8541TIP3    H147038   2.913   0.689  -0.075  0.4523 -2.4157  0.0184
 8541TIP3    H247039   2.936   0.676   0.074  0.9492 -1.3444  0.0455
 8542TIP3   OH247040   6.620   3.817   3.439 -0.3340  0.0380 -0.1215
 8542TIP3    H147041   6.685   3.851   3.377 -1.8830  0.2858 -1.6901
 8542TIP3    H247042   6.638   3.723   3.443  0.2165  0.1238 -0.4265
 8543TIP3   OH247043   2.769   0.872   2.799 -0.3433  0.1448  0.4624
 8543TIP3    H147044   2.774   0.779   2.823 -2.8610 -0.6685 -1.6801
 8543TIP3    H247045   2.747   0.916   2.881 -0.7737 -1.3891  1.2227
 8544TIP3   OH247046   1.910   3.686  11.544 -0.1024  0.4348  0.6418
 8544TIP3    H147047   1.882   3.722  11.628  0.1343  2.8011 -0.2184
 8544TIP3    H247048   1.856   3.732  11.479 -0.7245 -1.7826 -0.5129
 8545TIP3   OH247049   2.861   3.591   4.402 -0.0099  0.1890 -0.4831
 8545TIP3    H147050   2.940   3.619   4.356  0.8951 -0.3621  0.6786
 8545TIP3    H247051   2.809   3.671   4.412  0.7877  0.7214 -0.5382
 8546TIP3   OH247052   5.348   1.191   0.355 -0.0420 -0.7102 -0.4688
 8546TIP3    H147053   5.276   1.204   0.417 -1.2034  0.9664 -2.0631
 8546TIP3    H247054   5.382   1.104   0.375 -2.4579 -1.5249  0.3982
 8547TIP3   OH247055   4.654   2.971  12.622 -0.0605  0.2998  0.1920
 8547TIP3    H147056   4.674   2.888  12.580  0.6156  0.7111 -0.3248
 8547TIP3    H247057   4.738   2.999  12.660 -0.4928  0.2886  1.1980
 8548TIP3   OH247058   1.586   3.039  13.898 -0.2515  0.6312 -0.7990
 8548TIP3    H147059   1.643   3.060  13.972 -0.7257  0.3268 -0.3400
 8548TIP3    H247060   1.609   3.103  13.831  1.7210 -0.4228 -1.2154
 8549TIP3   OH247061   6.049   1.533  16.179 -0.1175 -0.3054  0.7188
 8549TIP3    H147062   6.035   1.443  16.210 -0.3421 -0.2929  0.6605
 8549TIP3    H247063   5.963   1.574  16.187 -0.8169 -0.9991 -2.1950
 8550TIP3   OH247064   2.257   6.126   3.143 -0.4030 -0.6207  0.3231
 8550TIP3    H147065   2.280   6.136   3.050 -1.4556 -0.7310  0.0338
 8550TIP3    H247066   2.289   6.205   3.185 -0.2420 -0.4040 -0.2017
 8551TIP3   OH247067   4.294   2.988  13.393 -0.5793  0.3659 -0.3956
 8551TIP3    H147068   4.364   3.033  13.346  0.4165 -0.8934 -0.1732
 8551TIP3    H247069   4.304   2.896  13.368 -0.3545 -0.2801  1.8268
 8552TIP3   OH247070   0.713   2.107  10.703  0.2866  0.3684  0.3477
 8552TIP3    H147071   0.697   2.189  10.656  0.4978  0.3181  0.1877
 8552TIP3    H247072   0.775   2.059  10.648 -1.7264 -1.0208 -0.8409
 8553TIP3   OH247073   6.295   1.230  14.489 -0.1206  0.1853 -0.3087
 8553TIP3    H147074   6.373   1.201  14.535 -0.6249 -0.1206  0.3613
 8553TIP3    H247075   6.222   1.184  14.531 -0.7236  0.8692 -0.5641
 8554TIP3   OH247076   5.935   4.468   3.028 -0.3552 -0.3010  0.1353
 8554TIP3    H147077   5.936   4.380   2.993  1.2812 -0.0153 -0.5816
 8554TIP3    H247078   5.902   4.458   3.118  1.3147 -1.8712  0.6268
 8555TIP3   OH247079   5.845   0.001   5.896 -0.2313  0.0647  0.0452
 8555TIP3    H147080   5.878  -0.085   5.924 -1.4714 -0.2192  0.7065
 8555TIP3    H247081   5.879   0.062   5.961  2.1043  0.3998 -1.3684
 8556TIP3   OH247082   3.263   0.163   5.629  0.1351  0.4064  0.2030
 8556TIP3    H147083   3.227   0.147   5.542 -2.0937 -1.5416  1.3716
 8556TIP3    H247084   3.302   0.080   5.655  0.2118  0.7696  1.3124
 8557TIP3   OH247085   4.122   0.327  14.216  0.0663  0.2244  0.1017
 8557TIP3    H147086   4.124   0.422  14.225 -0.3958  0.4198 -1.6019
 8557TIP3    H247087   4.034   0.308  14.183  1.1607 -0.4536 -2.6606
 8558TIP3   OH247088   5.159   0.508   5.003 -0.2981 -0.5557  0.5550
 8558TIP3    H147089   5.160   0.490   5.097  1.1460  1.3430  0.9747
 8558TIP3    H247090   5.128   0.598   4.996  4.1889  1.2389 -0.2052
 8559TIP3   OH247091   0.788   2.948  13.176 -0.0775 -0.3096 -0.5465
 8559TIP3    H147092   0.777   2.854  13.192 -1.0815 -0.2891 -1.0494
 8559TIP3    H247093   0.731   2.990  13.239  0.1566 -0.0400 -0.5131
 8560TIP3   OH247094   1.245   3.725  15.423 -0.3496  0.5195  0.0674
 8560TIP3    H147095   1.194   3.744  15.502  1.1389 -1.2663  1.5488
 8560TIP3    H247096   1.281   3.810  15.398 -1.1054  1.1778  1.1108
 8561TIP3   OH247097   1.790   3.655  15.466 -0.3403  0.0696 -0.3186
 8561TIP3    H147098   1.709   3.695  15.498 -0.3152  0.4973 -0.7621
 8561TIP3    H247099   1.816   3.594  15.534 -1.0660 -0.1105 -0.1958
 8562TIP3   OH247100   4.470   6.609  17.050  0.2143  0.0120 -0.0692
 8562TIP3    H147101   4.423   6.660  17.116 -0.8892  0.1363 -0.9153
 8562TIP3    H247102   4.455   6.657  16.968  0.4910 -0.8094 -0.6150
 8563TIP3   OH247103   1.263   4.936   4.605 -0.8954  0.1416 -0.1171
 8563TIP3    H147104   1.263   4.847   4.641 -1.4428 -0.3154 -1.2322
 8563TIP3    H247105   1.214   4.987   4.669 -0.3400 -0.2885  0.6750
 8564TIP3   OH247106   4.664   6.547  14.600 -0.2869 -0.1824 -0.3623
 8564TIP3    H147107   4.593   6.491  14.569 -1.4745  0.7778  0.5255
 8564TIP3    H247108   4.650   6.553  14.695  0.3127  0.9186 -0.3264
 8565TIP3   OH247109   4.289   0.127   3.165  0.1149 -0.3038 -0.5103
 8565TIP3    H147110   4.238   0.139   3.245  0.7249  0.9807 -0.2953
 8565TIP3    H247111   4.289   0.032   3.151  0.4951 -0.6127  1.3427
 8566TIP3   OH247112   5.729   3.067   4.678 -0.1493 -0.0198 -0.6030
 8566TIP3    H147113   5.744   3.115   4.759  1.0119 -0.0864 -0.7478
 8566TIP3    H247114   5.817   3.045   4.647 -0.5372  0.3885 -2.1045
 8567TIP3   OH247115   3.778   4.828  17.203 -0.5334  0.4814  0.5549
 8567TIP3    H147116   3.837   4.755  17.183 -0.7773  0.3275  0.3862
 8567TIP3    H247117   3.827   4.906  17.180 -0.0144  0.4040  1.3697
 8568TIP3   OH247118   3.092   2.535  15.027 -0.2939 -0.2106  0.5363
 8568TIP3    H147119   3.003   2.554  14.996 -0.5800 -0.9131  0.9053
 8568TIP3    H247120   3.083   2.455  15.078  0.7343 -0.8837 -0.2965
 8569TIP3   OH247121   5.535   4.121   1.361 -0.2836  0.4533 -0.2620
 8569TIP3    H147122   5.624   4.144   1.333  0.1294 -0.2624  0.4131
 8569TIP3    H247123   5.507   4.196   1.414 -0.0621  0.6566 -0.4267
 8570TIP3   OH247124   1.680   3.243   0.181 -0.3737  0.2697 -0.1229
 8570TIP3    H147125   1.714   3.205   0.100 -0.0463 -1.4338  0.7717
 8570TIP3    H247126   1.755   3.289   0.219 -0.0361 -0.4244  0.0670
 8571TIP3   OH247127   6.437   0.125   2.306  0.0013 -0.6508  0.0151
 8571TIP3    H147128   6.496   0.169   2.245 -0.5653  1.0582  0.6478
 8571TIP3    H247129   6.491   0.107   2.383 -0.1515  0.5107  0.4186
 8572TIP3   OH247130   6.626   1.139  11.827  0.4587  0.2381 -0.4929
 8572TIP3    H147131   6.544   1.111  11.787  1.0148  0.1755 -1.6100
 8572TIP3    H247132   6.630   1.089  11.909  0.6458 -1.7675 -1.6578
 8573TIP3   OH247133   0.442   5.150   5.512  0.3306  0.1715 -0.1523
 8573TIP3    H147134   0.458   5.235   5.552  1.8170  0.1680 -0.6525
 8573TIP3    H247135   0.524   5.102   5.523  0.1904 -0.4772 -1.5810
 8574TIP3   OH247136   4.537   0.407  13.547  0.4565  0.3698 -0.4099
 8574TIP3    H147137   4.468   0.343  13.532 -1.3990  1.8810  1.1117
 8574TIP3    H247138   4.554   0.403  13.641  1.1837  1.2132 -0.4930
 8575TIP3   OH247139   0.131   4.575   4.683  0.9314 -0.2340  0.0444
 8575TIP3    H147140   0.113   4.587   4.776  1.8050 -2.0224  0.4730
 8575TIP3    H247141   0.225   4.591   4.675  1.1193 -1.4491 -0.2769
 8576TIP3   OH247142   4.152   6.102  13.977 -0.7881  0.6546 -0.1751
 8576TIP3    H147143   4.207   6.120  13.900 -0.7155 -1.0991 -0.5811
 8576TIP3    H247144   4.072   6.064  13.940 -0.6942 -0.3316  0.6048
 8577TIP3   OH247145   5.723   4.318   4.821 -0.2623  0.6825  0.1415
 8577TIP3    H147146   5.667   4.335   4.745 -0.5171  0.9520  0.3857
 8577TIP3    H247147   5.666   4.333   4.897  0.5863  2.6542  0.4386
 8578TIP3   OH247148   1.063   2.511   1.117  0.3807  0.0786 -0.1186
 8578TIP3    H147149   1.029   2.494   1.029 -0.0637 -0.1819  0.1013
 8578TIP3    H247150   0.989   2.546   1.166  0.6541  0.3279  0.1234
 8579TIP3   OH247151   1.614   1.856   2.141  0.6099  0.3505  0.2431
 8579TIP3    H147152   1.579   1.876   2.227 -0.4822  1.6637 -0.4771
 8579TIP3    H247153   1.692   1.803   2.159  0.0347  0.0356  1.9932
 8580TIP3   OH247154   3.112   4.113   1.061 -0.2205  0.5547  0.5359
 8580TIP3    H147155   3.150   4.028   1.082 -0.8204 -0.2700 -1.4882
 8580TIP3    H247156   3.069   4.141   1.141  0.0508 -1.0158  1.2565
 8581TIP3   OH247157   2.752   6.248   1.106 -0.1899  0.4377 -0.3428
 8581TIP3    H147158   2.671   6.206   1.074  0.8447 -1.4027 -0.7021
 8581TIP3    H247159   2.770   6.317   1.042 -0.9694  0.2607 -0.7762
 8582TIP3   OH247160   2.272   1.258  11.717  0.2012 -0.2577  0.3168
 8582TIP3    H147161   2.283   1.166  11.739  2.5814  0.0297  0.5918
 8582TIP3    H247162   2.214   1.292  11.785  1.2142 -1.0668  1.6417
 8583TIP3   OH247163   1.009   6.564  11.613 -0.1029  0.0103  0.3044
 8583TIP3    H147164   0.958   6.484  11.627  1.6451 -1.5515 -1.4525
 8583TIP3    H247165   1.057   6.576  11.694 -1.4252  0.1333  1.1048
 8584TIP3   OH247166   0.632   1.329  11.662  0.4451 -0.0432  0.2601
 8584TIP3    H147167   0.612   1.267  11.592 -0.5877 -1.2001  1.5204
 8584TIP3    H247168   0.726   1.321  11.676  0.5859 -0.1104 -0.6856
 8585TIP3   OH247169   6.170   2.267  16.399 -0.5414 -0.8036 -0.2547
 8585TIP3    H147170   6.137   2.354  16.419 -1.1140 -1.1212  0.2319
 8585TIP3    H247171   6.265   2.276  16.402 -0.5966 -0.2616  0.0764
 8586TIP3   OH247172   4.754   6.368  15.942 -0.0344  0.3533 -0.2794
 8586TIP3    H147173   4.739   6.288  15.994  0.3761 -0.0621 -0.7800
 8586TIP3    H247174   4.667   6.400  15.921 -0.2040  0.2102  0.1830
 8587TIP3   OH247175   5.242   2.075   0.932  0.2256  0.0415  0.6567
 8587TIP3    H147176   5.242   1.979   0.939  3.2048 -0.0498  0.6521
 8587TIP3    H247177   5.330   2.097   0.903 -0.2350  2.8544  1.0855
 8588TIP3   OH247178   2.098   3.130   1.144  0.3039 -0.1174  0.4991
 8588TIP3    H147179   2.010   3.135   1.182  0.2381 -1.3656  0.5370
 8588TIP3    H247180   2.142   3.209   1.175 -0.8474  0.6163  0.3408
 8589TIP3   OH247181   5.945   5.378  16.524 -0.1232 -0.2566 -0.3287
 8589TIP3    H147182   6.013   5.445  16.528 -0.1651 -0.2423  0.2576
 8589TIP3    H247183   5.880   5.413  16.463 -0.8800  0.9434  1.0933
 8590TIP3   OH247184   2.753   0.896   2.495  0.1601  0.3144 -0.1569
 8590TIP3    H147185   2.679   0.957   2.498  0.4715  0.6671  0.7122
 8590TIP3    H247186   2.789   0.898   2.584  1.5331  0.5480 -0.6863
 8591TIP3   OH247187   4.951   3.642   4.674 -0.3759  0.2833  0.5616
 8591TIP3    H147188   4.988   3.686   4.598  1.6523 -1.5993  0.3467
 8591TIP3    H247189   4.883   3.584   4.637 -1.3316  1.3630  0.5654
 8592TIP3   OH247190   2.547   3.573   0.768 -0.1854 -0.4377  0.4920
 8592TIP3    H147191   2.582   3.500   0.819 -0.3922 -0.6831  0.2862
 8592TIP3    H247192   2.615   3.591   0.703 -0.7121 -1.3553 -0.3380
 8593TIP3   OH247193   0.602   2.804   2.385 -0.7346  0.1348 -0.0251
 8593TIP3    H147194   0.633   2.749   2.313  1.3623  0.0806  0.8275
 8593TIP3    H247195   0.600   2.892   2.349  0.0524  0.0683 -0.2593
 8594TIP3   OH247196   4.498   2.892  12.847 -0.0299 -0.0859 -0.7848
 8594TIP3    H147197   4.494   2.954  12.921  0.4375 -0.6922 -0.2363
 8594TIP3    H247198   4.547   2.939  12.779 -1.0672  0.7397 -0.9763
 8595TIP3   OH247199   3.974   4.969   3.570 -0.2407 -0.3765 -0.4603
 8595TIP3    H147200   3.921   4.964   3.490  0.1859  2.6287 -1.0535
 8595TIP3    H247201   4.063   4.950   3.541  0.0005  1.2167 -0.9048
 8596TIP3   OH247202   6.112   3.546  14.315 -0.2368  0.0494  0.0155
 8596TIP3    H147203   6.064   3.606  14.259  0.1008 -0.1919 -0.5456
 8596TIP3    H247204   6.080   3.459  14.290 -2.0036  0.0552  2.0410
 8597TIP3   OH247205   0.139   4.505  16.089 -0.2381  0.2219 -0.1886
 8597TIP3    H147206   0.123   4.552  16.171 -0.9692  0.0200 -0.2075
 8597TIP3    H247207   0.099   4.561  16.022  0.7676  0.6168 -0.4685
 8598TIP3   OH247208   1.438   6.157   0.975 -0.3291  1.2172  0.1683
 8598TIP3    H147209   1.347   6.188   0.973 -1.5346 -1.9408 -2.0630
 8598TIP3    H247210   1.447   6.115   1.061 -0.6541  2.2508  0.7293
 8599TIP3   OH247211   4.002   3.862   5.406  0.5803  0.1703 -0.1868
 8599TIP3    H147212   3.952   3.857   5.487 -1.6508  1.5107 -1.3809
 8599TIP3    H247213   4.059   3.785   5.407  1.3999  0.6840  3.0846
 8600TIP3   OH247214   6.556   4.359   0.484  0.2478 -0.4615  0.0692
 8600TIP3    H147215   6.534   4.442   0.525  0.1350  0.3116 -1.5081
 8600TIP3    H247216   6.647   4.342   0.512  1.6925  2.1245 -2.5344
 8601TIP3   OH247217   2.264   4.998   4.576  0.2262  0.2845 -0.2032
 8601TIP3    H147218   2.334   5.004   4.641  0.9330 -0.6215 -0.8415
 8601TIP3    H247219   2.276   5.076   4.521  1.6585 -0.5730 -1.1630
 8602TIP3   OH247220   5.230   2.811  11.792 -0.1308  0.2246 -0.3018
 8602TIP3    H147221   5.274   2.884  11.834  0.6385 -0.1900 -0.3759
 8602TIP3    H247222   5.186   2.765  11.863 -1.3166  1.2205 -0.3621
 8603TIP3   OH247223   1.807   6.760  13.311 -0.2495 -0.0247  0.0720
 8603TIP3    H147224   1.717   6.782  13.286 -0.0159  0.3464 -0.4633
 8603TIP3    H247225   1.798   6.688  13.373 -0.9007 -0.1849 -0.2070
 8604TIP3   OH247226   5.867   1.819   6.290  0.1174 -0.1730  0.3547
 8604TIP3    H147227   5.902   1.769   6.364  1.0807 -0.5588 -0.3355
 8604TIP3    H247228   5.818   1.755   6.238  1.1657 -0.3883 -0.4107
 8605TIP3   OH247229   5.387   5.074   2.784  0.2442  0.0871 -0.2380
 8605TIP3    H147230   5.339   5.154   2.759 -0.8647  0.2365  2.0836
 8605TIP3    H247231   5.426   5.043   2.702  0.1637  2.6353 -1.3420
 8606TIP3   OH247232   1.073   0.506   5.986 -0.3442 -0.1235  0.1494
 8606TIP3    H147233   1.166   0.483   5.989  0.3656  2.1249 -1.7043
 8606TIP3    H247234   1.072   0.601   5.993 -2.5801 -0.1402  0.7201
 8607TIP3   OH247235   1.520   1.662  12.459 -0.0687 -0.1830 -0.2698
 8607TIP3    H147236   1.517   1.631  12.368 -1.1713  0.9652 -0.6646
 8607TIP3    H247237   1.518   1.583  12.512 -0.1426 -0.8501 -1.2384
 8608TIP3   OH247238   4.209   5.207   3.615 -0.2600 -0.2066 -0.4837
 8608TIP3    H147239   4.197   5.140   3.548 -0.6772 -0.6037 -0.0098
 8608TIP3    H247240   4.134   5.266   3.605 -2.0636 -1.9846  1.6429
 8609TIP3   OH247241   5.573   5.102  12.924  0.1492  0.0449  0.1220
 8609TIP3    H147242   5.577   5.007  12.910 -0.7883 -0.1448  1.0055
 8609TIP3    H247243   5.584   5.113  13.018 -0.4483  0.7544  0.1188
 8610TIP3   OH247244   6.255   4.338   5.889  0.3545  0.5788 -0.0685
 8610TIP3    H147245   6.308   4.278   5.838 -0.8974 -0.1919 -0.5146
 8610TIP3    H247246   6.285   4.326   5.980 -0.7362 -1.7404  0.0601
 8611TIP3   OH247247   6.581   4.223  13.035  0.4745  0.3213 -0.6258
 8611TIP3    H147248   6.519   4.152  13.051  1.8281 -0.3812  2.0926
 8611TIP3    H247249   6.646   4.185  12.975  1.1048 -0.7678  0.6904
 8612TIP3   OH247250   2.220   3.382   5.718  0.1807  0.7211  0.0917
 8612TIP3    H147251   2.151   3.349   5.777  0.1698 -1.4958 -1.0442
 8612TIP3    H247252   2.215   3.477   5.726 -2.3867  0.6102  0.7736
 8613TIP3   OH247253   4.480   4.451  12.533 -0.4719 -0.1866  0.3136
 8613TIP3    H147254   4.524   4.532  12.560  1.3763 -0.0383 -2.5908
 8613TIP3    H247255   4.497   4.389  12.604 -0.9096  1.6022  2.0637
 8614TIP3   OH247256   1.794   6.560   0.923 -0.3023 -0.4977  0.4012
 8614TIP3    H147257   1.709   6.524   0.947 -0.4352 -1.1520 -0.9389
 8614TIP3    H247258   1.785   6.654   0.937 -1.1355 -0.5983  0.6029
 8615TIP3   OH247259   2.009   2.787   5.826 -0.0695  0.2675  0.1282
 8615TIP3    H147260   1.958   2.758   5.750  1.9197 -1.9831 -0.4622
 8615TIP3    H247261   2.034   2.706   5.870 -0.5324  1.4803  2.8391
 8616TIP3   OH247262   1.768   2.532  13.641 -0.4352 -0.1122 -0.2456
 8616TIP3    H147263   1.754   2.458  13.700 -0.7427  1.1371  1.3343
 8616TIP3    H247264   1.860   2.523  13.613  0.5744  0.6392  2.5331
 8617TIP3   OH247265   1.792   1.703   5.496 -0.0058 -0.8580  0.5544
 8617TIP3    H147266   1.719   1.729   5.552  0.3230  1.1910  0.1292
 8617TIP3    H247267   1.861   1.766   5.517  1.5422 -2.4980  0.6614
 8618TIP3   OH247268   6.576   2.954  14.407 -0.1003 -0.6208  0.2094
 8618TIP3    H147269   6.491   2.911  14.420 -0.3317 -1.2310 -2.5292
 8618TIP3    H247270   6.624   2.895  14.349  1.6978  0.3510  0.6378
 8619TIP3   OH247271   4.618   2.861  13.582 -0.1738 -0.6335 -0.3690
 8619TIP3    H147272   4.649   2.878  13.493 -1.4672 -1.3120 -0.9843
 8619TIP3    H247273   4.695   2.871  13.637  1.0340 -1.8241 -1.7582
 8620TIP3   OH247274   2.497   0.439   0.480  1.0641 -0.2753 -0.0601
 8620TIP3    H147275   2.425   0.394   0.524  1.6040 -0.8482  0.2474
 8620TIP3    H247276   2.574   0.388   0.502  1.4341 -0.2427 -1.2140
 8621TIP3   OH247277   2.563   1.140  16.868  0.2030  0.0214  0.0129
 8621TIP3    H147278   2.575   1.061  16.919 -0.0557 -0.4976 -0.7115
 8621TIP3    H247279   2.482   1.125  16.818  0.4951  0.4640 -0.6170
 8622TIP3   OH247280   1.992   3.526  16.479 -0.4019 -0.3202  0.1184
 8622TIP3    H147281   1.939   3.541  16.401  0.7632  0.4585 -0.5585
 8622TIP3    H247282   2.006   3.432  16.481 -0.4983 -0.3546 -0.5964
 8623TIP3   OH247283   5.102   4.125   3.100 -0.6527  0.0549  0.0374
 8623TIP3    H147284   5.152   4.072   3.038 -1.1113 -1.0847  0.6021
 8623TIP3    H247285   5.060   4.060   3.158 -0.9984  1.0513  0.9335
 8624TIP3   OH247286   5.467   5.664   0.993 -0.6871  0.4059 -1.2713
 8624TIP3    H147287   5.461   5.755   0.962  1.8984  0.8904 -0.6218
 8624TIP3    H247288   5.544   5.629   0.949 -0.4964 -0.8266 -0.0174
 8625TIP3   OH247289   6.075   2.986  12.437 -0.5649 -0.0562 -0.2287
 8625TIP3    H147290   6.027   3.066  12.416  0.6666  0.7628 -0.0107
 8625TIP3    H247291   6.163   3.016  12.461 -0.6589 -1.2879  1.8750
 8626TIP3   OH247292   0.269   5.134  12.795 -0.5334 -0.0063 -0.4567
 8626TIP3    H147293   0.345   5.087  12.760  0.4033 -1.5913  3.1882
 8626TIP3    H247294   0.243   5.194  12.725  3.1368 -0.4385 -2.4403
 8627TIP3   OH247295   1.135   0.379   2.152  0.2261 -0.0252 -0.5273
 8627TIP3    H147296   1.216   0.328   2.160 -0.4465 -1.2045 -1.0064
 8627TIP3    H247297   1.144   0.424   2.068  1.4143  1.7736  0.5037
 8628TIP3   OH247298   2.724   6.336  15.112  0.4280  0.8965 -0.4729
 8628TIP3    H147299   2.767   6.393  15.048  1.5606  1.1032  0.4387
 8628TIP3    H247300   2.677   6.271  15.059  0.9772  1.3269 -1.5084
 8629TIP3   OH247301   3.697   5.251   3.513  0.4728  0.1251  0.1615
 8629TIP3    H147302   3.605   5.231   3.526  0.5490 -1.0615 -0.9885
 8629TIP3    H247303   3.701   5.301   3.432  0.9010 -0.3346 -0.1059
 8630TIP3   OH247304   0.526   4.867  17.154  0.0771  0.1557 -0.1217
 8630TIP3    H147305   0.500   4.926  17.083 -0.0447 -1.0546 -1.1033
 8630TIP3    H247306   0.616   4.892  17.173 -0.2092  1.1636  0.0109
 8631TIP3   OH247307   3.198   5.662  13.147  0.0688  0.4817 -0.2138
 8631TIP3    H147308   3.131   5.625  13.090 -1.4059  0.1827  1.5953
 8631TIP3    H247309   3.149   5.699  13.221  1.9180 -2.1454  2.5807
 8632TIP3   OH247310   1.451   6.156  14.957 -0.4356 -0.2578  0.1281
 8632TIP3    H147311   1.491   6.071  14.975  0.4057 -0.0468 -0.6540
 8632TIP3    H247312   1.519   6.205  14.909 -1.1601  0.5903 -0.0622
 8633TIP3   OH247313   5.817   6.736  16.596  0.2495  0.0421  0.3712
 8633TIP3    H147314   5.781   6.710  16.511  0.3295  0.0574  0.3320
 8633TIP3    H247315   5.881   6.669  16.617 -0.5558 -0.5587  0.9501
 8634TIP3   OH247316   0.755   2.572   4.166  0.5125 -0.4680  0.0847
 8634TIP3    H147317   0.850   2.558   4.170  0.4627 -0.5405  1.3809
 8634TIP3    H247318   0.722   2.540   4.250 -0.6386 -0.2229 -0.2549
 8635TIP3   OH247319   0.854   1.799  15.555  0.2694 -0.6149 -0.3068
 8635TIP3    H147320   0.826   1.891  15.557 -2.0045 -1.2482 -0.3982
 8635TIP3    H247321   0.864   1.775  15.647 -0.7341 -0.6871 -0.2006
 8636TIP3   OH247322   2.764   1.850  16.186 -0.2465 -0.4458  0.4722
 8636TIP3    H147323   2.821   1.834  16.260  1.5748 -0.3928 -0.8481
 8636TIP3    H247324   2.731   1.764  16.161  1.1814 -0.8441 -0.1763
 8637TIP3   OH247325   1.520   1.648  14.963 -0.1578 -0.3098 -0.1864
 8637TIP3    H147326   1.564   1.644  14.878  1.1475  0.2065  0.4253
 8637TIP3    H247327   1.563   1.580  15.015 -0.0858  0.1876  0.4215
 8638TIP3   OH247328   5.024   5.909   0.135  0.2444 -0.2413  0.1335
 8638TIP3    H147329   5.080   5.948   0.067  1.1907  1.3159  1.7262
 8638TIP3    H247330   5.066   5.826   0.156  0.7454 -0.0731 -0.1857
 8639TIP3   OH247331   1.782   3.803   2.451  0.7484 -0.2914 -0.5467
 8639TIP3    H147332   1.733   3.721   2.448 -0.5737  0.4558 -0.1546
 8639TIP3    H247333   1.783   3.833   2.360  1.3760 -0.8140 -0.7169
 8640TIP3   OH247334   5.592   4.482   3.233  0.0252 -0.3145 -0.5343
 8640TIP3    H147335   5.558   4.498   3.145 -0.2261  1.7835 -0.1245
 8640TIP3    H247336   5.531   4.528   3.290  1.6866  0.7397  0.4755
 8641TIP3   OH247337   6.099   2.598  16.081 -0.1573 -0.1060  0.4258
 8641TIP3    H147338   6.139   2.511  16.085 -1.8672 -0.9591  0.1714
 8641TIP3    H247339   6.032   2.596  16.149 -0.4569  0.8818  0.1683
 8642TIP3   OH247340   4.851   0.492   5.693  0.1972 -0.1816 -0.4357
 8642TIP3    H147341   4.779   0.454   5.643 -0.9889  1.2785  0.0853
 8642TIP3    H247342   4.899   0.545   5.630  1.8125 -2.3672 -1.1474
 8643TIP3   OH247343   3.200   5.788   0.936  0.2284  0.2323 -0.1655
 8643TIP3    H147344   3.110   5.815   0.955  0.2429 -0.3854  0.8558
 8643TIP3    H247345   3.247   5.799   1.019  0.6126 -1.3259 -0.1494
 8644TIP3   OH247346   4.163   2.981   4.498 -0.7288 -0.5868  0.1220
 8644TIP3    H147347   4.223   2.923   4.545  2.9472  2.7604  0.1300
 8644TIP3    H247348   4.175   2.957   4.406  2.4867  1.2167 -0.1068
 8645TIP3   OH247349   1.200   1.291   1.426  0.6622  0.2171  0.3484
 8645TIP3    H147350   1.113   1.330   1.436  0.8286  0.0138  3.8815
 8645TIP3    H247351   1.225   1.311   1.336 -2.7265  0.8697 -0.6003
 8646TIP3   OH247352   4.423   0.273   2.287  0.4909  0.0257  0.1645
 8646TIP3    H147353   4.486   0.253   2.217 -0.0175 -1.3410  0.0608
 8646TIP3    H247354   4.348   0.311   2.241  0.5893  0.1356  0.0947
 8647TIP3   OH247355   4.878   5.642   1.554 -0.0256  0.4057  0.0359
 8647TIP3    H147356   4.834   5.724   1.531 -0.9988  0.1473  0.8821
 8647TIP3    H247357   4.965   5.668   1.582 -1.0112  1.4611  2.4227
 8648TIP3   OH247358   5.313   1.612   6.038  0.3031  0.3599 -0.1779
 8648TIP3    H147359   5.252   1.619   6.111  1.6672 -0.7960  1.1299
 8648TIP3    H247360   5.384   1.558   6.071  1.5364  0.7829 -1.9957
 8649TIP3   OH247361   5.754   0.878   3.024  0.5094  0.2260  0.1674
 8649TIP3    H147362   5.688   0.841   3.083  0.4696 -0.0982 -0.0744
 8649TIP3    H247363   5.785   0.803   2.974  1.2084  0.3352  0.4145
 8650TIP3   OH247364   0.669   1.608   2.207  0.3943 -0.3075 -0.0381
 8650TIP3    H147365   0.607   1.536   2.190 -0.4383  0.1416  0.9729
 8650TIP3    H247366   0.633   1.682   2.158  1.9160 -0.8353 -2.0908
 8651TIP3   OH247367   6.376   6.528  10.762 -0.6974  0.0679 -0.5541
 8651TIP3    H147368   6.296   6.488  10.726 -0.0424 -1.0757 -0.7856
 8651TIP3    H247369   6.430   6.547  10.685  0.1683 -1.1997 -0.2837
 8652TIP3   OH247370   6.684   1.324  16.758  0.9710 -0.0273  0.4847
 8652TIP3    H147371   6.598   1.289  16.736  1.0717 -0.6813  1.0760
 8652TIP3    H247372   6.667   1.387  16.829  1.0234 -0.4810  0.9031
 8653TIP3   OH247373   5.562   1.088  13.593 -0.1929  0.2095  0.0204
 8653TIP3    H147374   5.583   1.167  13.642  0.2944 -0.2772  0.6029
 8653TIP3    H247375   5.528   1.027  13.658 -0.8692  0.0420 -0.4774
 8654TIP3   OH247376   4.421   0.139  13.547 -0.6453  0.4773  0.0420
 8654TIP3    H147377   4.478   0.086  13.491  0.5883  1.6305  0.1388
 8654TIP3    H247378   4.461   0.133  13.634 -1.3377  0.3877  0.3581
 8655TIP3   OH247379   5.199   3.479   2.790  0.3026 -0.1490 -0.0418
 8655TIP3    H147380   5.244   3.516   2.866  1.4110 -1.4000 -0.0418
 8655TIP3    H247381   5.253   3.405   2.764  0.0244  0.2948 -2.1302
 8656TIP3   OH247382   3.499   0.379  17.093  0.4275  0.4578  0.1386
 8656TIP3    H147383   3.495   0.433  17.013  0.5953  1.2615  0.6548
 8656TIP3    H247384   3.569   0.316  17.075  0.2080  0.3845 -0.4936
 8657TIP3   OH247385   0.437   6.031   3.543  0.5111  0.2765 -0.4359
 8657TIP3    H147386   0.358   6.050   3.492  0.0542 -3.1179 -1.2245
 8657TIP3    H247387   0.509   6.049   3.483  0.4226  3.1123  0.1889
 8658TIP3   OH247388   3.810   4.612   5.793 -0.1260 -0.6103 -0.2736
 8658TIP3    H147389   3.744   4.589   5.859 -0.7531 -1.6716 -1.2290
 8658TIP3    H247390   3.785   4.561   5.716  1.5819 -0.7013 -0.8000
 8659TIP3   OH247391   2.137   4.195   1.577  0.1270 -1.1249  0.3924
 8659TIP3    H147392   2.111   4.252   1.505  1.0650  0.0400  0.9381
 8659TIP3    H247393   2.058   4.183   1.629 -0.2568 -0.9345 -0.1463
 8660TIP3   OH247394   5.269   4.287  13.876 -0.4586 -0.7589 -0.2460
 8660TIP3    H147395   5.225   4.346  13.937  1.6025  1.3974 -0.6869
 8660TIP3    H247396   5.247   4.322  13.790  1.2130 -0.2627 -0.4987
 8661TIP3   OH247397   1.663   4.618  14.876 -0.3791 -0.4480  0.0369
 8661TIP3    H147398   1.660   4.682  14.805  1.0088 -1.0032 -0.5672
 8661TIP3    H247399   1.709   4.663  14.946  0.7771 -0.8250 -0.4605
 8662TIP3   OH247400   1.395   1.668   3.799 -0.1238 -0.0996 -0.2476
 8662TIP3    H147401   1.343   1.679   3.719  2.5583 -1.0976 -2.2945
 8662TIP3    H247402   1.486   1.682   3.770  0.8857  0.7950  2.9491
 8663TIP3   OH247403   5.134   1.148   0.684 -0.2173  0.2188 -0.8692
 8663TIP3    H147404   5.152   1.179   0.595 -0.8621 -1.0991 -1.4893
 8663TIP3    H247405   5.211   1.096   0.706 -0.9250 -1.1458 -1.4910
 8664TIP3   OH247406   3.692   0.986   1.655  0.5712  0.1993  0.1400
 8664TIP3    H147407   3.738   0.954   1.577  1.6168 -1.8905  1.5265
 8664TIP3    H247408   3.716   0.924   1.724 -2.5539  0.3381  1.5010
 8665TIP3   OH247409   4.274   3.106  11.630  0.2645 -0.6513 -0.4401
 8665TIP3    H147410   4.336   3.065  11.570 -0.4959 -0.7164 -1.1935
 8665TIP3    H247411   4.283   3.199  11.613 -0.0626 -0.6795 -0.7639
 8666TIP3   OH247412   0.055   4.249  12.515  0.2554  0.3323 -0.5703
 8666TIP3    H147413   0.132   4.198  12.489  1.1135 -0.0590  2.3352
 8666TIP3    H247414   0.090   4.332  12.547 -0.8646  1.4677 -2.0979
 8667TIP3   OH247415   5.631   4.178   2.769 -0.8239  0.3502  0.2292
 8667TIP3    H147416   5.699   4.223   2.718  0.5681  2.0681  3.3122
 8667TIP3    H247417   5.573   4.248   2.799 -0.0334 -0.0587  3.0845
 8668TIP3   OH247418   5.908   0.481  16.615 -0.3605  0.3819  0.0167
 8668TIP3    H147419   5.958   0.556  16.647 -1.0176  1.3986 -1.2476
 8668TIP3    H247420   5.974   0.412  16.604 -0.0258  0.0926  2.9760
 8669TIP3   OH247421   4.093   5.590  10.860  0.1669  0.0762 -0.1561
 8669TIP3    H147422   4.169   5.564  10.913  0.0878 -0.3931 -0.2664
 8669TIP3    H247423   4.097   5.686  10.857  1.8915  0.0192 -1.7800
 8670TIP3   OH247424   2.459   1.747   5.384 -0.0460  0.7916  0.2665
 8670TIP3    H147425   2.406   1.668   5.395  1.0796  0.1027  0.8112
 8670TIP3    H247426   2.399   1.809   5.342 -0.9784 -0.3065 -0.0884
 8671TIP3   OH247427   6.668   0.718  17.127 -0.2102 -0.6268 -0.2164
 8671TIP3    H147428   6.595   0.776  17.147  0.7454 -0.1187  2.2621
 8671TIP3    H247429   6.691   0.737  17.037 -1.2382  1.3717 -0.1050
 8672TIP3   OH247430   6.453   3.838  13.100  0.7838  0.1368 -0.2709
 8672TIP3    H147431   6.504   3.844  13.180  0.6381 -2.6080  0.1017
 8672TIP3    H247432   6.365   3.868  13.124  0.8727 -0.1996  0.4785
 8673TIP3   OH247433   3.981   2.242  14.830  0.3266  0.4918 -0.2344
 8673TIP3    H147434   3.939   2.304  14.771  0.9421  0.8030 -0.3503
 8673TIP3    H247435   4.018   2.295  14.899  2.3539  0.4609 -1.2195
 8674TIP3   OH247436   1.744   0.190  15.626  0.2199  0.0007  0.2621
 8674TIP3    H147437   1.724   0.262  15.565 -0.2126  0.4850  0.9689
 8674TIP3    H247438   1.840   0.187  15.628  0.2409  0.1781 -0.2136
 8675TIP3   OH247439   3.830   3.452  13.170  0.1331 -0.2677 -0.0036
 8675TIP3    H147440   3.812   3.436  13.263  1.1605  1.2318  0.4906
 8675TIP3    H247441   3.769   3.395  13.124 -2.7180  1.2755  1.5795
 8676TIP3   OH247442   5.629   5.305  14.693  0.5093  0.3208  0.4374
 8676TIP3    H147443   5.538   5.334  14.689  0.4621  0.2834  1.2479
 8676TIP3    H247444   5.635   5.254  14.774  0.8432 -1.0731 -0.4126
 8677TIP3   OH247445   5.475   5.367   4.833  0.1907 -0.4239  0.2543
 8677TIP3    H147446   5.424   5.448   4.828  1.6922  0.6210  0.9564
 8677TIP3    H247447   5.427   5.312   4.895 -0.8652 -0.0991 -0.2558
 8678TIP3   OH247448   1.702   2.610  11.061  0.3869  0.1002  0.4125
 8678TIP3    H147449   1.788   2.580  11.031  0.1232  0.9286 -1.2308
 8678TIP3    H247450   1.685   2.689  11.011 -0.8933  0.5300  1.4760
 8679TIP3   OH247451   0.278   4.607   0.653  0.1949 -0.2121 -0.3306
 8679TIP3    H147452   0.258   4.650   0.736 -1.7761 -0.5595 -0.5604
 8679TIP3    H247453   0.349   4.658   0.615  0.9909  0.0753  1.4637
 8680TIP3   OH247454   4.855   4.862  11.294 -0.3344 -0.3086  0.1007
 8680TIP3    H147455   4.889   4.791  11.349  3.2466  1.9591  1.1645
 8680TIP3    H247456   4.798   4.912  11.352 -0.5573 -0.7239  0.2379
 8681TIP3   OH247457   2.399   5.435  12.051  0.0204  0.3815 -0.5253
 8681TIP3    H147458   2.344   5.363  12.019  2.1065 -0.6547 -1.9556
 8681TIP3    H247459   2.427   5.481  11.972  0.7274  1.2497  0.2114
 8682TIP3   OH247460   2.705   6.501   0.625  0.3370  0.0274 -0.2176
 8682TIP3    H147461   2.641   6.522   0.557  1.3728 -0.7797 -1.4732
 8682TIP3    H247462   2.665   6.429   0.674  0.0153 -0.0549 -0.5980
 8683TIP3   OH247463   3.641   2.486   4.017  0.0916  0.3134  0.1380
 8683TIP3    H147464   3.578   2.442   3.960  0.0424 -1.0714  1.1919
 8683TIP3    H247465   3.613   2.578   4.018 -1.2426 -0.0713 -0.2738
 8684TIP3   OH247466   2.373   4.792   3.074 -0.2010  0.1459  0.1967
 8684TIP3    H147467   2.404   4.786   3.164  0.1598 -0.4765  0.0308
 8684TIP3    H247468   2.435   4.740   3.023  0.1396  1.2560 -0.5516
 8685TIP3   OH247469   3.217   0.617  17.138 -0.1881  0.1056  1.0280
 8685TIP3    H147470   3.237   0.538  17.188  0.6587 -0.4386 -0.1237
 8685TIP3    H247471   3.175   0.675  17.201  1.2317 -0.3777  2.4916
 8686TIP3   OH247472   4.281   3.354  13.386  0.4796 -0.1947 -0.4992
 8686TIP3    H147473   4.370   3.318  13.385  1.0157  1.0329  0.5997
 8686TIP3    H247474   4.228   3.287  13.344  1.7274 -1.4785 -0.0983
 8687TIP3   OH247475   3.140   6.150   2.381 -0.3157  0.1438  0.0168
 8687TIP3    H147476   3.120   6.227   2.435  0.5186 -1.0516  2.1631
 8687TIP3    H247477   3.064   6.093   2.392 -0.3813  0.1263 -0.5275
 8688TIP3   OH247478   4.676   4.618  16.661 -0.1277 -0.3542  0.4698
 8688TIP3    H147479   4.652   4.661  16.579  1.9019  1.4835  0.7542
 8688TIP3    H247480   4.663   4.525  16.643 -2.2189  0.1509 -1.0423
 8689TIP3   OH247481   0.762   1.015   3.725  0.0242  0.1905 -0.1896
 8689TIP3    H147482   0.811   1.097   3.717 -0.5756  0.5779  0.0313
 8689TIP3    H247483   0.692   1.023   3.660  0.6782 -0.6752 -1.0232
 8690TIP3   OH247484   3.176   5.981   4.374 -0.3536  0.1212  0.1612
 8690TIP3    H147485   3.175   6.031   4.292  0.0416 -1.0126 -0.5690
 8690TIP3    H247486   3.262   5.939   4.376 -0.0433  0.7723  1.5794
 8691TIP3   OH247487   6.105   6.185   0.541  0.4338  0.0853 -0.0481
 8691TIP3    H147488   6.133   6.270   0.577 -1.3083 -0.2345  2.3025
 8691TIP3    H247489   6.020   6.169   0.582 -0.5269 -1.5976 -2.4876
 8692TIP3   OH247490   0.409   6.003   2.541  0.3816  0.6853 -0.2962
 8692TIP3    H147491   0.363   5.973   2.619 -1.5439  0.0065 -1.5969
 8692TIP3    H247492   0.393   5.935   2.476  1.0028  1.7193 -1.5870
 8693TIP3   OH247493   1.271   3.860   3.688  0.0205 -0.2024 -0.6339
 8693TIP3    H147494   1.214   3.838   3.763 -0.4545  0.2955 -0.8406
 8693TIP3    H247495   1.284   3.954   3.696  0.8618 -0.3219 -0.5703
 8694TIP3   OH247496   6.101   5.108  13.772  0.3632  0.1019  0.0603
 8694TIP3    H147497   6.094   5.157  13.690  0.4178 -1.1057 -0.6842
 8694TIP3    H247498   6.031   5.143  13.827  0.0453  0.6182 -0.6632
 8695TIP3   OH247499   2.211   5.344   5.872 -0.1847 -0.2637 -0.2532
 8695TIP3    H147500   2.297   5.363   5.909 -0.5493  0.1403  0.3985
 8695TIP3    H247501   2.180   5.269   5.923  0.4951 -1.5378 -1.6332
 8696TIP3   OH247502   5.787   0.899   4.349 -0.0336 -0.4878  0.3045
 8696TIP3    H147503   5.864   0.852   4.380 -0.5258 -1.0433  0.7211
 8696TIP3    H247504   5.722   0.887   4.419 -0.6012 -0.2993 -0.1785
 8697TIP3   OH247505   5.887   3.263   3.511 -0.3012  0.4828  0.2630
 8697TIP3    H147506   5.883   3.210   3.432 -1.6910  0.7675  0.1251
 8697TIP3    H247507   5.796   3.287   3.529  0.1383  1.5543  1.1776
 8698TIP3   OH247508   5.757   1.398  15.154 -0.2971 -0.4383 -0.0081
 8698TIP3    H147509   5.815   1.472  15.172 -1.2064 -0.1785  2.0502
 8698TIP3    H247510   5.813   1.334  15.109  1.1612  0.4625  0.4721
 8699TIP3   OH247511   5.668   2.790  16.507  0.2509  0.1831  0.0837
 8699TIP3    H147512   5.600   2.857  16.514  0.5967  0.5299  0.1620
 8699TIP3    H247513   5.736   2.830  16.452 -0.0375 -0.5234 -0.8089
 8700TIP3   OH247514   1.825   1.829   1.319  0.7315  0.3434 -0.9467
 8700TIP3    H147515   1.883   1.817   1.244  0.4565  2.0853 -1.4987
 8700TIP3    H247516   1.775   1.747   1.325  1.4746 -0.2051 -2.0261
 8701TIP3   OH247517   5.837   1.360   1.833 -0.0753  0.2781  0.1994
 8701TIP3    H147518   5.757   1.338   1.880 -1.1326 -0.8963 -1.9808
 8701TIP3    H247519   5.898   1.290   1.856 -0.1057  0.4510  0.8322
 8702TIP3   OH247520   3.131   2.007  15.749 -0.1588  0.6698 -0.7314
 8702TIP3    H147521   3.166   2.095  15.736  1.3586 -0.0472 -1.8752
 8702TIP3    H247522   3.083   1.988  15.669 -0.5833  0.4838 -0.4394
 8703TIP3   OH247523   1.060   5.092   6.140 -0.3386  0.6143  0.2384
 8703TIP3    H147524   1.005   5.076   6.217  0.0176  1.8135  0.7620
 8703TIP3    H247525   1.095   5.180   6.153  0.9657  0.2391 -0.5529
 8704TIP3   OH247526   0.623   2.564  12.013 -0.4218  0.1804 -0.5128
 8704TIP3    H147527   0.597   2.494  12.074  0.8434 -0.3659 -0.5639
 8704TIP3    H247528   0.718   2.569  12.022 -0.3972  1.2519 -1.2264
 8705TIP3   OH247529   1.238   4.788  15.796 -0.0697  0.7039  0.6653
 8705TIP3    H147530   1.151   4.830  15.799 -0.2746  0.2650  0.8760
 8705TIP3    H247531   1.240   4.745  15.711 -0.3789  0.0353  0.9906
 8706TIP3   OH247532   5.008   1.283  12.173  0.1919  0.4326  0.8633
 8706TIP3    H147533   5.085   1.302  12.120  0.4629  0.7136  1.3540
 8706TIP3    H247534   4.955   1.362  12.168 -0.3506  0.0314  0.0517
 8707TIP3   OH247535   4.632   5.816  11.610  0.0931 -0.6687  0.0817
 8707TIP3    H147536   4.595   5.897  11.644  1.0928 -0.0167 -0.3568
 8707TIP3    H247537   4.586   5.747  11.657 -0.2788  0.1620  0.9568
 8708TIP3   OH247538   6.393   4.055   5.824  0.1126  0.2731 -0.0199
 8708TIP3    H147539   6.299   4.059   5.843  0.0902  0.4237 -0.1631
 8708TIP3    H247540   6.427   3.989   5.885  0.0821  0.9250  0.7163
 8709TIP3   OH247541   5.966   0.304   3.072  0.0161 -0.2573 -0.6398
 8709TIP3    H147542   6.047   0.352   3.087  1.1348 -1.6069 -1.9394
 8709TIP3    H247543   5.935   0.335   2.986 -0.6838  0.0283 -0.2922
 8710TIP3   OH247544   4.838   2.143  14.439  0.0563  0.2284 -0.0634
 8710TIP3    H147545   4.868   2.145  14.348  0.8749  1.1170  0.2108
 8710TIP3    H247546   4.881   2.218  14.480  0.1987 -0.5292  1.2192
 8711TIP3   OH247547   2.141   6.405  11.814  0.0761  0.2255 -0.1179
 8711TIP3    H147548   2.187   6.333  11.770  0.4823  0.4221 -0.0280
 8711TIP3    H247549   2.084   6.363  11.877 -0.3300 -0.0534 -0.6610
 8712TIP3   OH247550   4.907   2.920   5.109  0.1364 -0.2970 -0.3813
 8712TIP3    H147551   4.857   2.991   5.069  0.5263 -0.9379 -2.0940
 8712TIP3    H247552   4.992   2.923   5.064  0.2358 -1.7012 -0.3253
 8713TIP3   OH247553   2.314   1.075  12.039 -0.2364  0.0368 -0.5446
 8713TIP3    H147554   2.231   1.053  12.082  0.1660 -1.3481 -0.4149
 8713TIP3    H247555   2.302   1.050  11.948  0.1615 -0.5529 -0.4431
 8714TIP3   OH247556   6.356   1.945  11.229  0.0422 -0.3716 -0.2621
 8714TIP3    H147557   6.287   1.988  11.280 -0.2439 -1.1721  0.0414
 8714TIP3    H247558   6.370   1.862  11.274  0.7499 -0.4957 -0.7056
 8715TIP3   OH247559   4.837   1.190  14.996  0.6805 -0.0936 -0.9139
 8715TIP3    H147560   4.900   1.253  14.962  1.2235 -0.4070 -0.4964
 8715TIP3    H247561   4.856   1.185  15.090  1.4308 -1.7642 -1.1293
 8716TIP3   OH247562   1.550   0.949   5.480 -0.2692  0.0192 -0.0337
 8716TIP3    H147563   1.479   1.006   5.509  0.0619  0.5936 -0.3240
 8716TIP3    H247564   1.630   0.999   5.497  0.0028 -0.1723 -0.7061
 8717TIP3   OH247565   0.551   3.971   6.737  0.6519  0.0987 -0.4386
 8717TIP3    H147566   0.637   3.932   6.719  0.5057 -1.2454  1.4519
 8717TIP3    H247567   0.504   3.903   6.786 -1.7062  0.6040 -1.8816
 8718TIP3   OH247568   6.583   0.325   5.733  0.3730 -0.3338  0.3773
 8718TIP3    H147569   6.631   0.325   5.650 -1.4682 -2.2593 -0.7909
 8718TIP3    H247570   6.593   0.237   5.768 -0.2481 -0.0315  1.3799
 8719TIP3   OH247571   5.434   3.044  15.078  0.0066 -0.6098 -0.1479
 8719TIP3    H147572   5.484   3.112  15.123  1.0334 -0.2729 -1.7082
 8719TIP3    H247573   5.485   2.965  15.089  0.4398 -0.4574 -0.9564
 8720TIP3   OH247574   2.888   4.980   5.386  0.2291  0.3129  0.3035
 8720TIP3    H147575   2.913   4.892   5.416  0.3919  0.4561  0.5919
 8720TIP3    H247576   2.887   5.033   5.466  0.1086  0.5702  0.1333
 8721TIP3   OH247577   1.001   3.328   4.147  0.0737  0.4745  0.8304
 8721TIP3    H147578   0.946   3.253   4.129  0.1461  0.8197 -0.9770
 8721TIP3    H247579   1.083   3.310   4.100  0.0701  1.6855  0.3237
 8722TIP3   OH247580   1.730   0.497   0.104  0.2940  0.5332  0.0437
 8722TIP3    H147581   1.695   0.419   0.146  1.5033  0.1288  0.3432
 8722TIP3    H247582   1.674   0.568   0.134  1.6506  0.4243  3.2104
 8723TIP3   OH247583   4.921   4.296  15.828  0.2560  0.1809  0.4748
 8723TIP3    H147584   4.976   4.358  15.875 -0.2713  0.9556  0.0798
 8723TIP3    H247585   4.918   4.329  15.738 -0.5807 -0.0405  0.4123
 8724TIP3   OH247586   6.152   3.680   2.605  0.3613  0.0226  0.4684
 8724TIP3    H147587   6.155   3.699   2.512 -0.6340 -0.7869  0.2572
 8724TIP3    H247588   6.244   3.676   2.632  0.6568  2.0583 -0.0722
 8725TIP3   OH247589   3.314   3.301  16.426  0.2405  0.1671  0.0360
 8725TIP3    H147590   3.220   3.283  16.423  0.0825  1.0206 -1.2268
 8725TIP3    H247591   3.352   3.242  16.361  0.7138 -0.7717  1.1345
 8726TIP3   OH247592   6.271   6.265  15.161  0.2401  0.0321 -0.2364
 8726TIP3    H147593   6.229   6.329  15.104  0.8306  0.9617  0.3367
 8726TIP3    H247594   6.206   6.244  15.227 -0.6745 -1.5277 -1.5590
 8727TIP3   OH247595   4.049   2.272  13.429  0.1341 -0.2138 -0.6325
 8727TIP3    H147596   3.982   2.262  13.497  0.3880  0.5413 -0.2575
 8727TIP3    H247597   4.088   2.358  13.446 -0.9001  0.7391 -2.7022
 8728TIP3   OH247598   0.655   1.619  11.579  0.1244 -0.4625  0.2449
 8728TIP3    H147599   0.688   1.529  11.573  1.7551 -0.0021  1.4785
 8728TIP3    H247600   0.625   1.639  11.490  1.4904 -1.5951 -0.5312
 8729TIP3   OH247601   3.996   0.876   2.749 -0.3445 -1.1748 -0.3611
 8729TIP3    H147602   4.012   0.899   2.658  1.2492  0.6646  0.3122
 8729TIP3    H247603   4.067   0.816   2.771 -0.5573 -1.3856 -0.2501
 8730TIP3   OH247604   2.712   1.535  14.719 -0.4772 -0.5536 -0.2558
 8730TIP3    H147605   2.785   1.533  14.657 -1.2908 -1.4329 -1.2128
 8730TIP3    H247606   2.697   1.444  14.743  1.4604 -0.1113  3.2996
 8731TIP3   OH247607   3.619   2.619   4.369  0.1046  0.0066 -0.5630
 8731TIP3    H147608   3.557   2.628   4.296  0.9514  2.7168 -1.0627
 8731TIP3    H247609   3.679   2.550   4.341 -2.0733 -2.0798 -0.4399
 8732TIP3   OH247610   5.668   0.929  15.672  0.3602  0.5048  0.6207
 8732TIP3    H147611   5.718   0.887  15.742 -0.7616 -0.0076  1.1429
 8732TIP3    H247612   5.624   1.002  15.715 -0.0749  0.3865  0.3787
 8733TIP3   OH247613   6.175   3.097  11.152  0.3167 -0.2935  0.2320
 8733TIP3    H147614   6.200   3.185  11.122  1.7822 -0.2196  1.5313
 8733TIP3    H247615   6.250   3.042  11.130  1.0329 -0.4294  2.6887
 8734TIP3   OH247616   4.017   6.428   5.824 -0.5865 -0.1899  0.4666
 8734TIP3    H147617   4.069   6.492   5.872 -2.1232  1.2343  0.3210
 8734TIP3    H247618   3.963   6.387   5.892  0.1900 -1.1565  0.5163
 8735TIP3   OH247619   3.046   3.649   3.190 -0.0609 -0.0372  0.1238
 8735TIP3    H147620   3.037   3.580   3.256 -2.5514 -0.0922 -0.1771
 8735TIP3    H247621   2.972   3.635   3.130  0.4233  1.8090 -0.9915
 8736TIP3   OH247622   0.010   5.197  11.744 -0.1315 -0.2204 -0.0395
 8736TIP3    H147623   0.004   5.265  11.678 -1.7058 -0.1380  0.1678
 8736TIP3    H247624  -0.054   5.131  11.717  1.1859 -1.5286 -0.1075
 8737TIP3   OH247625   5.920   2.991   2.778  0.2851 -0.0450 -0.1563
 8737TIP3    H147626   5.998   2.942   2.804  0.1444 -0.4583 -0.5007
 8737TIP3    H247627   5.947   3.083   2.783  1.0843 -0.1987 -1.1483
 8738TIP3   OH247628   6.654   5.689  11.809  0.1297 -0.3827 -0.5349
 8738TIP3    H147629   6.587   5.622  11.795  0.6013 -0.5963 -1.9330
 8738TIP3    H247630   6.624   5.763  11.756  0.9579 -0.4672 -1.1425
 8739TIP3   OH247631   0.536   6.376  11.654  0.4441 -0.0234  0.2518
 8739TIP3    H147632   0.504   6.337  11.573 -2.2924  1.5057  0.4608
 8739TIP3    H247633   0.492   6.326  11.723 -0.5494  1.2745  0.6043
 8740TIP3   OH247634   3.496   6.395   1.925 -0.1631  0.4091 -0.4857
 8740TIP3    H147635   3.400   6.387   1.926 -0.1383  0.0431  1.1397
 8740TIP3    H247636   3.524   6.327   1.863 -1.0040  1.8864 -2.6290
 8741TIP3   OH247637   1.289   4.173  16.321 -0.5539  0.2417 -0.0878
 8741TIP3    H147638   1.224   4.120  16.368 -0.6235 -0.4071 -0.8991
 8741TIP3    H247639   1.240   4.251  16.293 -0.4007  0.8558  1.2851
 8742TIP3   OH247640   3.051   3.818  17.012 -0.4328  0.1121 -0.0823
 8742TIP3    H147641   3.026   3.804  17.104 -0.0434  1.2957  0.2168
 8742TIP3    H247642   3.085   3.907  17.010 -0.1548 -0.0126 -1.3280
 8743TIP3   OH247643   1.857   0.623  15.097 -0.0752 -0.5511 -0.0125
 8743TIP3    H147644   1.926   0.689  15.100 -0.1857 -0.4325 -0.0668
 8743TIP3    H247645   1.903   0.539  15.099  0.0262 -0.4829  1.1686
 8744TIP3   OH247646   3.882   0.691  16.510  0.1407 -0.5837  0.4552
 8744TIP3    H147647   3.871   0.735  16.426 -1.0689 -0.3017  0.7456
 8744TIP3    H247648   3.822   0.617  16.507 -0.1309 -0.4082  1.1672
 8745TIP3   OH247649   2.296   3.613   3.346 -0.2782  0.0203 -0.1252
 8745TIP3    H147650   2.222   3.618   3.286  0.0794 -2.0991 -0.8055
 8745TIP3    H247651   2.340   3.531   3.324  0.7159 -0.1031  2.0740
 8746TIP3   OH247652   3.455   2.296  14.493 -0.2293  0.2580 -0.3947
 8746TIP3    H147653   3.371   2.270  14.532 -1.0762  1.8476 -1.0407
 8746TIP3    H247654   3.432   2.326  14.405  0.8918  1.4473 -0.3084
 8747TIP3   OH247655   6.229   4.725  13.297 -0.1712  0.4636  0.0183
 8747TIP3    H147656   6.233   4.821  13.295  1.4393  0.4193 -0.1611
 8747TIP3    H247657   6.230   4.699  13.205 -0.3852  0.2624  0.0718
 8748TIP3   OH247658   2.205   1.407   3.743 -0.0305 -0.6440 -0.6371
 8748TIP3    H147659   2.202   1.322   3.786  0.4782 -0.6855 -0.6826
 8748TIP3    H247660   2.153   1.395   3.663 -0.1396 -0.8478 -0.5364
 8749TIP3   OH247661   0.663   5.964  13.308 -0.0040  0.4027 -0.3417
 8749TIP3    H147662   0.740   6.011  13.276 -0.2388  1.4754  0.6144
 8749TIP3    H247663   0.626   5.922  13.230  1.3011  0.1982 -0.8857
 8750TIP3   OH247664   5.916   2.775  10.674 -0.0106  0.2510  0.4916
 8750TIP3    H147665   5.981   2.733  10.619 -0.2289 -0.7468  0.9751
 8750TIP3    H247666   5.833   2.763  10.628 -0.5990 -2.7294  2.0824
 8751TIP3   OH247667   5.319   0.251   3.323  0.1205 -0.2107  0.1957
 8751TIP3    H147668   5.281   0.291   3.401 -0.9871 -0.4289 -0.2013
 8751TIP3    H247669   5.395   0.202   3.355  0.1941  0.4056  0.9993
 8752TIP3   OH247670   1.966   0.496   1.085 -0.1265 -0.2350  0.2638
 8752TIP3    H147671   1.944   0.515   0.994 -0.0428  0.6679  0.4278
 8752TIP3    H247672   2.060   0.511   1.091 -0.3328  0.9279  0.7876
 8753TIP3   OH247673   2.681   6.743   2.611 -0.0165  0.1407 -0.0352
 8753TIP3    H147674   2.659   6.685   2.538  0.1374  0.7497 -0.5794
 8753TIP3    H247675   2.652   6.696   2.689 -1.7543  0.1991 -0.6032
 8754TIP3   OH247676   5.028   0.130   3.576  0.0362  0.1688 -0.6117
 8754TIP3    H147677   4.973   0.054   3.556 -0.2096  0.2997 -0.4416
 8754TIP3    H247678   5.117   0.096   3.572  0.0948  0.4765 -3.2312
 8755TIP3   OH247679   3.938   1.353  14.581  0.3950 -0.0683  0.4647
 8755TIP3    H147680   3.885   1.431  14.565  0.5584 -0.1255 -0.4206
 8755TIP3    H247681   3.889   1.303  14.646 -0.1326  0.3599  0.4057
 8756TIP3   OH247682   0.973   0.664   1.169  0.4214 -0.1122 -0.1023
 8756TIP3    H147683   1.005   0.575   1.154 -1.6194 -0.6257 -1.7803
 8756TIP3    H247684   0.959   0.668   1.264  0.2884 -1.6656 -0.0304
 8757TIP3   OH247685   0.572   1.632  13.417  0.0943  0.1880 -0.0086
 8757TIP3    H147686   0.481   1.644  13.445  0.4437 -0.8751  1.7639
 8757TIP3    H247687   0.578   1.540  13.393  0.4881  0.4789 -1.0691
 8758TIP3   OH247688   0.168   5.331   0.452  0.0270 -0.5785 -0.1564
 8758TIP3    H147689   0.234   5.385   0.407 -0.1389  0.2218  0.5360
 8758TIP3    H247690   0.181   5.350   0.545 -1.2750 -0.2980 -0.0196
 8759TIP3   OH247691   3.496   6.499   2.259  0.0448 -0.1362  0.3241
 8759TIP3    H147692   3.475   6.412   2.226  1.5727  0.0643 -1.3166
 8759TIP3    H247693   3.541   6.483   2.342  0.1078 -0.9092  0.1454
 8760TIP3   OH247694   0.900   3.905   3.518 -0.6123 -0.9453 -0.1225
 8760TIP3    H147695   0.991   3.916   3.547 -0.9108  0.3652  0.3959
 8760TIP3    H247696   0.859   3.855   3.589 -0.8792  0.6296  0.8843
 8761TIP3   OH247697   3.978   6.192   5.416 -0.1748  0.0578  0.0525
 8761TIP3    H147698   3.921   6.115   5.413  0.4308 -0.6022  2.7819
 8761TIP3    H247699   4.055   6.167   5.366 -1.0406 -0.1004 -1.2613
 8762TIP3   OH247700   3.345   6.770  12.818 -0.3912  0.7105 -0.0677
 8762TIP3    H147701   3.355   6.850  12.868 -1.6970  2.5583 -2.5564
 8762TIP3    H247702   3.388   6.787  12.734  0.3038 -1.6529 -0.2928
 8763TIP3   OH247703   0.062   1.763  12.225 -0.3875 -0.2347 -0.1787
 8763TIP3    H147704   0.100   1.848  12.247 -3.0183  0.7217  1.1611
 8763TIP3    H247705   0.089   1.706  12.297  0.0157 -0.0710 -0.1973
 8764TIP3   OH247706   6.655   3.285  11.926 -0.1544  0.2776 -0.0944
 8764TIP3    H147707   6.621   3.197  11.940  1.4230 -0.6611 -1.7172
 8764TIP3    H247708   6.645   3.300  11.832  0.5028  1.4237 -0.0051
 8765TIP3   OH247709   0.877   0.141   3.620  0.1023 -0.4059  0.3140
 8765TIP3    H147710   0.896   0.107   3.532  1.3661 -1.4115  0.9329
 8765TIP3    H247711   0.782   0.147   3.624  0.0351 -0.0952 -1.2108
 8766TIP3   OH247712   1.387   4.969  15.422 -0.5565 -0.3597  0.6406
 8766TIP3    H147713   1.453   5.001  15.483  0.3201  1.6376 -1.1952
 8766TIP3    H247714   1.311   5.025  15.436 -1.8760 -2.4710  2.5507
 8767TIP3   OH247715   4.138   4.887   1.375  0.0528 -0.3782  0.2587
 8767TIP3    H147716   4.141   4.798   1.408 -0.7616 -0.6262 -0.2925
 8767TIP3    H247717   4.154   4.879   1.281 -1.9960 -0.2096 -0.1659
 8768TIP3   OH247718   0.876   5.709  11.485 -0.0255  0.0754  0.2908
 8768TIP3    H147719   0.882   5.622  11.444  3.8029 -0.0415  0.7225
 8768TIP3    H247720   0.923   5.700  11.568 -0.7081  2.2540  0.9823
 8769TIP3   OH247721   5.569   1.084   4.784  0.0086 -0.1939  0.5109
 8769TIP3    H147722   5.581   1.160   4.728  0.8445  0.0446  1.0091
 8769TIP3    H247723   5.657   1.049   4.798 -0.4241 -1.7832 -0.4341
 8770TIP3   OH247724   5.336   0.430  15.006  0.9167 -0.2669 -0.5570
 8770TIP3    H147725   5.427   0.424  14.979  0.9527 -0.7969 -0.3449
 8770TIP3    H247726   5.291   0.361  14.957  0.8380 -0.7207  0.1325
 8771TIP3   OH247727   4.080   3.110  11.335  0.0291 -0.1541  0.0053
 8771TIP3    H147728   4.155   3.051  11.325  1.1899  1.1684  0.5938
 8771TIP3    H247729   4.055   3.132  11.246  0.4656 -0.4634 -0.1990
 8772TIP3   OH247730   2.980   1.395   2.144  0.2963  0.5152  0.1033
 8772TIP3    H147731   3.042   1.365   2.210  1.0864  0.8316 -0.4763
 8772TIP3    H247732   2.961   1.317   2.091  0.0595  0.3824  0.3754
 8773TIP3   OH247733   2.332   3.221   0.929  0.4683  1.0401 -0.6048
 8773TIP3    H147734   2.410   3.208   0.876  0.6134 -0.6937 -0.0499
 8773TIP3    H247735   2.289   3.135   0.930 -0.2552  1.3748  0.9047
 8774TIP3   OH247736   2.030   1.068   2.893  0.3206  0.2886 -0.5846
 8774TIP3    H147737   2.037   1.045   2.800  3.4284  1.7096 -0.8246
 8774TIP3    H247738   1.992   1.156   2.893  0.4332  0.3368 -0.5031
 8775TIP3   OH247739   6.332   6.695   3.183 -0.0896  0.1852  0.2573
 8775TIP3    H147740   6.377   6.614   3.158 -1.8641 -0.9836  0.6461
 8775TIP3    H247741   6.366   6.717   3.269  1.6175  0.8278 -0.5378
 8776TIP3   OH247742   5.941   2.785   6.051  0.3440  0.1894  0.1062
 8776TIP3    H147743   6.003   2.713   6.063  1.1282  0.7428 -0.5350
 8776TIP3    H247744   5.855   2.743   6.058  0.7770 -0.6016  0.9371
 8777TIP3   OH247745   6.111   2.856   3.688  0.1512  0.0043  0.3125
 8777TIP3    H147746   6.150   2.779   3.728  5.1974  2.1796  0.3727
 8777TIP3    H247747   6.138   2.851   3.596  0.6603  1.6148  0.3375
 8778TIP3   OH247748   0.753   6.114   1.880 -0.2861  0.0178  0.0141
 8778TIP3    H147749   0.727   6.058   1.953 -3.0850  2.3783  1.0278
 8778TIP3    H247750   0.807   6.183   1.919 -0.1333  0.1984 -0.5039
 8779TIP3   OH247751   1.859   2.143  13.136 -0.5400 -0.6017  0.5658
 8779TIP3    H147752   1.788   2.081  13.152 -0.4007 -0.5670  1.3761
 8779TIP3    H247753   1.870   2.189  13.220  1.2097 -1.4072  0.8162
 8780TIP3   OH247754   6.327   4.295  12.726 -0.4263 -0.0984 -0.3561
 8780TIP3    H147755   6.296   4.216  12.681 -0.4436 -2.2671  3.0266
 8780TIP3    H247756   6.248   4.334  12.763 -0.2275  0.5728 -0.6211
 8781TIP3   OH247757   4.376   1.781  12.864 -0.5832 -0.1542 -0.5362
 8781TIP3    H147758   4.291   1.742  12.847 -0.4170 -1.2803  0.9965
 8781TIP3    H247759   4.439   1.712  12.844 -0.1439  0.0414  0.1326
 8782TIP3   OH247760   1.368   4.626   0.944  0.0916 -0.2006  0.0686
 8782TIP3    H147761   1.390   4.638   1.036 -1.7936 -0.4968  0.6037
 8782TIP3    H247762   1.451   4.603   0.902  0.8783 -0.6967  1.8107
 8783TIP3   OH247763   6.039   0.025  16.254  0.0463  0.0635 -0.1056
 8783TIP3    H147764   6.039  -0.059  16.208 -0.3895 -0.0840  0.1508
 8783TIP3    H247765   5.950   0.059  16.242 -0.0459  0.0674  0.5385
 8784TIP3   OH247766   1.913   4.567  12.323 -0.3077 -0.4895 -0.4341
 8784TIP3    H147767   2.004   4.571  12.352 -0.1652  1.1758 -0.9906
 8784TIP3    H247768   1.920   4.565  12.227 -0.7928  3.8552 -0.7588
 8785TIP3   OH247769   0.299   2.038  11.106  0.1751 -0.4748 -0.1319
 8785TIP3    H147770   0.303   1.946  11.080 -2.1205 -0.0668 -2.1937
 8785TIP3    H247771   0.341   2.085  11.034  0.5735  0.2004  0.5204
 8786TIP3   OH247772   1.715   1.396  15.031 -0.0666  0.6912 -0.1678
 8786TIP3    H147773   1.642   1.334  15.026  0.3070  0.3798 -2.4818
 8786TIP3    H247774   1.783   1.359  14.974  0.2857  3.0562 -1.3935
 8787TIP3   OH247775   5.409   2.440  13.235  0.2592 -0.2220 -0.0887
 8787TIP3    H147776   5.501   2.463  13.226  0.0179  1.0818  0.4488
 8787TIP3    H247777   5.375   2.442  13.146  0.6740 -0.3268 -0.2489
 8788TIP3   OH247778   0.122   3.527   3.333  0.0071  0.5293 -0.5056
 8788TIP3    H147779   0.028   3.540   3.327 -0.5203 -1.5050  1.8721
 8788TIP3    H247780   0.146   3.488   3.248 -1.7397 -1.0668 -0.3286
 8789TIP3   OH247781   3.090   3.832   3.424 -0.2981  0.2227  0.3018
 8789TIP3    H147782   3.159   3.886   3.386  0.7686 -1.9747 -1.0925
 8789TIP3    H247783   3.075   3.763   3.359 -0.9484 -1.6533  2.3164
 8790TIP3   OH247784   3.326   0.724  15.370 -0.2844 -0.1869  0.0217
 8790TIP3    H147785   3.293   0.727  15.460  0.9176 -1.2286  0.5365
 8790TIP3    H247786   3.273   0.787  15.322  0.4203  1.9533  1.9113
 8791TIP3   OH247787   1.936   5.345  12.416  0.1789 -0.4954 -0.2634
 8791TIP3    H147788   1.971   5.413  12.473 -0.3489 -1.9438  1.9132
 8791TIP3    H247789   1.857   5.383  12.377  0.4220  0.4516  0.1632
 8792TIP3   OH247790   0.811   1.366  11.420 -0.0056  0.5763 -0.6670
 8792TIP3    H147791   0.895   1.325  11.399  0.9468  1.3582  1.3770
 8792TIP3    H247792   0.818   1.455  11.386  0.4263  0.9654  0.4123
 8793TIP3   OH247793   2.277   1.770  10.971 -0.0470 -0.3387  0.2375
 8793TIP3    H147794   2.326   1.820  10.906 -0.3630  0.7529  0.8066
 8793TIP3    H247795   2.290   1.817  11.053 -3.1525  0.8993  0.1863
 8794TIP3   OH247796   3.383   4.340   6.352 -0.1774 -0.1718  0.1474
 8794TIP3    H147797   3.306   4.392   6.333  0.7222  0.9034 -0.7125
 8794TIP3    H247798   3.380   4.268   6.290 -0.4423 -0.0811  0.0579
 8795TIP3   OH247799   2.699   4.992   1.059  0.5059 -0.0739  0.0631
 8795TIP3    H147800   2.619   4.949   1.090 -0.1663  1.8444  1.1451
 8795TIP3    H247801   2.673   5.035   0.977  0.2910  0.8590  0.6046
 8796TIP3   OH247802   1.447   2.134  14.321  0.0609 -0.1034 -0.1424
 8796TIP3    H147803   1.402   2.093  14.248 -1.4328 -0.6309  1.0087
 8796TIP3    H247804   1.451   2.065  14.388  0.3042  0.7227  0.7093
 8797TIP3   OH247805   4.716   1.541  10.992 -0.3536 -0.1806 -0.3382
 8797TIP3    H147806   4.708   1.457  11.037  1.4422 -1.8694 -2.9139
 8797TIP3    H247807   4.625   1.566  10.973 -0.9272 -2.2582 -0.6771
 8798TIP3   OH247808   2.694   2.229   4.253  0.4261 -0.4581 -0.6225
 8798TIP3    H147809   2.701   2.311   4.204 -0.3410 -0.1531 -0.2336
 8798TIP3    H247810   2.750   2.168   4.205 -0.3574 -0.1840 -1.9237
 8799TIP3   OH247811   1.516   1.252  10.681 -0.4249 -0.5107  0.2513
 8799TIP3    H147812   1.515   1.342  10.648 -1.2605 -0.7776 -0.5002
 8799TIP3    H247813   1.608   1.235  10.703  0.1869 -0.2745 -1.9045
 8800TIP3   OH247814   4.141   5.159   1.406 -0.6964 -0.0977 -0.2972
 8800TIP3    H147815   4.235   5.160   1.423 -0.9510 -0.1991  1.3546
 8800TIP3    H247816   4.122   5.069   1.382 -0.3151  0.0205 -1.0710
 8801TIP3   OH247817   4.052   1.328  14.992 -0.4518 -0.0428 -0.3636
 8801TIP3    H147818   3.973   1.283  15.022  1.2756 -2.2135  1.2657
 8801TIP3    H247819   4.065   1.299  14.902  0.2239 -2.3903  0.4238
 8802TIP3   OH247820   2.998   2.412   0.824  0.3669  0.8750 -0.0502
 8802TIP3    H147821   2.913   2.386   0.858  0.1471  1.6385  0.0113
 8802TIP3    H247822   2.978   2.461   0.744  0.6649  1.9808  0.5251
 8803TIP3   OH247823   0.598   5.141  16.619  0.4229 -0.1741 -0.1584
 8803TIP3    H147824   0.657   5.201  16.574  0.9512 -0.2177  0.4546
 8803TIP3    H247825   0.630   5.140  16.709  1.2462 -2.3653 -0.4163
 8804TIP3   OH247826   0.872   6.330  11.400  0.3070  0.0016  0.2983
 8804TIP3    H147827   0.851   6.330  11.307 -1.1607  3.1302  0.4796
 8804TIP3    H247828   0.845   6.244  11.432 -2.4265  0.0690 -1.5543
 8805TIP3   OH247829   0.006   3.064  13.733  0.4231  0.3405 -0.1276
 8805TIP3    H147830   0.096   3.037  13.716  0.6131  0.8446  0.0417
 8805TIP3    H247831  -0.011   3.037  13.823  1.1258  2.0427  0.5794
 8806TIP3   OH247832   4.485   0.387   1.187  0.1562  0.8643  0.6617
 8806TIP3    H147833   4.516   0.446   1.255 -0.1465  3.2226 -1.1089
 8806TIP3    H247834   4.417   0.437   1.141  0.3114 -0.6167 -1.3187
 8807TIP3   OH247835   4.715   1.837  10.776  0.2386 -0.5502  0.1741
 8807TIP3    H147836   4.667   1.830  10.693  3.0187 -2.9135 -1.4249
 8807TIP3    H247837   4.793   1.887  10.754  1.6250 -2.2439  0.9979
 8808TIP3   OH247838   0.366   0.010   5.692  0.1439  0.2995 -0.3543
 8808TIP3    H147839   0.333   0.095   5.665  2.1880  0.7513 -1.6710
 8808TIP3    H247840   0.348   0.005   5.786 -1.6509  1.3594 -0.6023
 8809TIP3   OH247841   4.202   1.603   5.467  0.5391  0.2467  0.1141
 8809TIP3    H147842   4.246   1.519   5.479  2.0535  1.1596  1.5134
 8809TIP3    H247843   4.266   1.656   5.419 -0.3299  0.6655 -0.6134
 8810TIP3   OH247844   0.825   1.367  13.199  0.2210  0.1715  0.2640
 8810TIP3    H147845   0.857   1.403  13.281  0.9025  0.7065 -0.2204
 8810TIP3    H247846   0.787   1.282  13.223  2.3215 -0.6766  0.8638
 8811TIP3   OH247847   0.157   1.811   5.702  0.0484  0.4995  0.3546
 8811TIP3    H147848   0.251   1.825   5.705  0.1739 -0.5202  1.6877
 8811TIP3    H247849   0.123   1.855   5.780 -0.6681  1.3472 -0.4109
 8812TIP3   OH247850   0.836   5.914  16.173  0.0678 -0.4746 -0.1504
 8812TIP3    H147851   0.883   5.896  16.092 -0.2988 -1.8936 -0.0897
 8812TIP3    H247852   0.826   6.009  16.175  1.9194 -0.2174 -0.7148
 8813TIP3   OH247853   6.162   3.815  15.831 -0.1447  0.1279  0.5629
 8813TIP3    H147854   6.174   3.722  15.851  2.6905 -0.0599 -1.4268
 8813TIP3    H247855   6.246   3.843  15.795 -2.0339  2.4658 -2.5497
 8814TIP3   OH247856   5.748   6.290  16.797  0.3409 -0.0183  0.0489
 8814TIP3    H147857   5.716   6.207  16.763  0.4174 -0.2698  0.5791
 8814TIP3    H247858   5.844   6.281  16.795  0.4992  1.2703 -2.8959
 8815TIP3   OH247859   1.289   4.552  12.639  0.2872 -0.3997  0.2525
 8815TIP3    H147860   1.252   4.597  12.715 -0.7145 -1.1549  0.2348
 8815TIP3    H247861   1.382   4.573  12.641 -0.0352  1.1523  0.5976
 8816TIP3   OH247862   4.671   2.931   3.488 -0.7339 -0.6373 -0.8641
 8816TIP3    H147863   4.731   2.941   3.562 -0.5185 -0.3064 -1.0815
 8816TIP3    H247864   4.585   2.953   3.524 -0.4843  0.5323 -0.9562
 8817TIP3   OH247865   5.366   1.428   1.979  0.3952  0.2184 -0.3929
 8817TIP3    H147866   5.373   1.493   2.049  2.0927 -0.7574  0.4168
 8817TIP3    H247867   5.424   1.461   1.910 -1.0281  1.0158 -1.2520
 8818TIP3   OH247868   5.741   3.789  13.448  0.6831 -0.1636  0.1105
 8818TIP3    H147869   5.821   3.800  13.398  0.8233 -1.2773  0.0515
 8818TIP3    H247870   5.672   3.784  13.381  0.6339  0.2415  0.1311
 8819TIP3   OH247871   0.406   6.516  14.414  0.4170 -0.5900 -0.4228
 8819TIP3    H147872   0.488   6.538  14.371 -0.4828  1.3321 -1.2929
 8819TIP3    H247873   0.349   6.484  14.344  0.8628 -3.5359  0.4245
 8820TIP3   OH247874   5.820   6.214  13.035 -0.5270  0.2545  0.5622
 8820TIP3    H147875   5.780   6.127  13.037 -0.1179  0.0585  0.3187
 8820TIP3    H247876   5.913   6.198  13.020 -0.6336  0.7811 -0.8490
 8821TIP3   OH247877   3.982   5.111   0.260 -0.0443 -0.3273  0.0289
 8821TIP3    H147878   4.020   5.196   0.237 -2.0318  0.1065 -1.9991
 8821TIP3    H247879   3.893   5.114   0.223  0.0215 -3.5119 -0.6377
 8822TIP3   OH247880   3.421   2.058  11.553 -0.0160  0.0653  0.0348
 8822TIP3    H147881   3.363   2.077  11.479  0.3266  1.4347  0.0826
 8822TIP3    H247882   3.493   2.008  11.515 -0.4545 -0.3168 -0.3082
 8823TIP3   OH247883   3.441   2.145  12.314  0.3092  0.4582 -0.4027
 8823TIP3    H147884   3.419   2.100  12.396  3.1998  1.6657  1.1722
 8823TIP3    H247885   3.405   2.089  12.246 -0.1259 -1.8844  1.6190
 8824TIP3   OH247886   6.716   2.175  16.957  0.3570 -0.0557 -0.3744
 8824TIP3    H147887   6.699   2.119  16.881  0.8201  1.3310 -1.5534
 8824TIP3    H247888   6.631   2.184  17.000 -0.1069 -0.1409 -1.2578
 8825TIP3   OH247889   3.512   6.160   1.779  0.0716 -0.5643 -0.2970
 8825TIP3    H147890   3.571   6.085   1.793  1.4473  0.4512 -0.4057
 8825TIP3    H247891   3.529   6.186   1.688  0.5401  0.6248  0.1117
 8826TIP3   OH247892   0.590   5.097  15.966  0.2038  0.4614 -0.3188
 8826TIP3    H147893   0.672   5.112  16.015  0.0221 -1.7401  0.7559
 8826TIP3    H247894   0.594   5.005  15.940 -1.4869  0.6001 -1.1676
 8827TIP3   OH247895   1.294   4.206   5.721 -0.0027  0.3720  0.4541
 8827TIP3    H147896   1.344   4.145   5.776 -0.8818 -0.8702 -0.0847
 8827TIP3    H247897   1.224   4.153   5.684  1.1422  0.8944 -2.7408
 8828TIP3   OH247898   6.375   1.778   1.061 -0.3708 -0.2618  0.5259
 8828TIP3    H147899   6.366   1.778   1.156  1.5107  1.1152  0.7582
 8828TIP3    H247900   6.456   1.731   1.044 -0.4696 -0.1300 -0.3660
 8829TIP3   OH247901   0.074   0.517  13.084  0.0949 -0.0769 -0.1105
 8829TIP3    H147902   0.158   0.562  13.074 -1.0100  2.8769  2.1021
 8829TIP3    H247903   0.095   0.424  13.080  3.4351  0.5421  0.1321
 8830TIP3   OH247904   1.711   0.351  11.650 -1.0903  0.2586 -0.4759
 8830TIP3    H147905   1.746   0.345  11.738 -0.2400  1.3505 -0.7178
 8830TIP3    H247906   1.685   0.261  11.628 -0.5584 -0.1624  0.5637
 8831TIP3   OH247907   2.834   5.480  15.062  0.2963 -0.3831  0.0589
 8831TIP3    H147908   2.905   5.519  15.012  0.6099 -0.2703  0.5917
 8831TIP3    H247909   2.822   5.538  15.138 -0.9438  0.0923 -0.4668
 8832TIP3   OH247910   6.262   5.170   5.491 -0.2682  0.0090 -0.3706
 8832TIP3    H147911   6.292   5.158   5.401 -0.2117 -0.9581 -0.2280
 8832TIP3    H247912   6.338   5.205   5.538  0.2729 -1.1886 -0.3056
 8833TIP3   OH247913   0.111   0.126  14.609 -0.5880  0.2000  0.3276
 8833TIP3    H147914   0.118   0.126  14.513 -2.1892  1.5615  0.1550
 8833TIP3    H247915   0.192   0.169  14.638  0.5747 -1.4676 -0.2934
 8834TIP3   OH247916   5.844   5.439   3.730 -0.1296 -0.3803  0.0628
 8834TIP3    H147917   5.875   5.368   3.673 -0.3171 -0.9130  0.6147
 8834TIP3    H247918   5.776   5.399   3.784  0.1150  0.0880  0.7333
 8835TIP3   OH247919   5.802   2.523   4.145 -1.0500 -0.0812 -0.2339
 8835TIP3    H147920   5.733   2.545   4.208 -0.4599  1.8429 -0.1907
 8835TIP3    H247921   5.757   2.517   4.061 -1.3463  0.8743 -0.1594
 8836TIP3   OH247922   0.658   0.398   2.366 -0.2372  0.6667  0.4221
 8836TIP3    H147923   0.727   0.373   2.304  0.3615  1.2338  0.8534
 8836TIP3    H247924   0.614   0.315   2.386 -0.3583  0.4508 -0.6500
 8837TIP3   OH247925   0.518   0.451  13.089 -0.0939 -0.1936  0.5004
 8837TIP3    H147926   0.530   0.514  13.017  2.7087 -0.4617  0.6411
 8837TIP3    H247927   0.456   0.494  13.147 -0.0535  1.4111 -0.5573
 8838TIP3   OH247928   4.388   2.879   3.157  0.2164 -0.1287 -1.0621
 8838TIP3    H147929   4.350   2.951   3.106 -1.6723  0.1111  0.5469
 8838TIP3    H247930   4.341   2.881   3.241  0.9961 -2.4547 -0.4766
 8839TIP3   OH247931   3.912   4.136  13.427 -0.4265  0.8452  0.0005
 8839TIP3    H147932   3.964   4.081  13.486  0.5374  1.3223 -0.3737
 8839TIP3    H247933   3.832   4.155  13.476 -0.3046 -0.0012  0.5510
 8840TIP3   OH247934   4.139   6.146  16.347 -0.0315  0.0341  0.4036
 8840TIP3    H147935   4.213   6.101  16.306  1.8838  1.3431  2.1848
 8840TIP3    H247936   4.160   6.239  16.338 -2.2293  0.5256 -0.2872
 8841TIP3   OH247937   0.279   1.558   5.162  0.1641 -0.7190 -0.4511
 8841TIP3    H147938   0.373   1.568   5.180  0.0237 -1.4763  0.8147
 8841TIP3    H247939   0.272   1.565   5.067  1.3247  0.6892 -0.4617
 8842TIP3   OH247940   3.062   2.817  12.386  0.0149  0.5660  0.2703
 8842TIP3    H147941   3.109   2.864  12.317  0.2303  1.1263  0.7910
 8842TIP3    H247942   3.114   2.738  12.401 -0.5758 -0.0644 -0.9016
 8843TIP3   OH247943   6.647   3.636   6.540  0.1320 -0.2607 -0.6197
 8843TIP3    H147944   6.587   3.563   6.555 -1.3366  1.0221  0.1206
 8843TIP3    H247945   6.708   3.633   6.614  1.2916 -1.8299 -1.5991
 8844TIP3   OH247946   2.779   5.255  14.184  0.1949  0.0116  0.0886
 8844TIP3    H147947   2.820   5.312  14.250 -1.5310  0.7776  0.5627
 8844TIP3    H247948   2.705   5.306  14.151  0.6983 -0.5780 -2.1024
 8845TIP3   OH247949   1.076   6.439   1.670  0.0077  0.0483 -0.0174
 8845TIP3    H147950   1.161   6.444   1.714  0.2559  0.2263 -0.5102
 8845TIP3    H247951   1.095   6.459   1.579 -0.4817 -0.4786 -0.2377
 8846TIP3   OH247952   0.179   3.175  14.839 -0.2888 -0.2531  0.2255
 8846TIP3    H147953   0.100   3.228  14.841 -1.0631 -1.2724 -1.3278
 8846TIP3    H247954   0.197   3.155  14.931 -1.5086  0.4541  0.6312
 8847TIP3   OH247955   2.187   5.992   2.238  0.6491 -0.5588  0.2842
 8847TIP3    H147956   2.228   5.939   2.306  0.5691 -0.3042  0.5344
 8847TIP3    H247957   2.260   6.020   2.183  0.9294  0.5421  1.1789
 8848TIP3   OH247958   6.558   0.128   3.417  0.2773 -0.0760  0.3534
 8848TIP3    H147959   6.497   0.177   3.361  0.2026  0.1946  0.6715
 8848TIP3    H247960   6.515   0.044   3.431  0.2101 -0.0746  0.1575
 8849TIP3   OH247961   3.578   3.452  15.053 -0.3827 -0.3403 -0.4395
 8849TIP3    H147962   3.553   3.361  15.041  0.2021 -0.4675 -0.7095
 8849TIP3    H247963   3.566   3.468  15.147 -2.6135 -0.0453 -0.7175
 8850TIP3   OH247964   2.843   3.541  17.140 -0.1698  0.8046 -0.1276
 8850TIP3    H147965   2.753   3.518  17.163  0.2859  1.0146  2.0807
 8850TIP3    H247966   2.836   3.585  17.055 -1.8446 -1.2287 -1.1045
 8851TIP3   OH247967   4.023   2.195   5.862 -0.6149  0.5766  0.1773
 8851TIP3    H147968   3.949   2.149   5.823 -0.3545  0.0056  0.3419
 8851TIP3    H247969   4.100   2.147   5.831 -0.3595  0.6615  0.6597
 8852TIP3   OH247970   3.475   2.485  13.660 -0.1062  0.5459 -0.1219
 8852TIP3    H147971   3.382   2.494  13.682 -0.4030 -0.1109 -1.0365
 8852TIP3    H247972   3.512   2.571  13.678 -1.0605  1.0580 -0.5191
 8853TIP3   OH247973   1.419   6.528  10.290 -1.1357  0.0090  0.1577
 8853TIP3    H147974   1.509   6.511  10.262 -0.5928  1.4750  0.9201
 8853TIP3    H247975   1.426   6.604  10.347 -2.8826  0.1953  0.1600
 8854TIP3   OH247976   3.982   6.038   2.704  0.5733  0.3698 -0.4992
 8854TIP3    H147977   3.913   6.096   2.735 -0.0038 -1.2031  1.3502
 8854TIP3    H247978   3.948   6.001   2.623 -0.2546  0.4954 -0.2184
 8855TIP3   OH247979   1.339   4.656   3.216 -0.2604  0.2160 -0.0910
 8855TIP3    H147980   1.298   4.631   3.133  2.2971  0.3947 -1.5155
 8855TIP3    H247981   1.319   4.584   3.276 -4.0174  1.0739 -0.0699
 8856TIP3   OH247982   6.050   1.868  11.597 -0.2083 -0.0011  0.4072
 8856TIP3    H147983   6.016   1.937  11.540  3.1383  0.2379 -1.5341
 8856TIP3    H247984   6.058   1.791  11.540  0.8803 -0.4960  1.1931
 8857TIP3   OH247985   0.255   2.231   4.084  0.2468 -0.1518  0.3882
 8857TIP3    H147986   0.199   2.197   4.153 -2.5624 -0.1743 -1.7179
 8857TIP3    H247987   0.232   2.324   4.077  2.2318  0.4377  0.9714
 8858TIP3   OH247988   3.380   4.974  11.692 -0.0955 -0.2394  0.3691
 8858TIP3    H147989   3.321   5.010  11.626 -1.4153 -0.7477  1.2277
 8858TIP3    H247990   3.385   5.042  11.760 -0.6000 -0.6209  0.8071
 8859TIP3   OH247991   0.767   2.852   5.166 -0.2774 -0.6613  0.0717
 8859TIP3    H147992   0.678   2.826   5.145 -0.6742 -0.2716  1.1851
 8859TIP3    H247993   0.766   2.865   5.261  0.5846  0.7567 -0.0909
 8860TIP3   OH247994   1.158   3.830   4.202  0.3325 -0.4338 -0.2475
 8860TIP3    H147995   1.144   3.748   4.154 -0.5121 -1.2700  1.3584
 8860TIP3    H247996   1.071   3.855   4.232  0.6671  0.7679 -0.2341
 8861TIP3   OH247997   3.063   6.506   0.669 -0.0489  0.7528 -0.3073
 8861TIP3    H147998   3.156   6.520   0.649  0.0328  0.4294 -0.1525
 8861TIP3    H247999   3.037   6.586   0.716  0.4602  0.3399  0.7111
 8862TIP3   OH248000   5.809   1.985  13.991 -0.2974  0.0722  0.7305
 8862TIP3    H148001   5.758   1.906  14.008 -0.0478 -0.2478  0.0243
 8862TIP3    H248002   5.780   2.015  13.905  0.7008 -0.1217  0.3063
 8863TIP3   OH248003   2.358   1.557   0.481 -0.1685 -0.2179 -0.1536
 8863TIP3    H148004   2.345   1.480   0.426  0.0944 -0.9024  0.7324
 8863TIP3    H248005   2.372   1.522   0.569 -4.9074  0.8859  1.3396
 8864TIP3   OH248006   5.824   6.187   0.044 -0.1777  0.1957  0.0781
 8864TIP3    H148007   5.786   6.120  -0.012  0.1249  0.3860 -0.3657
 8864TIP3    H248008   5.822   6.267  -0.010 -2.5321  1.0940  1.3336
 8865TIP3   OH248009   6.049   3.557  13.358 -0.3146  0.2556  0.1522
 8865TIP3    H148010   6.131   3.586  13.398 -1.7090  0.7104  2.9290
 8865TIP3    H248011   6.008   3.638  13.327 -0.5626  0.3039  0.5828
 8866TIP3   OH248012   6.031   5.621  13.464 -0.6324  0.0161  0.7823
 8866TIP3    H148013   6.112   5.590  13.504 -0.0899  1.0244  0.4995
 8866TIP3    H248014   6.060   5.677  13.391 -1.5760  0.4556  0.7288
 8867TIP3   OH248015   4.911   3.016  11.756  0.3368 -0.3568 -0.1714
 8867TIP3    H148016   4.920   2.965  11.675 -2.6145  1.0642 -1.5685
 8867TIP3    H248017   4.982   3.080  11.752  2.4144 -2.5053  0.2495
 8868TIP3   OH248018   1.351   6.060   0.288  0.1871 -0.3732  0.6349
 8868TIP3    H148019   1.376   6.063   0.380  1.7964 -0.3658  0.2161
 8868TIP3    H248020   1.330   5.968   0.271  1.4232 -0.6629  0.6294
 8869TIP3   OH248021   5.551   3.679  12.582 -0.2898  0.4147  0.2497
 8869TIP3    H148022   5.579   3.658  12.671 -0.6147  1.0275  0.5071
 8869TIP3    H248023   5.458   3.655  12.580  0.2408 -1.7286 -0.6371
 8870TIP3   OH248024   5.827   1.100  13.843  0.1245  0.0587 -0.4917
 8870TIP3    H148025   5.736   1.086  13.872 -0.5949  1.2639 -2.0381
 8870TIP3    H248026   5.859   1.012  13.822 -0.1171 -0.5685  1.5582
 8871TIP3   OH248027   3.396   1.289   5.679 -0.3445  0.8601 -0.2741
 8871TIP3    H148028   3.355   1.206   5.706 -0.1529  1.4926  2.1428
 8871TIP3    H248029   3.327   1.354   5.691  0.1669  1.3593 -0.0167
 8872TIP3   OH248030   2.798   2.248   0.546  0.0029  0.3056  0.3850
 8872TIP3    H148031   2.782   2.256   0.640 -0.4558 -0.9665  0.4296
 8872TIP3    H248032   2.772   2.159   0.525  0.3526  0.4951 -0.9080
 8873TIP3   OH248033   1.786   5.239  16.362 -0.6362 -0.0028 -0.6256
 8873TIP3    H148034   1.777   5.334  16.354 -0.4195 -0.0390 -1.3274
 8873TIP3    H248035   1.831   5.212  16.282  0.4759 -0.5361  0.1567
 8874TIP3   OH248036   2.990   6.377   2.473  0.3862 -0.0789  0.2604
 8874TIP3    H148037   2.926   6.345   2.536 -0.7131 -2.2398 -1.7693
 8874TIP3    H248038   3.000   6.470   2.493 -2.1594 -0.0245  1.6846
 8875TIP3   OH248039   6.413   3.448   0.563 -0.5150 -0.2812 -0.0891
 8875TIP3    H148040   6.480   3.381   0.551 -0.4908 -0.2450 -0.1552
 8875TIP3    H248041   6.443   3.521   0.510 -0.5935 -0.2549 -0.0967
 8876TIP3   OH248042   4.483   0.328  16.596  1.0867  0.5197 -0.0685
 8876TIP3    H148043   4.467   0.335  16.690  1.1598 -1.9524  0.1844
 8876TIP3    H248044   4.575   0.350  16.584  1.1365  0.5949  0.4756
 8877TIP3   OH248045   1.626   3.889   4.436 -0.5508  0.4619  0.5445
 8877TIP3    H148046   1.650   3.962   4.379 -0.2041  0.2017  0.3568
 8877TIP3    H248047   1.576   3.830   4.379 -0.5124  0.3769  0.5990
 8878TIP3   OH248048   5.942   5.628  11.735 -0.4566 -0.1689 -0.1568
 8878TIP3    H148049   5.854   5.622  11.772 -0.1667 -0.8608  0.4485
 8878TIP3    H248050   5.936   5.580  11.652  0.0460 -2.8971  1.2734
 8879TIP3   OH248051   4.036   5.970  16.086 -0.3363 -0.2557  0.0174
 8879TIP3    H148052   4.121   6.014  16.097  1.4855 -2.9636 -1.9044
 8879TIP3    H248053   4.041   5.894  16.144 -1.3729 -0.5808 -0.3101
 8880TIP3   OH248054   4.503   0.779  14.101 -0.1497  0.4182  0.3598
 8880TIP3    H148055   4.567   0.806  14.035 -0.3207 -1.3352 -0.5999
 8880TIP3    H248056   4.487   0.858  14.153  1.7013  1.2649 -0.2618
 8881TIP3   OH248057   2.193   5.964  16.901 -0.1053 -0.2342  0.0926
 8881TIP3    H148058   2.170   6.020  16.975 -0.0003 -1.1004  0.7985
 8881TIP3    H248059   2.286   5.979  16.886 -0.2313  0.3039 -0.1904
 8882TIP3   OH248060   0.399   2.674  12.763 -0.1232 -0.4435  0.1530
 8882TIP3    H148061   0.339   2.690  12.836  0.0684  2.3164 -0.2020
 8882TIP3    H248062   0.342   2.644  12.692 -1.0428  1.3834  0.0640
 8883TIP3   OH248063   5.032   1.297  16.388  0.1879 -0.5249 -0.2738
 8883TIP3    H148064   4.971   1.313  16.460  0.9675  2.4694 -0.1299
 8883TIP3    H248065   5.005   1.213  16.351 -2.7340 -0.2569  1.0047
 8884TIP3   OH248066   6.121   5.889   1.397 -0.0401  0.2351  0.8613
 8884TIP3    H148067   6.094   5.844   1.478 -0.8303  1.1378  1.1154
 8884TIP3    H248068   6.094   5.980   1.410 -2.0344  0.0191 -1.2378
 8885TIP3   OH248069   6.582   4.894  12.001  0.3389 -0.3538  0.0255
 8885TIP3    H148070   6.602   4.986  12.019  2.5050 -0.4405 -1.5756
 8885TIP3    H248071   6.601   4.848  12.082  0.5233  0.4406  0.4425
 8886TIP3   OH248072   5.102   0.484  16.251 -0.0308  0.6539 -0.1927
 8886TIP3    H148073   5.157   0.445  16.319  1.3257  0.3229 -1.4233
 8886TIP3    H248074   5.060   0.408  16.209  0.8356  0.6702 -1.1136
 8887TIP3   OH248075   0.595   1.018   2.697  0.2298  1.0723 -0.6168
 8887TIP3    H148076   0.622   1.090   2.640 -0.7084  2.1398  0.2135
 8887TIP3    H248077   0.609   1.052   2.786 -1.2335  0.6497 -0.1976
 8888TIP3   OH248078   2.403   4.598   0.633 -0.1239  0.0630  0.5979
 8888TIP3    H148079   2.358   4.513   0.625  0.9440 -0.4473 -0.4621
 8888TIP3    H248080   2.494   4.574   0.652 -0.3389  1.0832  3.2713
 8889TIP3   OH248081   6.299   2.061  15.150 -0.1422 -0.0364  0.0415
 8889TIP3    H148082   6.346   2.009  15.216  0.7685  0.0542 -0.5131
 8889TIP3    H248083   6.366   2.081  15.084 -1.1194 -0.4596 -1.1197
 8890TIP3   OH248084   6.653   6.750  14.742  0.4571  0.1228 -0.0610
 8890TIP3    H148085   6.704   6.802  14.680  0.4056  0.3134  0.0563
 8890TIP3    H248086   6.612   6.682  14.688  1.5470 -0.5903 -0.0273
 8891TIP3   OH248087   5.767   6.256  16.042 -0.3128  0.1133  0.2795
 8891TIP3    H148088   5.862   6.264  16.040 -0.2831  0.1058  1.3446
 8891TIP3    H248089   5.746   6.199  15.968  0.7156 -1.6745  1.3079
 8892TIP3   OH248090   1.847   3.025   2.378  0.1448 -0.6280  0.3155
 8892TIP3    H148091   1.762   3.023   2.334 -1.0493 -1.1194  2.4825
 8892TIP3    H248092   1.888   2.942   2.357 -0.2677 -0.7196 -0.1267
 8893TIP3   OH248093   0.792   2.567  15.234  0.0926 -0.3712 -0.2076
 8893TIP3    H148094   0.815   2.660  15.238 -1.0613 -0.0667 -0.2778
 8893TIP3    H248095   0.872   2.524  15.201  1.2105  0.3460  1.4471
 8894TIP3   OH248096   5.036   6.419   1.437  0.6238 -0.5214 -0.0991
 8894TIP3    H148097   5.062   6.327   1.433  0.1050 -0.6970  0.4880
 8894TIP3    H248098   4.954   6.423   1.388  0.8467 -0.2959 -0.4585
 8895TIP3   OH248099   0.164   5.174   3.780  0.2977  0.4825  0.2615
 8895TIP3    H148100   0.113   5.250   3.751  0.3765  0.7211  0.7328
 8895TIP3    H248101   0.254   5.205   3.783  0.4241  0.1665 -0.2158
 8896TIP3   OH248102   6.519   5.045  17.077  0.0173  0.6116  0.3149
 8896TIP3    H148103   6.498   5.066  17.168 -0.5684  2.3442 -0.1819
 8896TIP3    H248104   6.488   5.121  17.027 -1.8390 -1.2808 -1.6182
 8897TIP3   OH248105   2.773   1.238   3.611 -0.4822 -0.2043  0.2736
 8897TIP3    H148106   2.713   1.312   3.601 -0.1251 -0.0871 -1.3058
 8897TIP3    H248107   2.719   1.166   3.643 -1.2810  0.1501 -0.2512
 8898TIP3   OH248108   0.627   3.060   4.349  0.5337 -0.2153  0.5839
 8898TIP3    H148109   0.610   3.057   4.443 -0.9107 -0.8192  0.3320
 8898TIP3    H248110   0.610   2.971   4.319 -1.4793  0.5014 -0.6108
 8899TIP3   OH248111   4.446   0.447  11.084 -0.2559 -0.3543  0.1801
 8899TIP3    H148112   4.361   0.408  11.101  0.3443 -1.6461  0.2677
 8899TIP3    H248113   4.426   0.537  11.057 -1.6566 -0.7332 -0.0935
 8900TIP3   OH248114   0.264   5.806   5.558 -0.1844  0.1618  0.1303
 8900TIP3    H148115   0.189   5.823   5.502  0.5122 -0.7236 -1.1383
 8900TIP3    H248116   0.295   5.892   5.584 -1.3378  0.5450  0.2727
 8901TIP3   OH248117   2.667   1.432  12.968  0.0036  0.2728 -0.0087
 8901TIP3    H148118   2.683   1.357  12.911  0.2040  0.1821  0.1648
 8901TIP3    H248119   2.592   1.406  13.021  0.7021 -0.2134  0.7579
 8902TIP3   OH248120   4.253   5.268   5.808 -0.1857  0.4724 -0.0806
 8902TIP3    H148121   4.345   5.266   5.833  0.2794 -0.3667 -1.6980
 8902TIP3    H248122   4.208   5.217   5.875  0.3607  1.6627  1.2324
 8903TIP3   OH248123   5.022   5.552   1.838  0.2472  0.9276 -0.5407
 8903TIP3    H148124   5.018   5.617   1.908  0.5491  1.9974 -1.4852
 8903TIP3    H248125   4.942   5.566   1.787 -0.2596 -0.2325 -0.1049
 8904TIP3   OH248126   4.258   2.018  11.714  0.0434 -1.0275 -0.1022
 8904TIP3    H148127   4.212   1.969  11.783 -1.6962  3.0392  1.9577
 8904TIP3    H248128   4.334   2.055  11.759 -0.0885  0.1887 -0.8665
 8905TIP3   OH248129   5.689   2.317   5.080 -0.2957  0.3111  0.1780
 8905TIP3    H148130   5.610   2.358   5.117 -1.5674 -0.3487 -1.6462
 8905TIP3    H248131   5.656   2.261   5.009  1.6128 -1.7635  0.8059
 8906TIP3   OH248132   2.799   0.923  13.873  0.3395  0.1425  0.1073
 8906TIP3    H148133   2.803   0.998  13.932  0.7307 -1.3888  2.1513
 8906TIP3    H248134   2.729   0.944  13.812 -1.6891  0.9040  2.5301
 8907TIP3   OH248135   4.959   0.385   3.630 -0.3669 -0.0297 -0.0137
 8907TIP3    H148136   4.969   0.294   3.603 -2.4998 -0.1730 -0.4655
 8907TIP3    H248137   4.925   0.379   3.720  0.1239  0.3500  0.2022
 8908TIP3   OH248138   3.239   6.537   4.947 -0.0329 -0.4905  0.2003
 8908TIP3    H148139   3.169   6.584   4.902 -0.1443 -0.6732  0.1834
 8908TIP3    H248140   3.244   6.452   4.902  0.0187 -0.5804  0.3750
 8909TIP3   OH248141   4.705   1.306  11.127  0.6603  0.5907  0.1591
 8909TIP3    H148142   4.698   1.310  11.223 -1.0185  0.3193  0.0798
 8909TIP3    H248143   4.718   1.213  11.108  0.9402  0.6376  0.1204
 8910TIP3   OH248144   1.171   4.504  10.514  0.0796  0.0588 -0.5206
 8910TIP3    H148145   1.209   4.592  10.504 -1.0357  0.6534  0.2128
 8910TIP3    H248146   1.246   4.445  10.505  0.7154  1.0277 -1.9273
 8911TIP3   OH248147   0.486   1.992   3.213 -0.4569  0.0787 -0.2236
 8911TIP3    H148148   0.555   2.016   3.152  0.8204 -1.7339  0.3954
 8911TIP3    H248149   0.488   2.061   3.280 -0.2072  0.7773 -0.9392
 8912TIP3   OH248150   2.265   2.625   5.641 -0.1730  0.4091  0.1916
 8912TIP3    H148151   2.361   2.623   5.638 -0.1445  1.1548  0.4192
 8912TIP3    H248152   2.243   2.602   5.731 -0.2400 -0.4840 -0.0453
 8913TIP3   OH248153   0.032   5.260   2.936  0.9055  0.0354  0.0559
 8913TIP3    H148154  -0.012   5.177   2.953  0.8811  0.0808  0.2190
 8913TIP3    H248155   0.045   5.262   2.841  0.3201  0.1398 -0.0255
 8914TIP3   OH248156   6.637   6.621  12.389  0.0551 -0.0615  0.2108
 8914TIP3    H148157   6.597   6.584  12.310 -1.5743 -2.1754  1.8916
 8914TIP3    H248158   6.564   6.628  12.451  1.7505 -1.2868  2.4663
 8915TIP3   OH248159   0.914   2.518  11.657 -0.2473 -0.0861  0.6418
 8915TIP3    H148160   0.954   2.557  11.735  0.3421  0.7544 -0.0614
 8915TIP3    H248161   0.980   2.529  11.588 -1.3952  0.6712 -0.3735
 8916TIP3   OH248162   6.357   5.459   4.960  0.1278 -0.3843  0.0038
 8916TIP3    H148163   6.300   5.410   5.019 -0.1135 -0.5459 -0.3550
 8916TIP3    H248164   6.371   5.399   4.886 -0.2718  0.1244 -0.4981
 8917TIP3   OH248165   1.468   4.184   5.123  0.3534 -0.3181 -0.0416
 8917TIP3    H148166   1.494   4.157   5.035  1.9745  1.1928 -0.0880
 8917TIP3    H248167   1.374   4.167   5.127  0.6792 -2.7354 -1.1653
 8918TIP3   OH248168   0.459   4.828   6.653 -0.2262 -0.3489 -0.1992
 8918TIP3    H148169   0.543   4.853   6.693 -0.1938 -1.0951  0.2288
 8918TIP3    H248170   0.407   4.908   6.654 -0.1177 -0.2665  1.0973
 8919TIP3   OH248171   3.386   2.111  12.570  0.0705 -0.0999  0.3809
 8919TIP3    H148172   3.308   2.138  12.618 -0.6909 -0.0893 -0.8293
 8919TIP3    H248173   3.459   2.137  12.627 -0.6422  3.2195 -0.0205
 8920TIP3   OH248174   3.626   5.514  10.756 -0.2012  0.3172 -0.9161
 8920TIP3    H148175   3.574   5.434  10.768  0.1205  0.1400 -0.6571
 8920TIP3    H248176   3.702   5.500  10.813  1.1260 -0.3020 -2.7518
 8921TIP3   OH248177   4.410   0.236  11.296  0.3120  0.5150  0.2287
 8921TIP3    H148178   4.359   0.304  11.253 -1.2146 -0.2357  0.7718
 8921TIP3    H248179   4.388   0.156  11.249  1.7989  0.3030 -0.1627
 8922TIP3   OH248180   1.940   4.796   2.483 -0.4562  0.8404  0.3152
 8922TIP3    H148181   1.932   4.753   2.569 -4.2726  1.4736  0.4453
 8922TIP3    H248182   1.972   4.884   2.503  3.2541 -0.3787  0.4696
 8923TIP3   OH248183   2.811   0.675  12.256  0.8677 -0.9704  0.2925
 8923TIP3    H148184   2.824   0.752  12.312  1.7539 -2.2494  1.9484
 8923TIP3    H248185   2.744   0.624  12.301  0.6150 -1.3819 -0.5391
 8924TIP3   OH248186   5.918   0.014  15.426  0.1810  0.5329  0.1077
 8924TIP3    H148187   5.879   0.057  15.502  0.3079  0.1308  0.4025
 8924TIP3    H248188   6.010   0.005  15.448 -0.2229 -2.0605  1.1133
 8925TIP3   OH248189   0.029   3.616   1.311  0.3830  0.0713  0.0132
 8925TIP3    H148190  -0.043   3.613   1.247  0.0453 -1.7679  0.4261
 8925TIP3    H248191   0.107   3.591   1.261  0.4685  0.5294 -0.0883
 8926TIP3   OH248192   1.231   3.100   5.333  0.3995 -0.0439 -0.0856
 8926TIP3    H148193   1.166   3.045   5.289 -0.0469 -0.0534  0.5760
 8926TIP3    H248194   1.293   3.124   5.264  1.3852 -2.4797 -0.1523
 8927TIP3   OH248195   5.854   3.693   1.294  0.1232 -0.2046  0.2685
 8927TIP3    H148196   5.904   3.774   1.297  0.5558 -0.4598  0.0429
 8927TIP3    H248197   5.774   3.715   1.247  0.9339 -0.2778 -1.2051
 8928TIP3   OH248198   4.234   5.340  13.127 -0.4014  0.3996 -0.0188
 8928TIP3    H148199   4.220   5.265  13.070 -2.2461 -0.0288  0.9250
 8928TIP3    H248200   4.294   5.308  13.194 -1.0782 -0.2161  0.3060
 8929TIP3   OH248201   6.228   3.184   0.968  0.2960  0.8810  0.5524
 8929TIP3    H148202   6.293   3.254   0.975  1.7587 -0.3621 -0.0520
 8929TIP3    H248203   6.198   3.189   0.877  2.3431 -0.8377 -0.3131
 8930TIP3   OH248204   4.811   4.361   2.003 -0.4395  0.4291  0.5013
 8930TIP3    H148205   4.734   4.374   2.059 -0.4515  0.6693  0.4319
 8930TIP3    H248206   4.820   4.444   1.956 -1.4234 -0.3125 -1.0770
 8931TIP3   OH248207   6.335   5.681   2.995 -0.8287 -0.1971  0.3600
 8931TIP3    H148208   6.286   5.724   3.065 -0.8689 -1.3531  1.0854
 8931TIP3    H248209   6.302   5.591   2.995 -0.3452 -0.3942 -0.7102
 8932TIP3   OH248210   2.212   5.120   6.511  0.0214  0.1286  0.2493
 8932TIP3    H148211   2.170   5.125   6.426  2.0381  2.5311 -0.7118
 8932TIP3    H248212   2.237   5.210   6.531  3.0956 -0.8778  1.5219
 8933TIP3   OH248213   2.313   5.927   2.471 -0.5436  0.2098  0.0223
 8933TIP3    H148214   2.242   5.890   2.523  0.2765 -2.0864 -0.3861
 8933TIP3    H248215   2.359   5.986   2.531 -1.0734 -0.5019  1.1489
 8934TIP3   OH248216   6.141   2.996   5.636 -0.2033  0.4512 -0.6816
 8934TIP3    H148217   6.045   2.993   5.638 -0.1895 -0.0101 -0.4394
 8934TIP3    H248218   6.163   2.999   5.543 -0.4518  0.4648 -0.7413
 8935TIP3   OH248219   0.152   4.905  10.720  0.0566 -0.7101 -0.8084
 8935TIP3    H148220   0.141   4.903  10.815  0.5994 -0.7908 -0.7488
 8935TIP3    H248221   0.160   4.813  10.694  0.4446 -0.6605 -0.8697
 8936TIP3   OH248222   3.311   0.441  13.429  0.3588 -0.3774  1.0557
 8936TIP3    H148223   3.255   0.448  13.352  2.0252  2.3045 -0.0578
 8936TIP3    H248224   3.250   0.431  13.502 -1.3870 -0.7532 -0.3817
 8937TIP3   OH248225   1.472   4.864   4.865 -0.0391  0.4394  0.4925
 8937TIP3    H148226   1.566   4.874   4.850 -0.4808  0.8165 -2.8782
 8937TIP3    H248227   1.453   4.925   4.937  1.9348  2.1618 -0.3303
 8938TIP3   OH248228   2.255   3.971   2.432  0.2676 -0.2402 -0.8306
 8938TIP3    H148229   2.320   4.001   2.369  0.2718 -2.7801 -2.1619
 8938TIP3    H248230   2.287   3.886   2.461 -1.4425 -0.6257  0.0467
 8939TIP3   OH248231   0.134   0.615   3.007  0.0037  0.0135 -0.3687
 8939TIP3    H148232   0.169   0.664   2.932 -0.7728  0.4900 -0.4262
 8939TIP3    H248233   0.138   0.523   2.980  3.8582 -0.3031  0.6678
 8940TIP3   OH248234   5.080   5.000  16.697 -0.2370 -0.0285  0.1113
 8940TIP3    H148235   5.130   5.077  16.721 -1.4641  1.3242 -1.4241
 8940TIP3    H248236   5.024   4.983  16.773 -1.1326  1.6312 -0.1359
 8941TIP3   OH248237   5.589   2.539   3.967  0.1146 -0.3933 -0.3782
 8941TIP3    H148238   5.511   2.571   4.013  1.3104  1.2304  0.6143
 8941TIP3    H248239   5.564   2.539   3.874 -1.2163 -0.4133 -0.0456
 8942TIP3   OH248240   2.931   6.033   5.896 -0.3057 -1.0535 -0.0359
 8942TIP3    H148241   2.926   5.999   5.807 -0.6206  1.0194 -0.8644
 8942TIP3    H248242   2.844   6.070   5.912  0.5800  1.1377  0.0193
 8943TIP3   OH248243   5.159   1.543   5.331 -0.7414 -0.2723 -0.4978
 8943TIP3    H148244   5.176   1.620   5.385  0.5550 -0.2546 -0.8873
 8943TIP3    H248245   5.089   1.496   5.377  0.9852 -0.8014  1.7976
 8944TIP3   OH248246   2.126   4.853   3.860  0.5612  0.4493  0.0366
 8944TIP3    H148247   2.042   4.818   3.892 -0.7147  1.4317 -2.0332
 8944TIP3    H248248   2.147   4.798   3.785  2.8721 -1.0457  1.6649
 8945TIP3   OH248249   3.924   0.925  14.742  0.6559 -0.0320  0.1574
 8945TIP3    H148250   3.999   0.876  14.778  0.5194 -0.2396  0.1647
 8945TIP3    H248251   3.872   0.858  14.698  0.5249  0.1299  0.0686
 8946TIP3   OH248252   3.931   2.444   3.694  0.0105 -0.5782  0.8815
 8946TIP3    H148253   3.841   2.475   3.688  0.8405  1.7276 -0.9245
 8946TIP3    H248254   3.932   2.365   3.640 -0.6780 -0.0079  0.0190
 8947TIP3   OH248255   0.930   0.038  11.597  0.7741  0.0254  0.0937
 8947TIP3    H148256   0.971  -0.046  11.576  2.4433  1.0759 -1.1011
 8947TIP3    H248257   0.980   0.072  11.671 -2.0553 -1.4571  2.9638
 8948TIP3   OH248258   5.326   0.509  14.385 -0.4909  0.0645 -0.9335
 8948TIP3    H148259   5.256   0.452  14.352 -0.4318  0.2384 -1.3612
 8948TIP3    H248260   5.395   0.504  14.319  1.0238 -2.1574  0.6944
 8949TIP3   OH248261   2.644   5.369   3.853  0.1188  0.3289  0.0136
 8949TIP3    H148262   2.710   5.307   3.884 -0.6824 -0.1093  0.9099
 8949TIP3    H248263   2.627   5.343   3.763 -0.0082 -0.6079  0.2924
 8950TIP3   OH248264   1.123   0.397  11.623  0.1910  0.0959 -0.3299
 8950TIP3    H148265   1.190   0.433  11.681 -0.4357  0.4185  0.2171
 8950TIP3    H248266   1.043   0.398  11.676 -0.4431  0.5865 -1.2752
 8951TIP3   OH248267   5.664   6.584   1.766 -1.0299 -0.3884  0.0817
 8951TIP3    H148268   5.679   6.616   1.677 -1.5806  0.6921  0.3619
 8951TIP3    H248269   5.598   6.643   1.802  1.2788  1.1131  2.2051
 8952TIP3   OH248270   6.167   1.363   1.167 -0.2900 -0.4931 -0.4842
 8952TIP3    H148271   6.245   1.418   1.172 -0.2581 -0.5741 -0.0517
 8952TIP3    H248272   6.105   1.405   1.227  0.2203 -1.7000  0.9544
 8953TIP3   OH248273   2.542   0.550   2.940  0.3133  0.3668  0.1090
 8953TIP3    H148274   2.545   0.574   3.032 -1.1424  0.6985  0.0909
 8953TIP3    H248275   2.634   0.550   2.912  0.7071  1.0573  1.3417
 8954TIP3   OH248276   2.969   6.283   3.814 -0.1066  0.3708  0.3964
 8954TIP3    H148277   2.940   6.233   3.737  0.3100 -0.3347  0.6855
 8954TIP3    H248278   2.889   6.303   3.862 -0.1890 -1.1200  0.9317
 8955TIP3   OH248279   1.545   3.192  14.530  0.0760 -0.0611  0.0914
 8955TIP3    H148280   1.552   3.285  14.553 -1.4411 -0.3828  2.0735
 8955TIP3    H248281   1.466   3.162  14.574 -0.4068 -1.9316 -1.8819
 8956TIP3   OH248282   0.050   4.981   1.289 -0.4108 -0.4951 -0.6232
 8956TIP3    H148283   0.088   4.930   1.361  0.2141  2.6399  1.4812
 8956TIP3    H248284  -0.037   5.006   1.319 -0.4833  0.1687 -1.3381
 8957TIP3   OH248285   0.987   3.908  12.118 -0.2922  0.2638 -0.2826
 8957TIP3    H148286   1.031   3.873  12.041  1.7394 -0.4991  1.1281
 8957TIP3    H248287   1.035   3.870  12.192 -1.4789  1.8032  1.3589
 8958TIP3   OH248288   2.108   0.894   3.369 -0.7127 -0.3666  0.2049
 8958TIP3    H148289   2.064   0.840   3.304 -1.5997  1.4018 -0.7375
 8958TIP3    H248290   2.047   0.898   3.443 -1.1347  0.2355 -0.1738
 8959TIP3   OH248291   1.366   3.559  13.474  0.0009  0.3060 -0.4756
 8959TIP3    H148292   1.287   3.583  13.426  0.0169  0.5663 -0.3713
 8959TIP3    H248293   1.393   3.639  13.518  1.6219  0.8522 -2.3008
 8960TIP3   OH248294   6.530   0.577   1.437 -0.2126  0.3301 -0.2839
 8960TIP3    H148295   6.481   0.502   1.472  0.8197 -0.0111  0.4815
 8960TIP3    H248296   6.551   0.552   1.347 -0.8228  0.1730 -0.3860
 8961TIP3   OH248297   2.960   0.130  14.719  0.3276 -0.0306 -0.4987
 8961TIP3    H148298   3.043   0.082  14.722  1.5175  1.9569  0.6798
 8961TIP3    H248299   2.981   0.212  14.674 -0.5708  1.1847  1.1832
 8962TIP3   OH248300   1.037   6.223  12.418  0.0945  0.0788 -0.3762
 8962TIP3    H148301   1.128   6.242  12.441  0.4200  0.3187 -1.7776
 8962TIP3    H248302   1.039   6.209  12.323 -1.6186  1.9829 -0.7591
 8963TIP3   OH248303   6.124   2.109  13.337  0.2895  0.4054  1.5126
 8963TIP3    H148304   6.125   2.202  13.360  1.5753  0.6011  0.7389
 8963TIP3    H248305   6.188   2.100  13.267 -1.7941 -0.6006 -0.3769
 8964TIP3   OH248306   5.765   3.945   1.841  0.6225 -0.4141  0.5487
 8964TIP3    H148307   5.838   3.910   1.891  1.1126 -0.9819 -0.5261
 8964TIP3    H248308   5.783   3.919   1.750  1.2148  2.8740 -0.4186
 8965TIP3   OH248309   3.581   6.310  12.314  0.2039  0.4540  0.7572
 8965TIP3    H148310   3.523   6.258  12.369  0.5587 -1.6081 -0.6927
 8965TIP3    H248311   3.669   6.288  12.344  0.3468  1.7092  1.3460
 8966TIP3   OH248312   0.253   6.707  12.561 -0.2066  0.0200 -0.0239
 8966TIP3    H148313   0.307   6.767  12.509 -3.4587  4.7363  1.2970
 8966TIP3    H248314   0.188   6.673  12.499 -0.2972  0.5497 -0.2292
 8967TIP3   OH248315   1.567   3.355  15.789 -0.0759 -0.6743 -0.6475
 8967TIP3    H148316   1.520   3.287  15.836 -0.1921 -0.3387 -0.2697
 8967TIP3    H248317   1.498   3.410  15.751  0.0032 -1.5222 -2.0941
 8968TIP3   OH248318   0.264   0.682   0.857  0.2255 -0.2613 -0.1770
 8968TIP3    H148319   0.360   0.686   0.855  0.2862 -0.9787  0.7682
 8968TIP3    H248320   0.239   0.674   0.765  1.0320  0.5934 -0.4904
 8969TIP3   OH248321   5.083   3.006   4.571  0.1470 -0.1190  0.5854
 8969TIP3    H148322   5.176   2.986   4.579  0.5854  0.3817 -2.2311
 8969TIP3    H248323   5.042   2.959   4.645  2.5062 -0.9629  1.4591
 8970TIP3   OH248324   2.802   1.731   0.867  0.9386 -0.1095  0.5182
 8970TIP3    H148325   2.725   1.723   0.922 -0.1695 -0.8858 -1.0562
 8970TIP3    H248326   2.847   1.808   0.900  0.1959 -0.3809  2.2973
 8971TIP3   OH248327   3.306   4.549  16.922 -0.0348  0.3199  0.5491
 8971TIP3    H148328   3.363   4.472  16.928 -0.6413 -0.0833  1.3101
 8971TIP3    H248329   3.366   4.623  16.925  0.5676 -0.1199 -0.2950
 8972TIP3   OH248330   5.554   1.291   2.265 -0.0714  0.1020  0.6003
 8972TIP3    H148331   5.647   1.269   2.274  0.1217  0.2081 -0.8980
 8972TIP3    H248332   5.548   1.383   2.291  0.5728  0.6132 -0.9411
 8973TIP3   OH248333   0.671   2.336  10.515  0.4160  0.6484 -0.6788
 8973TIP3    H148334   0.616   2.312  10.441 -0.5354 -0.1002  0.2421
 8973TIP3    H248335   0.760   2.317  10.485 -0.1388 -3.6301 -0.3487
 8974TIP3   OH248336   4.798   2.351  15.708 -0.2068  0.9339 -0.7766
 8974TIP3    H148337   4.861   2.422  15.701 -0.2899  0.8920 -2.2679
 8974TIP3    H248338   4.844   2.282  15.754  0.0834  1.7180  0.1240
 8975TIP3   OH248339   6.177   2.746  14.867 -0.5534 -0.4030 -0.2027
 8975TIP3    H148340   6.271   2.758  14.880 -0.4590 -0.9036 -0.4055
 8975TIP3    H248341   6.139   2.831  14.889 -0.0752 -0.2564  0.0727
 8976TIP3   OH248342   4.169   6.298   1.090  0.1756 -0.9146 -0.1261
 8976TIP3    H148343   4.252   6.346   1.087 -0.3288  0.0859  0.8987
 8976TIP3    H248344   4.175   6.234   1.020  0.8030  0.8200 -1.7569
 8977TIP3   OH248345   3.742   1.034   5.179 -0.8819 -0.2995  0.3540
 8977TIP3    H148346   3.776   1.116   5.215 -1.0228  0.3307 -0.9027
 8977TIP3    H248347   3.658   1.022   5.222 -0.9050  0.2690  0.4711
 8978TIP3   OH248348   2.962   5.293   2.261  0.5783  0.3767  0.2059
 8978TIP3    H148349   2.896   5.345   2.307  0.8905  0.8637  0.1135
 8978TIP3    H248350   2.934   5.294   2.169  2.3814  3.3720 -0.4794
 8979TIP3   OH248351   4.337   5.566   6.097  0.1017  0.1527 -0.2375
 8979TIP3    H148352   4.323   5.661   6.106  1.3543  0.5496 -1.9433
 8979TIP3    H248353   4.304   5.529   6.179  2.0632  2.3407  1.6848
 8980TIP3   OH248354   4.784   0.261   0.664 -0.6232  0.1257  0.4744
 8980TIP3    H148355   4.749   0.324   0.728 -0.6511  0.4098  0.1836
 8980TIP3    H248356   4.850   0.310   0.616 -0.3038 -0.2136  0.5653
 8981TIP3   OH248357   5.876   0.332  12.140  0.6171 -0.3448  0.3516
 8981TIP3    H148358   5.817   0.393  12.097 -2.1953 -2.5668  0.7950
 8981TIP3    H248359   5.929   0.387  12.198 -0.8967  1.8062 -0.1866
 8982TIP3   OH248360   4.406   2.036   0.904 -0.0610  0.1529  0.0267
 8982TIP3    H148361   4.353   2.097   0.955  0.2096 -0.2117  0.7518
 8982TIP3    H248362   4.415   2.078   0.818 -1.1184  0.4342  0.0456
 8983TIP3   OH248363   0.949   6.463  12.464  0.5932  0.4304  0.1275
 8983TIP3    H148364   0.984   6.482  12.551  1.0304  0.4083 -0.0405
 8983TIP3    H248365   0.940   6.368  12.461 -2.4982  0.5696  1.3183
 8984TIP3   OH248366   0.435   2.522  14.009 -0.1141 -0.2785 -0.1806
 8984TIP3    H148367   0.472   2.483  13.930 -1.2027 -1.0853 -0.3146
 8984TIP3    H248368   0.511   2.543  14.063  0.7031  0.9975 -1.7472
 8985TIP3   OH248369   4.896   1.718  11.255 -0.2406 -0.0023 -0.6513
 8985TIP3    H148370   4.853   1.792  11.296 -0.2106 -0.5787  0.4351
 8985TIP3    H248371   4.846   1.702  11.175  0.0031  1.4330 -1.1129
 8986TIP3   OH248372   1.013   4.227  13.410  0.2123  0.6411 -0.2464
 8986TIP3    H148373   0.959   4.305  13.422  0.0872  0.6546 -0.8401
 8986TIP3    H248374   0.971   4.159  13.462 -0.2424  0.7148 -0.5168
 8987TIP3   OH248375   4.354   4.659   4.377  0.0394  0.0559  0.0925
 8987TIP3    H148376   4.439   4.627   4.405 -0.2719  0.5668  1.6981
 8987TIP3    H248377   4.363   4.673   4.282  1.7843  0.2718  0.2741
 8988TIP3   OH248378   3.007   2.807  17.126 -0.2182 -0.1597  0.4812
 8988TIP3    H148379   2.994   2.893  17.085 -1.0951 -1.0894 -1.3485
 8988TIP3    H248380   3.002   2.823  17.220  0.6761  1.9267  0.2160
 8989TIP3   OH248381   0.396   4.259   4.773  0.4421 -0.1150  0.2447
 8989TIP3    H148382   0.467   4.320   4.751  1.4705 -0.6347  1.9058
 8989TIP3    H248383   0.382   4.272   4.867 -0.7922 -0.9403  0.1916
 8990TIP3   OH248384   4.771   5.333  11.351 -0.6320 -0.1228 -0.5451
 8990TIP3    H148385   4.703   5.310  11.414 -0.6789 -0.9434 -0.8822
 8990TIP3    H248386   4.775   5.429  11.354 -1.4692 -0.0883 -0.1810
 8991TIP3   OH248387   4.249   6.541   5.923  0.3250  0.1999 -0.7612
 8991TIP3    H148388   4.283   6.610   5.866 -0.1748  1.6464  0.6123
 8991TIP3    H248389   4.328   6.495   5.954  0.7793  1.1526 -0.4792
 8992TIP3   OH248390   2.860   4.897   0.565  0.2470  0.2503  0.4251
 8992TIP3    H148391   2.834   4.986   0.586 -1.8691 -0.3628  0.6281
 8992TIP3    H248392   2.816   4.843   0.631  0.3139 -1.0478 -0.5421
 8993TIP3   OH248393   6.385   4.206   1.811  0.1030  0.0359 -0.5288
 8993TIP3    H148394   6.428   4.173   1.890  0.1177 -1.5404 -1.1644
 8993TIP3    H248395   6.457   4.229   1.753  0.0948  1.3425 -0.0648
 8994TIP3   OH248396   0.715   1.932   0.010  0.0226  0.1671  0.0639
 8994TIP3    H148397   0.701   1.967   0.098  0.1672 -0.1429  0.2113
 8994TIP3    H248398   0.632   1.947  -0.035 -0.2614 -0.2492  0.4507
 8995TIP3   OH248399   2.139   4.496   3.247  0.2321  0.0263  0.4706
 8995TIP3    H148400   2.123   4.526   3.157 -0.9334 -0.3793  0.5191
 8995TIP3    H248401   2.140   4.576   3.299 -1.9004  0.1224  0.4681
 8996TIP3   OH248402   5.770   3.466  16.927  0.4979 -0.1661 -0.3438
 8996TIP3    H148403   5.745   3.465  17.020 -1.0440  0.1985 -0.7263
 8996TIP3    H248404   5.699   3.514  16.884  0.6358 -1.2641 -1.8577
 8997TIP3   OH248405   6.667   5.990  12.514  0.0978 -0.6128 -0.3995
 8997TIP3    H148406   6.680   5.991  12.419 -1.0357 -1.4551 -0.5897
 8997TIP3    H248407   6.717   5.914  12.544 -1.9481 -2.2019 -0.7699
 8998TIP3   OH248408   3.251   1.586  16.149  0.1596 -0.0053 -0.2110
 8998TIP3    H148409   3.272   1.651  16.083 -0.9911  0.0473 -0.5505
 8998TIP3    H248410   3.285   1.504  16.114  1.0736  0.3073 -0.0642
 8999TIP3   OH248411   0.560   5.233  12.976  0.0032  0.9519  0.4095
 8999TIP3    H148412   0.577   5.298  13.044  0.6272  0.4178  0.7703
 8999TIP3    H248413   0.543   5.152  13.024 -1.4713  0.9842 -0.0120
 9000TIP3   OH248414   4.298   6.350   6.225  0.0260 -0.6125  0.4403
 9000TIP3    H148415   4.330   6.261   6.211  1.1894 -0.8420  3.7269
 9000TIP3    H248416   4.349   6.404   6.164  0.1825 -2.0116 -0.7190
 9001TIP3   OH248417   2.602   3.114  16.091  0.0564  0.4736  0.2289
 9001TIP3    H148418   2.648   3.163  16.023  0.7791 -0.6955 -0.1594
 9001TIP3    H248419   2.672   3.071  16.141 -0.2890  2.9731  3.1239
 9002TIP3   OH248420   4.070   3.123  16.744  0.3305  0.3898 -0.0557
 9002TIP3    H148421   3.980   3.090  16.756  0.5750  0.3606  2.1137
 9002TIP3    H248422   4.104   3.073  16.670 -1.2028 -0.1219 -0.4549
 9003TIP3   OH248423   4.993   1.783  12.616 -0.2243 -0.1410 -0.2450
 9003TIP3    H148424   4.976   1.691  12.635 -0.1379 -0.4065 -1.3898
 9003TIP3    H248425   4.916   1.829  12.652  1.0734 -0.2531  3.0523
 9004TIP3   OH248426   3.117   3.182  12.798 -0.3636 -0.1280  0.5221
 9004TIP3    H148427   3.076   3.190  12.712  0.4666 -0.0835  0.1253
 9004TIP3    H248428   3.080   3.254  12.849 -1.6003 -0.7398  0.5188
 9005TIP3   OH248429   3.156   0.550  12.567 -0.2151  0.2572  1.0592
 9005TIP3    H148430   3.157   0.606  12.489 -1.9280  1.0660  1.5669
 9005TIP3    H248431   3.249   0.535  12.587  0.2645  1.3576 -0.1743
 9006TIP3   OH248432   5.459   5.476   1.980 -0.0164 -0.0854 -0.0764
 9006TIP3    H148433   5.528   5.513   2.035 -0.0826  0.3856 -0.3013
 9006TIP3    H248434   5.463   5.527   1.899 -1.4798  0.8753  0.4062
 9007TIP3   OH248435   1.907   1.094  15.966 -0.0899 -0.1864 -0.3891
 9007TIP3    H148436   1.948   1.014  15.933  0.4872 -0.0496 -0.0130
 9007TIP3    H248437   1.901   1.151  15.889  0.2846 -0.2687 -0.4820
 9008TIP3   OH248438   1.979   2.386   1.926 -0.2193  0.4047  0.0479
 9008TIP3    H148439   1.929   2.419   1.851  0.2323 -0.2072 -0.5263
 9008TIP3    H248440   2.047   2.331   1.888 -0.4908 -0.5900  0.9484
 9009TIP3   OH248441   5.204   3.042   5.036  0.0167 -0.0935  0.4778
 9009TIP3    H148442   5.176   3.124   5.076  2.4200  0.8975  0.3270
 9009TIP3    H248443   5.299   3.040   5.052  0.3126 -1.8946 -1.2313
 9010TIP3   OH248444   3.723   4.634   3.498 -0.4245 -0.3716 -0.1749
 9010TIP3    H148445   3.810   4.634   3.537 -0.9389  1.0005  1.0890
 9010TIP3    H248446   3.732   4.585   3.417  1.2848 -1.1326  0.4356
 9011TIP3   OH248447   3.247   3.817  11.218  0.0041  0.3407 -0.5173
 9011TIP3    H148448   3.175   3.815  11.154 -0.6428 -0.0119  0.2147
 9011TIP3    H248449   3.278   3.727  11.222 -0.0056  0.3484 -0.2736
 9012TIP3   OH248450   5.808   1.175   2.315  0.0335 -0.0604  0.1515
 9012TIP3    H148451   5.901   1.167   2.292  0.2434  4.0584 -1.4122
 9012TIP3    H248452   5.762   1.124   2.249  1.1375 -1.0712  0.1360
 9013TIP3   OH248453   1.948   0.402  11.140 -0.0555 -0.1118 -0.2039
 9013TIP3    H148454   2.034   0.367  11.164 -0.3679 -1.5041 -0.9572
 9013TIP3    H248455   1.886   0.353  11.194 -0.3367  2.2469  1.7995
 9014TIP3   OH248456   1.537   2.032  15.094  0.6950  0.0834 -0.0418
 9014TIP3    H148457   1.511   1.953  15.142  1.5056 -0.4322 -0.4405
 9014TIP3    H248458   1.470   2.097  15.117 -0.9089 -1.1674 -0.9479
 9015TIP3   OH248459   3.514   5.232   2.195 -0.0080 -0.1009  0.0049
 9015TIP3    H148460   3.469   5.284   2.261 -0.8048 -0.6341 -0.1035
 9015TIP3    H248461   3.539   5.296   2.127 -4.6083 -0.2276 -2.1758
 9016TIP3   OH248462   0.600   1.826  13.721 -0.5563  0.0953 -0.0454
 9016TIP3    H148463   0.682   1.777  13.730 -0.8701 -0.4949 -0.3414
 9016TIP3    H248464   0.584   1.862  13.808  1.7276  3.0392 -0.6632
 9017TIP3   OH248465   1.470   0.908   1.312  0.1418 -0.2285 -0.2089
 9017TIP3    H148466   1.490   0.989   1.266 -1.6395  0.2526 -0.2041
 9017TIP3    H248467   1.431   0.936   1.395 -1.8957 -1.0220 -0.8261
 9018TIP3   OH248468   1.197   4.005  15.703  0.2983 -0.3178  0.2790
 9018TIP3    H148469   1.249   4.013  15.623 -0.6033  0.1873 -0.2772
 9018TIP3    H248470   1.262   3.999  15.773  1.1490  2.4389 -0.1607
 9019TIP3   OH248471   0.274   1.865  13.229 -0.0547  0.1326 -0.2540
 9019TIP3    H148472   0.247   1.956  13.244 -1.2933 -0.4942  1.8211
 9019TIP3    H248473   0.231   1.839  13.148 -0.2626  1.1840 -0.4888
 9020TIP3   OH248474   0.277   3.802  14.899 -0.3389 -0.1845 -0.5756
 9020TIP3    H148475   0.356   3.783  14.948 -0.4206 -1.3800 -0.8788
 9020TIP3    H248476   0.235   3.874  14.947  0.7584  0.2499 -0.2445
 9021TIP3   OH248477   5.318   6.604  15.308  0.5746 -0.1763  0.1532
 9021TIP3    H148478   5.358   6.615  15.394 -2.2034 -0.8452  1.6353
 9021TIP3    H248479   5.273   6.687  15.291 -1.5602 -1.1177  0.9020
 9022TIP3   OH248480   3.926   5.772  15.701 -0.2870 -0.2313 -0.3418
 9022TIP3    H148481   4.018   5.750  15.720 -0.6901 -2.1118 -0.3386
 9022TIP3    H248482   3.915   5.861  15.734  1.0910 -0.6117  1.2721
 9023TIP3   OH248483   3.765   1.712   1.783 -0.2795  0.0580 -0.3364
 9023TIP3    H148484   3.770   1.721   1.879  0.1221 -1.6459 -0.1687
 9023TIP3    H248485   3.850   1.744   1.752 -0.1158 -0.0969 -0.0555
 9024TIP3   OH248486   3.442   3.902   2.681 -0.1085  0.0134 -0.1956
 9024TIP3    H148487   3.520   3.934   2.726  1.2854 -1.9177 -1.1154
 9024TIP3    H248488   3.425   3.968   2.613  1.0428  0.2108 -0.3053
 9025TIP3   OH248489   5.558   2.884  15.820  0.4780 -0.2565  0.7717
 9025TIP3    H148490   5.576   2.970  15.857  0.6924 -0.2892  0.7455
 9025TIP3    H248491   5.546   2.827  15.895  2.0078 -0.5549  0.8108
 9026TIP3   OH248492   0.026   4.402  11.447  0.0365 -0.3414 -0.1522
 9026TIP3    H148493  -0.011   4.354  11.522 -0.2301  0.4491  0.2345
 9026TIP3    H248494   0.026   4.493  11.475  0.2385 -0.0727 -1.0040
 9027TIP3   OH248495   0.719   0.835  16.353  0.1686  0.0452  0.0214
 9027TIP3    H148496   0.630   0.836  16.318  0.2429  1.4410 -0.2002
 9027TIP3    H248497   0.712   0.789  16.436 -1.1695  1.7805  0.9499
 9028TIP3   OH248498   3.345   0.169  11.767 -0.8686  0.0640 -0.2976
 9028TIP3    H148499   3.379   0.103  11.707 -3.2364 -0.4759 -1.1567
 9028TIP3    H248500   3.335   0.247  11.713  0.3842  0.6891  0.3285
 9029TIP3   OH248501   5.088   4.201  16.101  0.6622 -0.7124 -0.7376
 9029TIP3    H148502   5.094   4.272  16.165 -0.4689  0.0365 -1.4139
 9029TIP3    H248503   5.178   4.175  16.085  0.9701 -0.8862  1.1143
 9030TIP3   OH248504   3.313   1.085   0.267 -0.4675  0.8899  0.0271
 9030TIP3    H148505   3.321   1.161   0.211  0.3782  0.8732  0.0986
 9030TIP3    H248506   3.399   1.078   0.309 -0.2167 -0.6107 -0.6520
 9031TIP3   OH248507   3.511   2.784   0.774 -0.6759  0.1799  0.1473
 9031TIP3    H148508   3.457   2.823   0.842 -2.3318  0.5911 -1.3230
 9031TIP3    H248509   3.601   2.798   0.803 -1.3251 -0.1812  2.4966
 9032TIP3   OH248510   5.888   5.421  14.650 -0.2537 -0.2169  0.7755
 9032TIP3    H148511   5.797   5.391  14.650 -1.0372  1.9783  0.1382
 9032TIP3    H248512   5.911   5.430  14.742 -0.4790 -1.2754  0.9497
 9033TIP3   OH248513   5.364   6.339   6.480 -0.4100 -0.2995 -0.9215
 9033TIP3    H148514   5.299   6.396   6.440 -1.4419  0.4438  1.6636
 9033TIP3    H248515   5.314   6.265   6.514  0.5162 -1.1952 -1.4387
 9034TIP3   OH248516   1.806   1.801   4.605 -0.3285 -0.1270  0.3088
 9034TIP3    H148517   1.827   1.758   4.688  2.5253  2.5907  1.1783
 9034TIP3    H248518   1.754   1.877   4.630 -0.7127 -0.0723 -0.6059
 9035TIP3   OH248519   2.064   5.284   3.708  0.0937  0.0089 -0.7037
 9035TIP3    H148520   2.054   5.206   3.763 -0.8406 -0.1420 -1.0628
 9035TIP3    H248521   2.157   5.305   3.714  0.0151  0.0581  1.0150
 9036TIP3   OH248522   6.670   0.156  12.764  0.4470 -0.0196 -0.3932
 9036TIP3    H148523   6.675   0.072  12.811  0.1986  0.0352 -0.2713
 9036TIP3    H248524   6.630   0.134  12.680 -1.5701  0.3079  0.4369
 9037TIP3   OH248525   3.407   5.005  14.482  0.4577 -0.0090 -0.0972
 9037TIP3    H148526   3.313   5.024  14.473  0.0328 -2.0002 -0.2476
 9037TIP3    H248527   3.449   5.091  14.472 -1.3452  0.9781  0.2422
 9038TIP3   OH248528   1.338   6.337  13.145  0.0149  0.1512 -0.2339
 9038TIP3    H148529   1.336   6.265  13.208 -1.2955 -0.6891 -1.1657
 9038TIP3    H248530   1.299   6.411  13.192 -0.3489 -0.2817  0.1612
 9039TIP3   OH248531   6.354   0.240  13.161  0.1659  0.3860 -0.2646
 9039TIP3    H148532   6.339   0.174  13.093 -0.3294  0.8880 -0.6536
 9039TIP3    H248533   6.273   0.243  13.210  0.8196 -0.5996  0.9232
 9040TIP3   OH248534   4.072   1.263  11.783 -0.2625  0.0952 -0.0354
 9040TIP3    H148535   4.129   1.194  11.749  1.8068  1.6221  0.1032
 9040TIP3    H248536   4.132   1.334  11.806 -2.1276  1.2905  1.4706
 9041TIP3   OH248537   0.929   2.109  17.210  0.3085 -0.4492  0.0901
 9041TIP3    H148538   0.877   2.035  17.244  0.6185 -0.9986 -0.6041
 9041TIP3    H248539   0.985   2.134  17.283  0.2453 -0.9425  0.3127
 9042TIP3   OH248540   0.681   4.756  16.059 -0.0296 -0.5978  0.6559
 9042TIP3    H148541   0.776   4.766  16.061 -0.1235  2.0373 -1.6047
 9042TIP3    H248542   0.649   4.815  16.127 -0.0848 -0.1750  0.2653
 9043TIP3   OH248543   1.860   5.422   4.080  0.5359  0.5681 -0.3651
 9043TIP3    H148544   1.831   5.360   4.147  0.8468  0.8554  0.0392
 9043TIP3    H248545   1.797   5.412   4.009  0.1411  0.3342  0.0160
 9044TIP3   OH248546   2.341   4.028   1.428 -0.0202 -0.2279 -0.1041
 9044TIP3    H148547   2.392   4.034   1.509  2.1965 -1.0233 -1.3608
 9044TIP3    H248548   2.264   4.082   1.445  0.7832  0.3185  2.2248
 9045TIP3   OH248549   2.242   5.609  12.720  0.6498  0.4440 -0.0456
 9045TIP3    H148550   2.169   5.648  12.768  0.3465  1.6775 -1.4559
 9045TIP3    H248551   2.257   5.525  12.764  1.0967  1.9387  2.8660
 9046TIP3   OH248552   5.249   4.086   5.560 -0.1386  0.3676 -0.2868
 9046TIP3    H148553   5.304   4.053   5.632  2.7559  0.6296 -2.2169
 9046TIP3    H248554   5.162   4.093   5.598  1.3304  1.0913  3.3997
 9047TIP3   OH248555   6.461   4.695   2.055  0.6514 -0.5409 -0.0643
 9047TIP3    H148556   6.503   4.738   2.130 -0.2294  1.1871 -0.5022
 9047TIP3    H248557   6.515   4.719   1.980 -1.6069  2.7666 -0.8327
 9048TIP3   OH248558   0.260   4.877  12.590  0.3037 -0.3622 -0.2585
 9048TIP3    H148559   0.277   4.789  12.624  0.0840 -1.1691 -2.1050
 9048TIP3    H248560   0.241   4.863  12.497 -1.6536  1.4325 -0.1960
 9049TIP3   OH248561   5.980   4.894  11.228 -0.3708 -0.9281 -0.1021
 9049TIP3    H148562   5.911   4.862  11.287  1.0067 -2.3622  0.8420
 9049TIP3    H248563   5.992   4.823  11.165 -1.0097  0.1006 -1.4246
 9050TIP3   OH248564   5.461   1.006   1.434 -0.4951 -0.2857 -0.4119
 9050TIP3    H148565   5.424   1.018   1.347  1.0125 -0.3766 -1.0894
 9050TIP3    H248566   5.485   0.914   1.437 -2.1746 -0.7406  0.8000
 9051TIP3   OH248567   0.501   2.565   2.723  0.4795  0.0244  0.4723
 9051TIP3    H148568   0.511   2.518   2.641  1.4436  0.3945  0.3650
 9051TIP3    H248569   0.506   2.657   2.699  0.6340  0.1375  0.9265
 9052TIP3   OH248570   4.988   3.138   1.002 -0.1503  0.0166  0.8090
 9052TIP3    H148571   4.958   3.115   1.090 -2.7974 -0.1398 -0.0348
 9052TIP3    H248572   5.023   3.226   1.011 -1.2309  0.3703  1.8812
 9053TIP3   OH248573   2.762   0.327  14.852 -0.2781  0.0268  0.5369
 9053TIP3    H148574   2.790   0.262  14.787 -0.9013  1.0290 -0.8009
 9053TIP3    H248575   2.691   0.285  14.900 -0.2941 -0.4842  0.0765
 9054TIP3   OH248576   4.905   0.052  13.562  0.4058 -0.4158  0.6265
 9054TIP3    H148577   4.982   0.086  13.607  0.3381 -0.2013  0.5795
 9054TIP3    H248578   4.939  -0.017  13.504  0.8248  1.0062 -0.8769
 9055TIP3   OH248579   2.171   0.272   3.688 -0.3104  0.1320  0.1750
 9055TIP3    H148580   2.092   0.265   3.741  0.5946 -0.9714  1.4371
 9055TIP3    H248581   2.190   0.365   3.685 -1.1924  0.3342  0.5602
 9056TIP3   OH248582   5.254   0.280   2.985 -0.3619 -0.3548  0.1238
 9056TIP3    H148583   5.218   0.362   2.950 -1.0872 -0.7147 -0.0014
 9056TIP3    H248584   5.254   0.293   3.080 -0.3008 -0.1436  0.0964
 9057TIP3   OH248585   6.171   6.306  13.974 -0.9779  0.0816 -0.3810
 9057TIP3    H148586   6.088   6.272  13.939 -1.1764 -0.1888  0.3431
 9057TIP3    H248587   6.193   6.247  14.046 -0.1390  0.1371 -0.5798
 9058TIP3   OH248588   3.668   6.599  12.678 -0.4525 -0.5944  0.3225
 9058TIP3    H148589   3.593   6.543  12.659 -0.6420  0.1136 -1.1671
 9058TIP3    H248590   3.725   6.591  12.601  0.1619  0.2166  0.6722
 9059TIP3   OH248591   3.840   1.594  15.840  1.1424  0.5697 -0.4456
 9059TIP3    H148592   3.860   1.686  15.858 -1.0017  1.0266 -0.1500
 9059TIP3    H248593   3.840   1.589  15.744 -0.9682  1.4827 -0.5481
 9060TIP3   OH248594   6.697   5.983   1.270 -0.3066  0.3876 -0.7107
 9060TIP3    H148595   6.708   5.934   1.189 -0.4358  0.5727 -0.8388
 9060TIP3    H248596   6.682   5.916   1.337  1.0026  0.1465 -0.6315
 9061TIP3   OH248597   2.412   3.897   1.188  0.0492 -0.0318 -0.1304
 9061TIP3    H148598   2.388   3.944   1.267 -0.6613  0.8722 -0.8642
 9061TIP3    H248599   2.329   3.884   1.141  0.4484 -0.6040 -0.7014
 9062TIP3   OH248600   6.422   2.881  16.547  0.0047  0.7537 -0.4521
 9062TIP3    H148601   6.356   2.879  16.616  0.1037  0.0777 -0.3649
 9062TIP3    H248602   6.454   2.971  16.547 -2.0928  1.5628 -1.6468
 9063TIP3   OH248603   4.486   3.037   4.525  0.1036  0.2157 -0.0882
 9063TIP3    H148604   4.480   2.950   4.564  0.3904  0.2785  0.0941
 9063TIP3    H248605   4.569   3.037   4.478 -0.3096  0.0886 -0.8274
 9064TIP3   OH248606   4.914   2.034   4.423 -0.3567  0.0088  0.4113
 9064TIP3    H148607   4.891   1.954   4.471 -1.1811  0.2253  0.3852
 9064TIP3    H248608   4.965   2.002   4.348  0.2976 -0.3917  1.0089
 9065TIP3   OH248609   0.572   1.895  12.645 -0.2792  0.3410  0.0160
 9065TIP3    H148610   0.562   1.986  12.616  0.6381 -0.3698 -2.9181
 9065TIP3    H248611   0.656   1.894  12.691  1.1139  0.5750 -2.3380
 9066TIP3   OH248612   5.503   6.281  10.770  0.4750  0.5452  0.4185
 9066TIP3    H148613   5.594   6.274  10.742  0.2111  0.5081 -0.4507
 9066TIP3    H248614   5.481   6.194  10.804  0.3379  0.1268 -0.7033
 9067TIP3   OH248615   1.032   0.107  12.178 -0.2660 -0.1854  0.4449
 9067TIP3    H148616   1.055   0.019  12.206 -1.6584 -0.6714  0.1762
 9067TIP3    H248617   1.107   0.138  12.128 -0.5594 -2.0761 -1.2989
 9068TIP3   OH248618   4.412   2.553  13.150  0.0006 -0.6245  0.4603
 9068TIP3    H148619   4.316   2.552  13.156 -0.0663  0.1151 -0.3540
 9068TIP3    H248620   4.435   2.468  13.112 -0.4997  0.0430 -1.4222
 9069TIP3   OH248621   1.586   6.361  12.290  0.6421  0.1009 -0.4347
 9069TIP3    H148622   1.656   6.399  12.237  1.0726 -0.2517 -0.1337
 9069TIP3    H248623   1.545   6.436  12.333 -0.3265  0.4925 -1.9625
 9070TIP3   OH248624   1.470   4.328  12.583 -0.0425 -0.7288  0.1035
 9070TIP3    H148625   1.382   4.365  12.597 -0.9664 -3.0904  1.1713
 9070TIP3    H248626   1.529   4.402  12.595 -1.7671  0.4870  1.7923
 9071TIP3   OH248627   5.841   2.542  13.386  0.3061  0.0259 -0.5570
 9071TIP3    H148628   5.922   2.571  13.343 -0.2980  0.7906 -1.1989
 9071TIP3    H248629   5.845   2.581  13.474  0.4610  0.3580 -0.7113
 9072TIP3   OH248630   0.711   1.467   3.482  0.4284 -0.5401  0.2431
 9072TIP3    H148631   0.642   1.497   3.541  0.3041 -1.6128  0.6659
 9072TIP3    H248632   0.782   1.530   3.494 -0.4885  0.6221 -0.2507
 9073TIP3   OH248633   5.060   4.531  14.300  0.3811  0.0974  0.5661
 9073TIP3    H148634   4.992   4.598  14.298  0.5428  0.2601 -0.0873
 9073TIP3    H248635   5.014   4.449  14.289  0.3532  0.2866 -1.0590
 9074TIP3   OH248636   2.810   0.963  12.910  0.4072 -0.0567  0.4632
 9074TIP3    H148637   2.793   1.040  12.857  2.1354 -0.2544 -0.4756
 9074TIP3    H248638   2.815   0.996  13.000 -1.8429  0.3988  0.4705
 9075TIP3   OH248639   2.999   6.095   1.087  0.4673 -0.4785  0.5949
 9075TIP3    H148640   2.920   6.147   1.104  0.1104 -0.3415 -1.2191
 9075TIP3    H248641   2.978   6.007   1.119 -1.2751 -0.9727 -1.6272
 9076TIP3   OH248642   3.261   4.308   3.717 -0.1841 -0.5895  0.1417
 9076TIP3    H148643   3.307   4.294   3.799 -0.7326 -0.4132  0.4895
 9076TIP3    H248644   3.298   4.389   3.681 -1.0960  0.2660  1.0559
 9077TIP3   OH248645   0.273   0.455  11.666  0.6146 -0.7743  0.2507
 9077TIP3    H148646   0.335   0.527  11.656  0.3816 -0.7213 -1.1837
 9077TIP3    H248647   0.188   0.498  11.672  0.6220 -0.8797  1.1868
 9078TIP3   OH248648   4.048   5.262  11.388 -0.6536  0.2975 -0.8654
 9078TIP3    H148649   3.962   5.247  11.429 -0.2060  1.5385  0.6290
 9078TIP3    H248650   4.094   5.179  11.399 -0.9699  0.2339  0.1414
 9079TIP3   OH248651   2.985   5.496   6.181 -0.8850 -0.1782  0.2174
 9079TIP3    H148652   2.986   5.420   6.240 -2.5866 -0.2640  0.1712
 9079TIP3    H248653   2.896   5.499   6.147  0.0918 -0.3490 -2.6641
 9080TIP3   OH248654   0.469   0.551   6.392 -0.3874 -0.3231  0.3770
 9080TIP3    H148655   0.439   0.485   6.454 -1.8774 -0.9852 -0.9824
 9080TIP3    H248656   0.391   0.604   6.374  0.3847  0.7792  0.1851
 9081TIP3   OH248657   3.795   3.909   2.811 -0.5328  0.7720  0.1048
 9081TIP3    H148658   3.855   3.837   2.795 -1.7698 -0.5914  1.2128
 9081TIP3    H248659   3.782   3.909   2.906 -2.5255  0.7632 -0.1199
 9082TIP3   OH248660   4.747   3.916  15.146 -0.2271 -0.1758 -0.5419
 9082TIP3    H148661   4.705   3.997  15.115  0.2467  0.3037  0.0485
 9082TIP3    H248662   4.674   3.856  15.161 -0.7608  0.7444  0.7789
 9083TIP3   OH248663   6.584   2.610   0.178  0.0073 -0.2151  0.2017
 9083TIP3    H148664   6.575   2.629   0.085 -1.7897  2.3136  0.7950
 9083TIP3    H248665   6.678   2.617   0.194  0.1859  0.9047 -1.1381
 9084TIP3   OH248666   2.212   0.873  13.737  0.3356 -0.2722  0.8171
 9084TIP3    H148667   2.232   0.807  13.803  2.2004 -0.9926 -0.3737
 9084TIP3    H248668   2.284   0.936  13.743 -0.0185  0.2074  0.1812
 9085TIP3   OH248669   5.800   3.957   5.830 -0.4150 -0.3133 -0.2961
 9085TIP3    H148670   5.726   3.903   5.857 -0.3420  0.3102  1.2857
 9085TIP3    H248671   5.781   4.043   5.869  0.2478  0.3521 -1.4124
 9086TIP3   OH248672   5.790   6.603  15.834  0.4909 -0.6862  0.2000
 9086TIP3    H148673   5.794   6.696  15.810  1.0361 -1.4933 -3.4686
 9086TIP3    H248674   5.831   6.599  15.920  1.6289  2.3191 -0.0632
 9087TIP3   OH248675   2.221   1.615  14.634  0.0203 -0.3558  0.5283
 9087TIP3    H148676   2.150   1.614  14.699  0.0390  0.0344  0.5593
 9087TIP3    H248677   2.189   1.558  14.564 -0.0817 -0.6294  0.7945
 9088TIP3   OH248678   2.423   4.408   2.757  0.1222 -0.0562 -0.3197
 9088TIP3    H148679   2.345   4.352   2.756 -0.0290  0.0838  1.3530
 9088TIP3    H248680   2.497   4.347   2.749  0.0214 -0.7145  2.7284
 9089TIP3   OH248681   4.575   4.083  16.230  0.3100  0.5286  0.1712
 9089TIP3    H148682   4.614   4.118  16.150 -0.0652 -0.3192 -0.3945
 9089TIP3    H248683   4.499   4.138  16.246 -0.9531 -0.6600 -1.3614
 9090TIP3   OH248684   4.787   5.052  16.104  0.6891 -0.3885  0.0397
 9090TIP3    H148685   4.700   5.022  16.132  1.1869 -1.8468  0.1003
 9090TIP3    H248686   4.770   5.134  16.057 -0.8818 -1.3575 -1.1879
 9091TIP3   OH248687   3.705   2.902   3.466  0.2754  0.0732  0.8915
 9091TIP3    H148688   3.706   2.987   3.423  2.4472 -0.8387 -1.0410
 9091TIP3    H248689   3.787   2.898   3.515 -0.0714 -0.6859  1.4328
 9092TIP3   OH248690   1.221   6.333   0.239 -0.5507 -0.2073  0.3291
 9092TIP3    H148691   1.246   6.293   0.155  1.8025 -0.5460  1.1302
 9092TIP3    H248692   1.228   6.262   0.303 -0.2201  0.5397  1.1451
 9093TIP3   OH248693   2.696   4.470   0.288 -0.0636 -0.1960  0.2605
 9093TIP3    H148694   2.622   4.423   0.250  0.5564 -1.5442  0.6445
 9093TIP3    H248695   2.760   4.477   0.217 -1.2218  2.6528 -0.6433
 9094TIP3   OH248696   2.463   3.538  12.104 -0.2973  0.2942 -0.1442
 9094TIP3    H148697   2.411   3.469  12.147 -0.4631 -0.0703 -0.9159
 9094TIP3    H248698   2.545   3.539  12.153 -0.7366  0.3549  0.6171
 9095TIP3   OH248699   1.472   0.301  13.368  0.0003  0.2640  0.4638
 9095TIP3    H148700   1.514   0.366  13.312  0.3367 -0.6137 -0.3223
 9095TIP3    H248701   1.500   0.216  13.333 -1.8550 -0.3565  0.3535
 9096TIP3   OH248702   1.634   2.759  16.108  0.2398 -0.3192  0.1808
 9096TIP3    H148703   1.614   2.725  16.195 -0.8928  1.4828  0.6703
 9096TIP3    H248704   1.717   2.805  16.118 -1.5362  2.8940  1.2508
 9097TIP3   OH248705   2.945   2.841  16.704  0.1031 -0.4862 -0.4821
 9097TIP3    H148706   2.860   2.819  16.743  0.2977 -1.8128 -0.7521
 9097TIP3    H248707   2.926   2.914  16.646 -0.6893 -0.1879  0.1256
 9098TIP3   OH248708   0.555   6.217  16.483 -0.2878  0.4535 -0.6448
 9098TIP3    H148709   0.592   6.264  16.408  0.2773  0.3180 -0.4521
 9098TIP3    H248710   0.630   6.177  16.526 -0.5009  1.1662  0.4438
 9099TIP3   OH248711   6.393   5.554  11.516 -0.2731  0.4304  0.2997
 9099TIP3    H148712   6.456   5.607  11.468 -0.0016 -0.1138  0.0493
 9099TIP3    H248713   6.354   5.497  11.451 -0.3352  0.1036  0.6173
 9100TIP3   OH248714   6.173   4.150   5.528  0.7171 -0.1906 -0.8611
 9100TIP3    H148715   6.121   4.085   5.479  0.0157 -0.0982 -0.2629
 9100TIP3    H248716   6.205   4.211   5.461  0.2511 -0.3869 -1.2726
 9101TIP3   OH248717   4.277   4.437   0.253 -0.2835 -0.3318 -0.0418
 9101TIP3    H148718   4.313   4.387   0.179  0.1794 -0.4089  0.2308
 9101TIP3    H248719   4.223   4.374   0.300  0.3100 -0.5909  0.3089
 9102TIP3   OH248720   3.331   2.405  14.871  0.0153  0.1272  0.5278
 9102TIP3    H148721   3.276   2.459  14.927  0.4001  2.0380 -0.8380
 9102TIP3    H248722   3.420   2.416  14.905  0.1143  0.4615  0.1600
 9103TIP3   OH248723   4.606   6.058   5.837 -0.5696  0.2582  0.5404
 9103TIP3    H148724   4.573   5.970   5.860 -0.3943 -0.0673 -0.4046
 9103TIP3    H248725   4.530   6.115   5.848 -1.6315 -0.5308 -1.9087
 9104TIP3   OH248726   1.426   2.700  15.274  0.5391  0.5173 -0.1012
 9104TIP3    H148727   1.475   2.722  15.194  1.0974  2.8724  0.7999
 9104TIP3    H248728   1.492   2.695  15.342 -0.2945  4.2178  1.2341
 9105TIP3   OH248729   0.703   4.099   2.027 -0.0411 -0.2954 -0.3279
 9105TIP3    H148730   0.746   4.151   1.959  0.8044 -0.5739 -0.0115
 9105TIP3    H248731   0.766   4.096   2.099  0.4917 -2.8198 -0.8082
 9106TIP3   OH248732   6.525   4.086   3.896  0.4923 -0.1851  0.0959
 9106TIP3    H148733   6.569   4.170   3.911  0.3958 -0.2249  0.6042
 9106TIP3    H248734   6.565   4.053   3.815  1.4786 -0.2758  0.6005
 9107TIP3   OH248735   3.567   0.388  13.317  0.1180  0.0852 -0.2308
 9107TIP3    H148736   3.480   0.368  13.351 -0.6361  0.1234 -2.0438
 9107TIP3    H248737   3.557   0.471  13.272  0.8930 -0.3132 -1.1682
 9108TIP3   OH248738   5.784   0.658   2.872 -0.2912 -0.0681  0.2712
 9108TIP3    H148739   5.720   0.597   2.909  0.7145 -2.1536 -1.2391
 9108TIP3    H248740   5.752   0.677   2.784 -0.9035  2.1985  0.8947
 9109TIP3   OH248741   2.965   2.604  13.930 -0.4069 -0.2368 -0.2077
 9109TIP3    H148742   2.954   2.582  14.022 -1.6384 -0.2125 -0.3314
 9109TIP3    H248743   3.012   2.688  13.931 -2.6031  1.0788  0.5166
 9110TIP3   OH248744   2.510   4.287   0.149  0.1834 -0.0397 -0.4101
 9110TIP3    H148745   2.511   4.259   0.058  1.2011 -0.7546 -0.1962
 9110TIP3    H248746   2.425   4.259   0.182  0.2540 -0.7783 -0.8401
 9111TIP3   OH248747   4.623   0.397  11.331 -0.2073 -0.2734 -0.6017
 9111TIP3    H148748   4.595   0.483  11.363  0.2902  0.2743 -1.5868
 9111TIP3    H248749   4.542   0.348  11.321 -0.5030  0.0982 -0.0757
 9112TIP3   OH248750   3.284   3.778  12.496  0.2154 -0.0930 -0.2696
 9112TIP3    H148751   3.196   3.783  12.534 -0.5069  1.4497 -1.9668
 9112TIP3    H248752   3.315   3.690  12.518 -1.7187 -0.6590  0.4260
 9113TIP3   OH248753   2.740   1.354  16.894  0.4847 -0.1054 -0.3995
 9113TIP3    H148754   2.832   1.348  16.870  0.9149  1.3120  0.7851
 9113TIP3    H248755   2.695   1.295  16.832  2.3056 -1.8674 -0.1416
 9114TIP3   OH248756   5.883   2.972   5.605  0.4286  0.2203 -0.3744
 9114TIP3    H148757   5.853   2.957   5.516  1.1925 -0.7661 -0.4848
 9114TIP3    H248758   5.837   2.906   5.658  1.5907 -0.6405 -0.3939
 9115TIP3   OH248759   5.278   2.945   3.926  0.3527  0.1735 -0.0078
 9115TIP3    H148760   5.365   2.921   3.895  0.8054  0.1495  1.2286
 9115TIP3    H248761   5.257   3.027   3.880  0.7068 -0.1971 -0.8489
 9116TIP3   OH248762   0.024   5.636   0.790 -0.2035  0.3553 -0.7774
 9116TIP3    H148763   0.114   5.605   0.796 -0.6300 -0.9199 -0.6122
 9116TIP3    H248764  -0.004   5.611   0.701 -0.7998 -0.4588 -0.3729
 9117TIP3   OH248765   2.006   0.184  15.705  1.0284  0.1768  0.0627
 9117TIP3    H148766   2.008   0.275  15.677  0.5924  0.1184 -0.1636
 9117TIP3    H248767   1.990   0.188  15.799  0.7728  0.3280  0.0137
 9118TIP3   OH248768   2.970   6.689  13.001 -0.1200  0.4594 -0.3396
 9118TIP3    H148769   2.981   6.744  13.078  0.0825 -0.6812  0.4623
 9118TIP3    H248770   2.890   6.639  13.018 -0.4560  0.6913 -1.1853
 9119TIP3   OH248771   2.802   4.229  13.689  0.0644  0.9087  0.0405
 9119TIP3    H148772   2.818   4.322  13.707 -2.8111  1.2857  1.2973
 9119TIP3    H248773   2.745   4.230  13.612 -0.4463  0.2315  0.4048
 9120TIP3   OH248774   1.789   5.484  11.254 -0.5303  0.1577  0.1313
 9120TIP3    H148775   1.807   5.403  11.206 -0.6534  0.1197  0.1468
 9120TIP3    H248776   1.785   5.551  11.186 -0.8711  0.0773  0.0652
 9121TIP3   OH248777   6.334   5.346   5.846  0.2530  0.5263 -0.1897
 9121TIP3    H148778   6.260   5.378   5.794 -1.4995 -0.8772  1.2918
 9121TIP3    H248779   6.402   5.412   5.834 -1.3079  2.0160 -1.4297
 9122TIP3   OH248780   3.240   0.559  16.852 -0.6838  0.0872  0.1041
 9122TIP3    H148781   3.330   0.526  16.848 -0.2177  1.1694  1.0304
 9122TIP3    H248782   3.227   0.581  16.944 -2.6532 -2.0351  0.4043
 9123TIP3   OH248783   0.343   0.081  14.955  0.1181  0.0228 -0.5576
 9123TIP3    H148784   0.255   0.045  14.971 -0.2789  0.3946 -1.8070
 9123TIP3    H248785   0.362   0.132  15.033 -0.8037 -0.0257 -0.2844
 9124TIP3   OH248786   0.819   6.137  16.493 -0.2949 -0.6918 -0.7136
 9124TIP3    H148787   0.809   6.083  16.415 -3.9331  0.6716 -1.3650
 9124TIP3    H248788   0.881   6.089  16.548 -0.5292 -3.6052 -2.7998
 9125TIP3   OH248789   0.273   3.722   0.065  0.0870 -0.2134  0.1721
 9125TIP3    H148790   0.309   3.808   0.041  0.1374 -0.2633  0.0716
 9125TIP3    H248791   0.186   3.742   0.099  1.1025  0.1884  2.7670
 9126TIP3   OH248792   2.167   3.067   2.130  0.1251 -0.4388 -0.1893
 9126TIP3    H148793   2.221   3.014   2.072  0.7219  0.4553 -0.4701
 9126TIP3    H248794   2.195   3.042   2.218  1.4365  0.4132 -0.3309
 9127TIP3   OH248795   2.606   5.126   1.636  0.1488 -0.0132 -0.1815
 9127TIP3    H148796   2.653   5.178   1.570 -1.2860 -1.2911 -2.3317
 9127TIP3    H248797   2.635   5.036   1.620 -1.5784 -0.5766 -0.3182
 9128TIP3   OH248798   0.064   4.491   0.507  0.3533 -0.0261 -0.2708
 9128TIP3    H148799   0.015   4.455   0.581  0.9990 -0.0163  0.1679
 9128TIP3    H248800   0.148   4.517   0.544  0.0719  1.5635 -0.6527
 9129TIP3   OH248801   4.205   5.948  16.927 -0.4609 -0.3006 -0.5419
 9129TIP3    H148802   4.226   6.014  16.993  0.0452  0.1273 -1.1147
 9129TIP3    H248803   4.132   5.899  16.963 -1.1998  0.9273 -0.3389
 9130TIP3   OH248804   3.711   2.962  13.520  0.1252 -0.0282 -0.6321
 9130TIP3    H148805   3.758   2.993  13.597  0.5611  1.6312 -1.5098
 9130TIP3    H248806   3.619   2.961  13.547  0.4213 -1.1553  0.4128
 9131TIP3   OH248807   2.665   1.715   3.856 -0.1323 -0.4420  0.0769
 9131TIP3    H148808   2.595   1.651   3.870  0.5603 -0.9909  1.2638
 9131TIP3    H248809   2.635   1.794   3.901  0.5992 -1.1434  1.9258
 9132TIP3   OH248810   2.614   6.756   3.516 -0.1094 -0.3790  0.2146
 9132TIP3    H148811   2.582   6.837   3.556  0.7900 -0.2251  0.6271
 9132TIP3    H248812   2.707   6.771   3.502 -0.2369 -0.7238 -1.2321
 9133TIP3   OH248813   0.641   4.281  15.719 -0.2300  0.3140  0.2386
 9133TIP3    H148814   0.546   4.280  15.705 -0.0874  0.5681 -0.8272
 9133TIP3    H248815   0.655   4.348  15.786 -0.7231  0.9686 -0.2967
 9134TIP3   OH248816   4.495   3.922   1.697  0.6723  0.3472 -0.4610
 9134TIP3    H148817   4.490   3.929   1.602  0.8941 -2.1444 -0.7278
 9134TIP3    H248818   4.429   3.856   1.719  2.0943 -0.7214  0.8349
 9135TIP3   OH248819   1.086   2.723  15.978 -0.0041 -0.0863 -0.2483
 9135TIP3    H148820   1.033   2.770  15.913  0.9683 -0.1347 -1.1124
 9135TIP3    H248821   1.155   2.786  16.001 -0.0646 -0.2472  0.3784
 9136TIP3   OH248822   5.320   1.557   4.321  0.2645 -0.3795  0.7762
 9136TIP3    H148823   5.338   1.627   4.385 -0.0001  0.1351  0.2980
 9136TIP3    H248824   5.407   1.525   4.295  0.4436  0.6270  0.0755
 9137TIP3   OH248825   2.783   0.427   3.306  0.7337 -0.1205 -0.0649
 9137TIP3    H148826   2.828   0.369   3.367  0.4412  0.5179  0.7790
 9137TIP3    H248827   2.826   0.512   3.318  0.6504  0.0237 -0.7307
 9138TIP3   OH248828   0.741   2.951  14.464 -0.3691  0.5385 -0.1837
 9138TIP3    H148829   0.738   2.858  14.442  1.2626  0.4249 -0.0655
 9138TIP3    H248830   0.668   2.989  14.416 -0.8398 -0.7342 -0.5343
 9139TIP3   OH248831   3.922   1.243   0.561  0.5184 -0.2663  0.1337
 9139TIP3    H148832   3.851   1.211   0.504  1.6743 -0.4690 -1.2542
 9139TIP3    H248833   3.927   1.337   0.543  0.8733 -0.3268 -0.0940
 9140TIP3   OH248834   5.291   2.942   5.697  0.1795 -0.0204  0.2086
 9140TIP3    H148835   5.253   3.024   5.665  2.3107  0.3651 -1.5499
 9140TIP3    H248836   5.239   2.874   5.655 -1.9777  0.3416  2.1257
 9141TIP3   OH248837   5.216   5.843   0.751 -0.5976 -0.3184 -0.5937
 9141TIP3    H148838   5.208   5.750   0.728 -1.1021 -0.6854  0.9254
 9141TIP3    H248839   5.286   5.845   0.816 -1.9701  0.0153  0.9629
 9142TIP3   OH248840   0.627   5.849  11.434 -0.1141 -0.4676  0.2284
 9142TIP3    H148841   0.553   5.799  11.467 -0.9590 -0.5627 -1.6517
 9142TIP3    H248842   0.703   5.795  11.454 -0.9374 -2.2568 -1.1334
 9143TIP3   OH248843   5.100   6.589  11.554  0.3375  0.3379 -0.2888
 9143TIP3    H148844   5.070   6.535  11.481  1.3861 -0.0761 -0.4270
 9143TIP3    H248845   5.147   6.529  11.611  0.0704  0.7826  0.4178
 9144TIP3   OH248846   3.623   3.422  13.398  0.3172  0.5762 -0.6263
 9144TIP3    H148847   3.690   3.490  13.394  2.7119 -1.5738 -5.2930
 9144TIP3    H248848   3.557   3.450  13.335 -0.4889  0.1685  0.0166
 9145TIP3   OH248849   0.399   3.758  12.045 -0.0240  0.5121 -0.2862
 9145TIP3    H148850   0.454   3.797  11.977  1.3688  0.0834  0.5504
 9145TIP3    H248851   0.378   3.831  12.103 -1.1364  0.8594 -1.0824
 9146TIP3   OH248852   0.541   6.229  13.342 -0.0771  0.1902  0.0249
 9146TIP3    H148853   0.618   6.285  13.334  0.7851 -0.5975  2.0629
 9146TIP3    H248854   0.575   6.140  13.342 -1.4097 -0.4314 -2.8903
 9147TIP3   OH248855   5.500   1.233  16.412 -0.1574  0.2952  0.5292
 9147TIP3    H148856   5.576   1.175  16.402  1.0302  1.9257 -0.5284
 9147TIP3    H248857   5.464   1.241  16.324  0.3638  1.9747  0.4365
 9148TIP3   OH248858   2.715   5.677  10.744 -0.1754  0.4473 -0.0669
 9148TIP3    H148859   2.634   5.634  10.772 -0.8334  1.5025 -0.2685
 9148TIP3    H248860   2.701   5.769  10.764 -0.5099  1.2339 -3.3511
 9149TIP3   OH248861   5.710   2.214  11.318  0.4603  0.3379  0.1076
 9149TIP3    H148862   5.786   2.231  11.263  1.2253  0.1665  1.0795
 9149TIP3    H248863   5.649   2.166  11.261  2.6610 -3.0539  0.3090
 9150TIP3   OH248864   5.928   6.267   4.603 -0.6921  0.2771  0.2519
 9150TIP3    H148865   6.021   6.270   4.624 -0.9479 -0.7550  1.6573
 9150TIP3    H248866   5.926   6.254   4.508  0.5639  1.0098  0.0891
 9151TIP3   OH248867   1.526   2.375   0.718  0.8200 -0.6736  0.3357
 9151TIP3    H148868   1.473   2.433   0.772  0.4818 -1.6198  1.0312
 9151TIP3    H248869   1.557   2.431   0.646 -0.5998  0.0354  0.2542
 9152TIP3   OH248870   6.072   1.416   2.100 -0.2056 -0.0710  0.0954
 9152TIP3    H148871   6.091   1.423   2.194  1.3852 -0.1448 -0.1922
 9152TIP3    H248872   6.141   1.359   2.066 -0.2427  0.6603 -1.2696
 9153TIP3   OH248873   6.238   3.905  16.462 -0.2941 -0.6696 -0.5079
 9153TIP3    H148874   6.283   3.984  16.432  1.8573 -1.3063  0.8279
 9153TIP3    H248875   6.158   3.937  16.503  1.5676  1.1108  2.0358
 9154TIP3   OH248876   1.692   0.989  16.120 -0.2518  0.4291 -0.2029
 9154TIP3    H148877   1.742   1.036  16.053 -2.2476  1.1179 -1.3020
 9154TIP3    H248878   1.601   1.012  16.102 -0.8622  0.9875  3.0365
 9155TIP3   OH248879   6.687   1.726   4.303 -0.1426 -0.1434  0.8256
 9155TIP3    H148880   6.621   1.766   4.245  0.7679  0.1833 -0.0170
 9155TIP3    H248881   6.684   1.633   4.281 -0.0304 -0.0674  0.4700
 9156TIP3   OH248882   4.730   5.377  10.897  0.1469 -0.0709 -0.6566
 9156TIP3    H148883   4.814   5.402  10.937  0.1137 -1.6247  0.5095
 9156TIP3    H248884   4.670   5.370  10.971 -0.8797  0.4493 -1.4185
 9157TIP3   OH248885   4.704   1.999  16.167  0.3312  0.3554  0.0693
 9157TIP3    H148886   4.732   1.920  16.214 -0.8132 -0.1790 -0.1137
 9157TIP3    H248887   4.710   2.069  16.232 -1.5995 -0.4358  1.1814
 9158TIP3   OH248888   3.031   0.836  12.563  0.1940  0.0842  0.0524
 9158TIP3    H148889   3.079   0.814  12.483 -1.6191 -2.0819 -0.5354
 9158TIP3    H248890   2.944   0.861  12.533 -0.1910  0.2751  1.2781
 9159TIP3   OH248891   4.122   6.151   3.153 -0.1302  0.4206 -0.1057
 9159TIP3    H148892   4.187   6.221   3.150 -0.1769  0.6551  2.5521
 9159TIP3    H248893   4.065   6.169   3.078  1.8613  1.1576 -1.5227
 9160TIP3   OH248894   4.730   0.907  16.281 -0.1351  0.8411 -0.2204
 9160TIP3    H148895   4.657   0.965  16.262 -1.0491  0.2955  1.4872
 9160TIP3    H248896   4.719   0.834  16.220 -1.2678  0.5551  0.3121
 9161TIP3   OH248897   4.579   4.677   4.778  0.1907  0.6097 -0.2741
 9161TIP3    H148898   4.552   4.762   4.743  0.5104  1.8932  2.3727
 9161TIP3    H248899   4.671   4.688   4.801 -0.0153 -0.1058  1.0253
 9162TIP3   OH248900   2.905   1.081   0.152 -0.0225  0.4570  0.1055
 9162TIP3    H148901   2.817   1.073   0.190  0.2571 -0.2655  0.6343
 9162TIP3    H248902   2.958   1.021   0.204  1.0593  1.7755  0.5924
 9163TIP3   OH248903   0.879   5.694   4.938  0.1626  0.2599  0.0921
 9163TIP3    H148904   0.801   5.735   4.903 -2.8763 -2.0064  3.4448
 9163TIP3    H248905   0.918   5.760   4.995  2.8612  2.5220 -3.8398
 9164TIP3   OH248906   3.909   3.667   3.923  0.5399  0.1191  0.1165
 9164TIP3    H148907   3.901   3.762   3.930  0.3854  0.2102 -1.0561
 9164TIP3    H248908   3.831   3.640   3.874  0.8148 -0.5548  0.0352
 9165TIP3   OH248909   5.185   0.548   0.991 -0.0875  0.8288  0.0649
 9165TIP3    H148910   5.154   0.461   1.015 -1.8099  1.6799  1.0763
 9165TIP3    H248911   5.127   0.576   0.921  1.4998  0.5459 -1.4141
 9166TIP3   OH248912   0.530   3.074  13.766  0.4112  0.4530 -0.1019
 9166TIP3    H148913   0.437   3.055  13.776  0.6195 -0.5622  0.0423
 9166TIP3    H248914   0.545   3.152  13.818 -0.5135  1.0999 -0.7787
 9167TIP3   OH248915   0.763   3.906  11.429 -0.2250  0.3155  0.4204
 9167TIP3    H148916   0.830   3.950  11.481 -1.4183  1.0468  1.4006
 9167TIP3    H248917   0.703   3.869  11.494 -0.8574 -0.1834 -0.4243
 9168TIP3   OH248918   0.718   3.983   5.409  0.9406  0.2239  0.6734
 9168TIP3    H148919   0.639   3.930   5.420 -0.1667  1.3578 -1.2563
 9168TIP3    H248920   0.760   3.948   5.331  2.2631 -0.2204  1.5574
 9169TIP3   OH248921   1.479   2.775   4.052 -0.0086 -0.1345  0.1234
 9169TIP3    H148922   1.563   2.816   4.073  0.5395 -1.2756  0.2195
 9169TIP3    H248923   1.414   2.831   4.095  0.5588  1.5984 -1.1636
 9170TIP3   OH248924   6.300   6.611   4.206 -0.0451 -0.8825  0.6259
 9170TIP3    H148925   6.322   6.553   4.133  1.7928  0.3879  0.1085
 9170TIP3    H248926   6.227   6.664   4.174  1.5660  0.5691 -0.8563
 9171TIP3   OH248927   4.842   2.600   1.191  0.1744  0.4828 -0.2068
 9171TIP3    H148928   4.891   2.541   1.249  0.2233  0.0660 -0.6689
 9171TIP3    H248929   4.902   2.620   1.120  0.0590  0.8689 -0.1973
 9172TIP3   OH248930   5.678   4.914  11.663  0.2635 -0.3349 -0.1313
 9172TIP3    H148931   5.724   4.851  11.609 -1.1767 -1.4338 -0.1213
 9172TIP3    H248932   5.666   4.990  11.606 -0.4782 -1.1506 -1.0994
 9173TIP3   OH248933   4.134   2.495   3.849 -0.4311 -0.1476 -0.2809
 9173TIP3    H148934   4.181   2.414   3.829 -0.5709 -0.9383  2.2422
 9173TIP3    H248935   4.053   2.488   3.800 -0.5198 -1.6520  0.0305
 9174TIP3   OH248936   0.565   0.655  12.877 -0.0964  0.1430  0.4834
 9174TIP3    H148937   0.498   0.617  12.820 -1.4751  1.3580  1.2499
 9174TIP3    H248938   0.613   0.716  12.820 -0.9508  0.7653  0.4152
 9175TIP3   OH248939   3.637   4.333  14.068  0.1285  0.3753 -0.4165
 9175TIP3    H148940   3.585   4.296  14.139 -0.0081 -2.4491 -1.8760
 9175TIP3    H248941   3.602   4.293  13.989  1.9688  1.4360 -1.8436
 9176TIP3   OH248942   1.958   4.020  12.300 -0.4517 -0.7440 -0.5053
 9176TIP3    H148943   1.959   4.078  12.224 -0.7957 -0.7345 -0.5024
 9176TIP3    H248944   1.999   4.071  12.370 -0.6610 -0.5446 -0.5294
 9177TIP3   OH248945   5.089   3.000  13.160 -0.7019 -0.4818  0.1242
 9177TIP3    H148946   5.008   2.955  13.186 -0.7396  0.8390  2.5044
 9177TIP3    H248947   5.156   2.932  13.161 -0.6791 -0.6243  4.0139
 9178TIP3   OH248948   6.465   5.605   3.912  0.6810 -0.1334 -0.2213
 9178TIP3    H148949   6.427   5.594   3.999  0.8433  2.1175  0.1912
 9178TIP3    H248950   6.421   5.540   3.858 -0.3205 -0.7377  1.2758
 9179TIP3   OH248951   5.094   3.397   1.048  0.7653 -0.0396  0.1641
 9179TIP3    H148952   5.172   3.449   1.065  1.2343 -0.6129 -0.1953
 9179TIP3    H248953   5.022   3.460   1.048  1.4003  0.7188 -0.9628
 9180TIP3   OH248954   5.446   2.410   0.152  0.0312 -0.5835 -0.1039
 9180TIP3    H148955   5.506   2.414   0.226 -0.1605  0.5616  0.0086
 9180TIP3    H248956   5.479   2.338   0.098  1.7143  0.2542 -0.2301
 9181TIP3   OH248957   3.953   3.108  16.317 -0.1289  0.2826 -0.0275
 9181TIP3    H148958   3.860   3.113  16.296 -0.2273  0.6220  0.4744
 9181TIP3    H248959   3.995   3.162  16.250 -0.4374  1.3188  0.5772
 9182TIP3   OH248960   3.605   5.145   3.999 -0.0567  0.1415  0.3850
 9182TIP3    H148961   3.682   5.090   4.014  0.1908  0.2197 -0.5261
 9182TIP3    H248962   3.638   5.234   4.004 -0.3317  0.2051  1.2031
 9183TIP3   OH248963   1.617   6.207   4.148 -0.3130 -0.4513 -0.0835
 9183TIP3    H148964   1.540   6.152   4.133 -0.6526 -0.2132  0.7341
 9183TIP3    H248965   1.590   6.268   4.217  0.6360 -0.4163  0.2722
 9184TIP3   OH248966   5.169   1.429   5.891  0.2472  0.1657  0.0531
 9184TIP3    H148967   5.195   1.344   5.929 -0.0901  1.2375  2.9621
 9184TIP3    H248968   5.240   1.488   5.915  0.4199  0.7984 -1.8557
 9185TIP3   OH248969   3.409   6.768   5.037  0.7221  0.6639  0.5264
 9185TIP3    H148970   3.443   6.804   4.955 -0.9744  1.0947 -0.0300
 9185TIP3    H248971   3.351   6.697   5.010 -0.0673  0.9876  1.3120
 9186TIP3   OH248972   6.407   0.692  11.886  0.1174  0.2926 -0.5007
 9186TIP3    H148973   6.323   0.648  11.900  0.0598  0.6950  0.5855
 9186TIP3    H248974   6.387   0.763  11.826 -0.9358  2.0069  1.7303
 9187TIP3   OH248975   4.789   2.134   1.648  0.6704 -0.0678 -0.4742
 9187TIP3    H148976   4.788   2.050   1.694 -0.5496 -0.0259 -0.3911
 9187TIP3    H248977   4.809   2.199   1.716 -0.4438 -0.0827 -0.0973
 9188TIP3   OH248978   5.065   3.319  16.979  0.4543 -0.0311 -1.3495
 9188TIP3    H148979   5.087   3.411  16.967 -0.9919  0.3148 -1.5267
 9188TIP3    H248980   5.054   3.286  16.889  0.6228 -0.2829 -1.2766
 9189TIP3   OH248981   3.996   4.349  12.460 -0.3299 -0.1482  0.3466
 9189TIP3    H148982   4.071   4.389  12.416 -0.3284  0.7034  1.0966
 9189TIP3    H248983   3.996   4.258  12.428 -1.2622  0.7774 -2.6361
 9190TIP3   OH248984   5.106   2.132   2.616  0.2590  0.6877  0.0915
 9190TIP3    H148985   5.119   2.055   2.670  0.6956  0.5474 -0.2124
 9190TIP3    H248986   5.011   2.143   2.612  0.2324  1.4071  1.8815
 9191TIP3   OH248987   0.634   3.166  14.255  0.4030  0.4190  0.4818
 9191TIP3    H148988   0.728   3.176  14.240  0.3945 -0.8621 -0.5496
 9191TIP3    H248989   0.609   3.092  14.201 -1.3074  1.0518  0.3608
 9192TIP3   OH248990   6.205   0.378  12.855 -0.0169  0.1893 -0.8682
 9192TIP3    H148991   6.255   0.301  12.880 -2.7490 -1.4729 -0.0808
 9192TIP3    H248992   6.198   0.429  12.935  1.8801  1.4044 -1.4131
 9193TIP3   OH248993   6.676   4.769   1.899  0.1284  0.0966 -0.3311
 9193TIP3    H148994   6.687   4.736   1.810  1.5781 -2.3869  0.6612
 9193TIP3    H248995   6.762   4.803   1.923 -0.3400  1.0553  0.0491
 9194TIP3   OH248996   6.482   0.544   5.518 -0.5674  0.6107 -0.1225
 9194TIP3    H148997   6.436   0.580   5.594 -0.2746 -0.4139  0.5629
 9194TIP3    H248998   6.426   0.471   5.489 -0.5355  0.8228 -0.7195
 9195TIP3   OH248999   6.178   2.832  17.187  0.4760  0.4034 -0.0714
 9195TIP3    H149000   6.194   2.761  17.249 -0.8551 -1.3185 -1.5825
 9195TIP3    H249001   6.253   2.831  17.128 -0.0671 -0.5616 -0.7751
 9196TIP3   OH249002   4.414   0.392   0.852 -0.2160 -0.0415  0.3272
 9196TIP3    H149003   4.416   0.322   0.918 -0.5707 -1.0187 -0.6726
 9196TIP3    H249004   4.502   0.429   0.854 -0.3870  0.3617  1.7599
 9197TIP3   OH249005   0.718   1.060   6.495 -0.2411  0.4758  0.2913
 9197TIP3    H149006   0.710   1.011   6.577  0.2569 -0.1256 -0.0093
 9197TIP3    H249007   0.681   1.002   6.429  1.3763  0.0067 -0.2450
 9198TIP3   OH249008   6.585   1.578   2.652  0.8063  0.7059 -0.2351
 9198TIP3    H149009   6.523   1.545   2.717  0.3082  1.0739 -0.5216
 9198TIP3    H249010   6.671   1.564   2.692  0.6616 -1.4861 -0.5943
 9199TIP3   OH249011   3.260   4.814  16.742  0.1681  0.3423  0.8562
 9199TIP3    H149012   3.205   4.800  16.665  0.9430 -1.5102  0.5975
 9199TIP3    H249013   3.207   4.869  16.800 -0.8765  0.8100 -0.4946
 9200TIP3   OH249014   5.766   0.351   2.878 -0.1820 -0.0152  0.2037
 9200TIP3    H149015   5.777   0.268   2.833  0.0162 -0.1987  0.5894
 9200TIP3    H249016   5.672   0.367   2.875 -0.1247  0.2211 -0.7061
 9201TIP3   OH249017   3.267   1.322   3.347 -0.1553 -0.4258  0.1621
 9201TIP3    H149018   3.330   1.250   3.340  0.4205 -0.1145  1.6777
 9201TIP3    H249019   3.313   1.397   3.310  0.3628 -0.2255  1.1616
 9202TIP3   OH249020   3.529   4.520   4.564  0.5764 -0.0056 -0.0009
 9202TIP3    H149021   3.571   4.441   4.599  2.2427  1.8551  2.5217
 9202TIP3    H249022   3.446   4.526   4.612 -0.0967 -0.7558 -1.0195
 9203TIP3   OH249023   4.218   1.648   5.772 -0.1322  0.0967 -0.2752
 9203TIP3    H149024   4.213   1.642   5.677  1.9616 -1.2550 -0.3801
 9203TIP3    H249025   4.222   1.742   5.790  2.1144  0.3724 -1.7716
 9204TIP3   OH249026   2.084   6.015  16.277  0.0434  0.0036 -0.1580
 9204TIP3    H149027   2.123   5.934  16.308  1.6216  0.8192  0.0523
 9204TIP3    H249028   2.064   6.065  16.356 -1.4800 -0.3809 -0.2557
 9205TIP3   OH249029   6.639   2.388  14.072 -0.2514 -0.0966 -0.6993
 9205TIP3    H149030   6.561   2.340  14.047 -0.1038 -0.0418 -1.2783
 9205TIP3    H249031   6.710   2.344  14.025 -0.2110  1.1537 -1.8581
 9206TIP3   OH249032   2.078   4.128   3.512 -0.4534 -0.1818 -0.4095
 9206TIP3    H149033   2.132   4.194   3.468  0.7890 -0.4769  0.6240
 9206TIP3    H249034   2.097   4.047   3.465  1.0052 -0.5307  0.7018
 9207TIP3   OH249035   5.556   3.310  11.008 -0.4463  0.0745 -0.0863
 9207TIP3    H149036   5.600   3.392  11.029  0.6752 -0.3455 -0.7012
 9207TIP3    H249037   5.555   3.261  11.090 -1.9562  1.0494  0.5153
 9208TIP3   OH249038   3.001   5.662  16.936  0.2129  0.4681 -0.2161
 9208TIP3    H149039   3.076   5.642  16.879  0.9638  0.7249  0.6628
 9208TIP3    H249040   3.023   5.621  17.020 -1.4825 -1.0788 -0.4425
 9209TIP3   OH249041   2.859   3.033   2.487  0.1900 -0.0072  0.4445
 9209TIP3    H149042   2.853   3.000   2.398  0.4140  0.9407  0.0640
 9209TIP3    H249043   2.860   3.128   2.477  1.1116  0.1005  1.3960
 9210TIP3   OH249044   3.309   1.036   5.721  0.3293 -0.3561  0.7814
 9210TIP3    H149045   3.328   0.961   5.666 -0.8701 -1.5514  1.9064
 9210TIP3    H249046   3.214   1.033   5.733  0.1376  1.8268  0.2112
 9211TIP3   OH249047   2.739   0.247  13.508 -0.2232 -0.8044 -0.1373
 9211TIP3    H149048   2.665   0.223  13.453 -1.8274  0.3726  1.3856
 9211TIP3    H249049   2.761   0.166  13.554 -0.7024 -1.1276 -0.4612
 9212TIP3   OH249050   5.359   3.980  12.728 -0.0006  0.0244  0.0808
 9212TIP3    H149051   5.405   3.907  12.769  0.8929  0.5116 -0.0426
 9212TIP3    H249052   5.307   3.940  12.659  1.5916 -0.3444 -0.9502
 9213TIP3   OH249053   2.488   2.034  11.390 -0.1236  0.2836 -0.7370
 9213TIP3    H149054   2.537   1.951  11.390 -0.2635  0.1883  0.3788
 9213TIP3    H249055   2.548   2.097  11.350 -0.0373 -0.3651 -1.6535
 9214TIP3   OH249056   0.913   0.727   2.762 -0.0979 -0.4280 -0.0899
 9214TIP3    H149057   0.897   0.819   2.741 -2.0803 -0.7236 -0.0568
 9214TIP3    H249058   0.918   0.684   2.677  1.6904 -0.1964 -0.1331
 9215TIP3   OH249059   5.423   0.494  11.834  0.1853  0.4356 -0.2958
 9215TIP3    H149060   5.396   0.448  11.754 -0.6723  0.4239 -0.0164
 9215TIP3    H249061   5.420   0.587  11.810  0.3951  0.4102 -0.4173
 9216TIP3   OH249062   4.063   6.215  15.711 -0.0401 -0.4858  0.8942
 9216TIP3    H149063   4.059   6.196  15.617  0.2142  0.8686  0.5933
 9216TIP3    H249064   4.142   6.267  15.722  1.3911 -2.7832  2.2999
 9217TIP3   OH249065   3.961   6.438   0.121  0.3130 -0.2751  0.6335
 9217TIP3    H149066   3.987   6.361   0.172 -0.7886 -1.6108 -0.6791
 9217TIP3    H249067   3.980   6.414   0.030  1.0975  1.5376  0.2753
 9218TIP3   OH249068   1.378   1.429  17.166  0.0894 -0.0214 -0.7791
 9218TIP3    H149069   1.317   1.355  17.167 -1.4544  1.1935 -0.7619
 9218TIP3    H249070   1.390   1.451  17.259  0.9666 -0.5610 -0.7573
 9219TIP3   OH249071   3.397   4.680  10.938 -0.0628 -0.1313 -0.3246
 9219TIP3    H149072   3.432   4.769  10.939  0.7290 -0.4321  0.6156
 9219TIP3    H249073   3.464   4.629  10.892  0.5768 -0.6376  1.1210
 9220TIP3   OH249074   5.660   3.123   2.256 -0.1856  0.5468  0.2279
 9220TIP3    H149075   5.629   3.032   2.249  2.1064 -0.5490  2.5435
 9220TIP3    H249076   5.699   3.142   2.171 -0.5540 -0.7050 -0.2383
 9221TIP3   OH249077   1.585   3.909   1.940  0.4995 -0.2364 -0.1790
 9221TIP3    H149078   1.547   3.996   1.953  0.1297 -0.2081 -1.3824
 9221TIP3    H249079   1.648   3.920   1.869  2.3263 -0.4392  1.3121
 9222TIP3   OH249080   2.291   6.753   5.057 -0.0697  1.2021  0.4425
 9222TIP3    H149081   2.357   6.690   5.027  0.2074  2.5432 -2.0364
 9222TIP3    H249082   2.234   6.702   5.115  2.9007 -0.0837  2.4884
 9223TIP3   OH249083   5.525   4.434  15.568 -0.2836  0.1232  0.1771
 9223TIP3    H149084   5.564   4.432  15.656 -0.6106 -1.7316  0.3126
 9223TIP3    H249085   5.452   4.373  15.573 -1.4956  1.4219 -0.8799
 9224TIP3   OH249086   2.432   4.867   5.585 -0.2494 -0.0080 -0.0415
 9224TIP3    H149087   2.489   4.909   5.520 -1.1678  0.4936 -0.5493
 9224TIP3    H249088   2.483   4.869   5.666  0.5156  0.2871 -0.5173
 9225TIP3   OH249089   1.251   0.339   3.491  0.2006  0.2015 -0.6313
 9225TIP3    H149090   1.293   0.423   3.510  0.0740 -0.2263  1.8218
 9225TIP3    H249091   1.272   0.284   3.567 -1.3001 -1.3855 -1.3072
 9226TIP3   OH249092   4.674   1.567  13.624  0.8143 -0.0113 -0.5266
 9226TIP3    H149093   4.629   1.523  13.696  1.2514  0.5277  0.0847
 9226TIP3    H249094   4.765   1.572  13.652  0.5295  2.6944  0.1680
 9227TIP3   OH249095   6.549   1.344  11.633 -0.4201 -0.5667  0.0548
 9227TIP3    H149096   6.630   1.295  11.621 -0.7658 -1.1757  0.1319
 9227TIP3    H249097   6.500   1.330  11.552 -0.4156 -0.1327 -0.0260
 9228TIP3   OH249098   2.788   2.453  13.771 -0.0052  0.5445  0.1743
 9228TIP3    H149099   2.700   2.456  13.810  0.1098  2.8879  0.3778
 9228TIP3    H249100   2.841   2.509  13.828  1.9164 -1.5736  0.6130
 9229TIP3   OH249101   4.806   4.217  17.080  0.0856  0.0176  0.3246
 9229TIP3    H149102   4.846   4.132  17.100  0.8115  0.7016  1.9113
 9229TIP3    H249103   4.715   4.196  17.060  0.6422 -1.3073 -0.9967
 9230TIP3   OH249104   1.248   6.011  14.364 -0.0506 -0.5397 -0.1801
 9230TIP3    H149105   1.295   6.065  14.299  1.5169 -3.0613 -1.2869
 9230TIP3    H249106   1.185   6.072  14.403  0.0460  1.5509 -2.8888
 9231TIP3   OH249107   3.265   1.542  14.484 -0.2722 -0.5233  0.0120
 9231TIP3    H149108   3.291   1.474  14.546  3.0465  1.8295  1.5324
 9231TIP3    H249109   3.346   1.567  14.440 -1.5120  1.7586 -1.1918
 9232TIP3   OH249110   3.283   5.526  14.132 -0.0140  0.5906  0.1223
 9232TIP3    H149111   3.292   5.608  14.084  1.8557  0.1835 -0.3106
 9232TIP3    H249112   3.350   5.531  14.201  1.9224 -1.5503 -1.4354
 9233TIP3   OH249113   3.432   6.699  14.636 -0.2257  0.2114  0.2779
 9233TIP3    H149114   3.420   6.604  14.639 -1.8840  0.3797 -0.3257
 9233TIP3    H249115   3.509   6.711  14.580  0.2746 -0.7731  0.7196
 9234TIP3   OH249116   6.697   3.436   2.252  0.0460  0.1484 -0.0550
 9234TIP3    H149117   6.707   3.532   2.252  0.3423  0.1156  0.3602
 9234TIP3    H249118   6.606   3.423   2.222  0.4281  0.5061 -1.4863
 9235TIP3   OH249119   1.199   3.494   1.920  0.4005 -0.1062  0.7317
 9235TIP3    H149120   1.143   3.441   1.864  0.0445 -1.7048  2.4997
 9235TIP3    H249121   1.288   3.471   1.893  0.2806  1.2054 -0.9609
 9236TIP3   OH249122   1.532   6.574   2.913  0.0939  0.6691  0.4580
 9236TIP3    H149123   1.622   6.584   2.946  0.3136  1.2608 -0.2910
 9236TIP3    H249124   1.478   6.617   2.979  0.0955 -1.6618  2.0993
 9237TIP3   OH249125   6.015   0.075   4.854 -0.1608  0.1194 -0.7460
 9237TIP3    H149126   5.982   0.033   4.933  1.0338 -2.7737 -1.6666
 9237TIP3    H249127   5.943   0.068   4.791 -0.6514  1.2700 -0.3367
 9238TIP3   OH249128   1.879   5.449  16.609 -0.4725 -1.0304 -0.2960
 9238TIP3    H149129   1.868   5.545  16.608 -1.3894 -1.0708  1.6947
 9238TIP3    H249130   1.821   5.418  16.540  0.7843 -0.1129 -1.8470
 9239TIP3   OH249131   3.446   5.062   5.730  0.4983 -0.0211 -0.3175
 9239TIP3    H149132   3.449   5.120   5.654  1.4258  1.7098  0.9746
 9239TIP3    H249133   3.389   5.106   5.792 -0.6100 -1.6353 -0.1338
 9240TIP3   OH249134   2.950   4.084   0.856  0.1738 -0.5295 -0.5813
 9240TIP3    H149135   2.979   4.121   0.940 -0.1203  1.4706 -1.3021
 9240TIP3    H249136   2.980   3.993   0.859  1.6411 -0.0658  1.0044
 9241TIP3   OH249137   3.900   1.959   4.933 -0.2298  0.1607 -0.3920
 9241TIP3    H149138   3.856   1.876   4.955  0.0648  0.0725 -0.1146
 9241TIP3    H249139   3.962   1.971   5.005  1.1515 -0.4081 -1.4589
 9242TIP3   OH249140   3.005   5.767  11.572  0.1850  0.4767  0.1992
 9242TIP3    H149141   3.098   5.755  11.554  0.4505  2.8646 -0.3910
 9242TIP3    H249142   2.998   5.766  11.667  0.6219 -0.6928  0.2373
 9243TIP3   OH249143   4.999   5.008   4.325  0.2607 -0.2742  0.1364
 9243TIP3    H149144   4.997   5.095   4.365  0.4769 -1.0287  1.8731
 9243TIP3    H249145   5.082   5.005   4.276  0.2162  0.5005  0.0021
 9244TIP3   OH249146   3.813   4.951   3.362  0.3412  0.2870  0.5133
 9244TIP3    H149147   3.780   5.034   3.326 -0.7121  0.7503  2.4021
 9244TIP3    H249148   3.841   4.902   3.285  1.9535  2.7726 -0.6244
 9245TIP3   OH249149   6.398   2.073  15.920 -0.2652  0.0412 -0.1898
 9245TIP3    H149150   6.477   2.044  15.874 -0.1457  0.4926 -0.2731
 9245TIP3    H249151   6.373   1.998  15.973  0.8012  0.2317  0.6220
 9246TIP3   OH249152   4.117   0.458  12.762  0.2083  0.1419 -0.1034
 9246TIP3    H149153   4.179   0.423  12.826  1.1078 -0.3452 -1.1940
 9246TIP3    H249154   4.070   0.527  12.809  1.1088  0.0677  0.9596
 9247TIP3   OH249155   3.917   6.092   4.039 -0.6439  0.1547  0.2418
 9247TIP3    H149156   3.960   6.008   4.050 -1.5099 -0.3081  0.1497
 9247TIP3    H249157   3.929   6.113   3.947 -0.5861  0.0419  0.2240
 9248TIP3   OH249158   2.286   5.675   3.808 -0.6307  0.0004  0.1370
 9248TIP3    H149159   2.299   5.628   3.891 -1.5510 -0.7437 -0.1192
 9248TIP3    H249160   2.191   5.671   3.793 -0.5220  0.5046 -0.7396
 9249TIP3   OH249161   4.727   6.584  14.307 -0.4563  0.5014 -0.1340
 9249TIP3    H149162   4.775   6.597  14.390 -0.5221 -2.5530  0.4884
 9249TIP3    H249163   4.636   6.601  14.330 -0.6947 -1.8087  0.9358
 9250TIP3   OH249164   0.026   0.129  14.347  0.3100 -0.0933  0.1893
 9250TIP3    H149165  -0.064   0.159  14.362  0.8598  1.2937  0.9015
 9250TIP3    H249166   0.027   0.100  14.256 -0.2908  2.1764 -0.6067
 9251TIP3   OH249167   5.072   0.554  16.730 -0.7144  0.1301  0.0664
 9251TIP3    H149168   5.153   0.530  16.684 -1.8483  0.2084 -2.0852
 9251TIP3    H249169   5.072   0.500  16.809 -0.4407 -2.8119 -1.8062
 9252TIP3   OH249170   1.400   2.729  12.912  0.0988  0.1629  0.1443
 9252TIP3    H149171   1.430   2.770  12.993 -0.9604  1.9473 -0.3152
 9252TIP3    H249172   1.478   2.690  12.874  0.9936  1.0426  1.0445
 9253TIP3   OH249173   3.541   5.191  13.100  1.4491 -0.0746  0.0084
 9253TIP3    H149174   3.474   5.225  13.158  0.1898  0.1449 -1.5035
 9253TIP3    H249175   3.623   5.204  13.147  0.3400 -2.5683  3.0037
 9254TIP3   OH249176   1.688   5.393   6.195 -0.1779  0.1020  0.3908
 9254TIP3    H149177   1.664   5.330   6.263 -1.3879 -1.0687 -1.0131
 9254TIP3    H249178   1.721   5.338   6.123  1.2153  1.2992  0.0791
 9255TIP3   OH249179   1.963   2.604  13.105  0.4880 -0.3507  0.6236
 9255TIP3    H149180   2.049   2.567  13.128  2.1152  0.3368 -3.4676
 9255TIP3    H249181   1.914   2.530  13.069 -0.3798 -0.5345  2.0777
 9256TIP3   OH249182   6.060   3.137  17.044  0.1486  0.4857  0.2813
 9256TIP3    H149183   6.058   3.050  17.004 -0.2777  0.2733  0.7480
 9256TIP3    H249184   6.116   3.189  16.986  0.6813 -0.1854  0.1724
 9257TIP3   OH249185   3.811   0.053  16.903 -0.2984  0.4220  0.0055
 9257TIP3    H149186   3.860  -0.011  16.955  0.7802  0.7488 -0.5885
 9257TIP3    H249187   3.828   0.028  16.812 -0.6532  0.9678 -0.2134
 9258TIP3   OH249188   0.923   3.342   4.432 -0.3643 -0.6125 -0.2217
 9258TIP3    H149189   0.984   3.301   4.493 -0.7010 -0.7784  0.0081
 9258TIP3    H249190   0.940   3.300   4.348 -1.2048 -1.7780  0.1566
 9259TIP3   OH249191   3.794   3.619  13.449 -0.1226 -0.2412 -0.1408
 9259TIP3    H149192   3.884   3.643  13.470 -0.8536  3.7339 -0.6887
 9259TIP3    H249193   3.744   3.644  13.527 -0.9862 -0.3464 -0.6502
 9260TIP3   OH249194   1.889   2.944  16.446  0.2651  0.1566  0.0546
 9260TIP3    H149195   1.838   2.941  16.366  2.1099  1.2313 -1.2287
 9260TIP3    H249196   1.903   3.037  16.463  1.7912 -0.0960  0.3301
 9261TIP3   OH249197   2.471   2.014   5.543 -0.1117  0.6086 -0.7368
 9261TIP3    H149198   2.428   2.028   5.628 -1.5169  2.3822 -1.6776
 9261TIP3    H249199   2.400   1.988   5.485  0.9427 -1.2320 -1.2806
 9262TIP3   OH249200   1.464   3.781  16.790 -0.3456  0.2625  0.0939
 9262TIP3    H149201   1.477   3.724  16.866  0.7640  1.4816  0.8670
 9262TIP3    H249202   1.392   3.839  16.815 -0.0458  0.5988  0.1838
 9263TIP3   OH249203   4.059   2.735   5.761  0.2687  0.2993  0.3392
 9263TIP3    H149204   4.051   2.642   5.781 -2.8088  0.2768 -0.4129
 9263TIP3    H249205   4.146   2.759   5.792  1.1625 -2.7881  0.5923
 9264TIP3   OH249206   6.062   4.933  14.264 -0.2863 -0.1635  0.1561
 9264TIP3    H149207   5.998   4.911  14.196  0.1643 -0.2846 -0.2330
 9264TIP3    H249208   6.116   5.001  14.225 -0.7866  0.6474  0.8434
 9265TIP3   OH249209   2.993   5.842   3.828  0.2131  0.2183 -0.1011
 9265TIP3    H149210   2.907   5.849   3.786  0.7452  0.4753 -1.1848
 9265TIP3    H249211   2.991   5.759   3.874 -0.6534  0.2713 -0.0258
 9266TIP3   OH249212   0.330   3.317  11.113  0.0764 -0.5933  0.2139
 9266TIP3    H149213   0.332   3.222  11.123  1.4554 -0.3569  3.5771
 9266TIP3    H249214   0.258   3.347  11.169  0.1272  0.3863 -0.2101
 9267TIP3   OH249215   6.234   1.693  11.032 -0.3883 -0.3268 -0.7461
 9267TIP3    H149216   6.178   1.658  10.962 -1.7741  0.0451  0.1521
 9267TIP3    H249217   6.262   1.778  10.999 -1.8278  0.2815 -0.4806
 9268TIP3   OH249218   3.857   0.735  14.472 -0.5260  0.2471 -0.4542
 9268TIP3    H149219   3.769   0.766  14.493 -0.8504 -2.1165  2.2177
 9268TIP3    H249220   3.843   0.654  14.424  0.0238 -1.6235  2.3346
 9269TIP3   OH249221   3.042   5.064  17.180 -0.4334 -0.2863 -0.7014
 9269TIP3    H149222   3.121   5.118  17.184  0.0296 -0.8285 -1.8591
 9269TIP3    H249223   3.057   4.995  17.245  0.1247 -0.4613 -1.0035
 9270TIP3   OH249224   4.319   2.261   3.005 -0.0577 -0.0712  0.0296
 9270TIP3    H149225   4.406   2.226   2.984  0.2668  0.6992  0.0747
 9270TIP3    H249226   4.334   2.353   3.026 -1.0619  0.4330 -1.3095
 9271TIP3   OH249227   3.844   1.328   1.070 -0.3884  0.0501  0.5188
 9271TIP3    H149228   3.815   1.288   0.988  0.0685  0.0853  0.3349
 9271TIP3    H249229   3.816   1.267   1.138 -1.4742  0.4119  0.4008
 9272TIP3   OH249230   6.425   1.588  14.258 -0.2590  0.7550 -0.1775
 9272TIP3    H149231   6.514   1.623  14.259 -0.0889  0.4342 -1.6586
 9272TIP3    H249232   6.433   1.502  14.217 -1.1866  0.5029  0.1244
 9273TIP3   OH249233   2.754   3.978   2.886  0.9494 -0.3336  0.7427
 9273TIP3    H149234   2.702   4.057   2.871  2.1735  0.0759 -2.0482
 9273TIP3    H249235   2.690   3.907   2.893 -0.1016  0.3387 -1.2473
 9274TIP3   OH249236   2.663   2.187  13.641  0.0312 -0.9806  0.2785
 9274TIP3    H149237   2.748   2.142  13.642  0.2810 -0.5170  1.4569
 9274TIP3    H249238   2.636   2.189  13.733  0.4299  2.0336  0.4170
 9275TIP3   OH249239   3.364   6.424  14.682  0.5140 -0.3517 -0.5912
 9275TIP3    H149240   3.337   6.370  14.607  2.0302 -1.6748 -0.2507
 9275TIP3    H249241   3.314   6.389  14.756  2.3271 -2.1950 -0.1360
 9276TIP3   OH249242   5.469   1.626  14.406  0.1900 -0.0192 -0.6704
 9276TIP3    H149243   5.534   1.560  14.433 -0.0636  0.5514  1.5772
 9276TIP3    H249244   5.385   1.583  14.421  0.0320  0.5837  0.2876
 9277TIP3   OH249245   2.802   4.492  11.927  0.0915  0.2549  0.5803
 9277TIP3    H149246   2.805   4.431  11.854 -0.4516  1.0744 -0.1474
 9277TIP3    H249247   2.733   4.458  11.984 -1.8710  1.3957 -0.9814
 9278TIP3   OH249248   5.462   5.997  16.113 -0.0541 -0.0965  0.0855
 9278TIP3    H149249   5.394   5.991  16.180 -0.6234 -0.1207 -0.4849
 9278TIP3    H249250   5.514   6.073  16.138 -0.4364  0.0681  0.3967
 9279TIP3   OH249251   1.356   1.154   2.972  0.4493  0.4333  0.3304
 9279TIP3    H149252   1.425   1.204   2.929  0.0293  0.1451 -0.6959
 9279TIP3    H249253   1.344   1.077   2.917  0.7583 -0.5758  1.6303
 9280TIP3   OH249254   4.674   2.881   0.286 -0.0887 -0.3704  0.2791
 9280TIP3    H149255   4.709   2.792   0.284 -0.2088 -0.4105  0.0051
 9280TIP3    H249256   4.712   2.924   0.210  0.2401 -0.0805  0.5980
 9281TIP3   OH249257   1.993   6.714   3.194 -0.3725  0.4844  0.5006
 9281TIP3    H149258   1.994   6.750   3.283 -1.2571  0.0462  0.7030
 9281TIP3    H249259   1.973   6.789   3.138 -0.8950  0.5659  0.7866
 9282TIP3   OH249260   1.096   0.135   1.470 -0.0278 -0.4628  0.5559
 9282TIP3    H149261   1.089   0.138   1.566 -0.6034  1.3867  0.4813
 9282TIP3    H249262   1.173   0.188   1.450 -0.6913  0.2935 -0.0584
 9283TIP3   OH249263   2.981   1.403  12.187  0.2499  0.1586  0.5239
 9283TIP3    H149264   3.068   1.374  12.161  0.2624 -1.5134  2.2108
 9283TIP3    H249265   2.990   1.426  12.279 -1.1863 -0.4828  0.8520
 9284TIP3   OH249266   2.435   2.744   6.041  0.1327  0.5641 -0.2164
 9284TIP3    H149267   2.413   2.734   6.133  0.4425 -1.2560 -0.3149
 9284TIP3    H249268   2.475   2.661   6.016  0.9128  1.3562 -1.7595
 9285TIP3   OH249269   5.704   3.179   5.117  0.9892 -0.4809  0.1962
 9285TIP3    H149270   5.792   3.145   5.104  0.2487 -2.5165  0.0539
 9285TIP3    H249271   5.692   3.180   5.212  1.3168  0.2421  0.2322
 9286TIP3   OH249272   2.188   2.070   4.773 -0.5445 -0.0189  0.7528
 9286TIP3    H149273   2.259   2.122   4.736 -0.6966  0.6880  1.4086
 9286TIP3    H249274   2.178   2.104   4.863 -0.2397 -1.5977  1.4179
 9287TIP3   OH249275   4.735   3.475  17.149 -0.0727  0.5223  0.0274
 9287TIP3    H149276   4.827   3.494  17.130  1.1079 -2.5098  1.8754
 9287TIP3    H249277   4.727   3.490  17.243 -0.9984 -0.6566  0.1631
 9288TIP3   OH249278   5.579   3.789   5.891 -0.0908 -0.0870  0.1421
 9288TIP3    H149279   5.502   3.754   5.845 -0.5728 -1.0434  1.5953
 9288TIP3    H249280   5.549   3.802   5.981  1.6262 -1.2357  0.9361
 9289TIP3   OH249281   0.300   2.607  13.289 -0.0836 -0.0398 -0.2709
 9289TIP3    H149282   0.377   2.599  13.345 -0.2879 -3.3717 -0.2920
 9289TIP3    H249283   0.336   2.621  13.202  0.4183 -0.0235 -0.0681
 9290TIP3   OH249284   4.598   6.566  14.861  0.0865 -0.1717 -0.0938
 9290TIP3    H149285   4.627   6.647  14.902  1.3996  0.4064 -2.0388
 9290TIP3    H249286   4.507   6.557  14.887  0.5797  0.6181  2.1290
 9291TIP3   OH249287   6.145   5.230   0.742 -0.1387 -0.3629 -0.1123
 9291TIP3    H149288   6.206   5.201   0.675 -1.1090 -0.7040 -0.8764
 9291TIP3    H249289   6.165   5.176   0.818 -1.2895 -2.4433 -1.2084
 9292TIP3   OH249290   2.375   6.078   1.225  0.0203 -0.0723 -0.4320
 9292TIP3    H149291   2.430   6.083   1.147  1.0051 -0.9909  0.1874
 9292TIP3    H249292   2.436   6.078   1.298 -0.6042 -3.2888  0.2289
 9293TIP3   OH249293   6.099   5.073   4.095  0.1578  0.2864 -0.3979
 9293TIP3    H149294   6.088   4.999   4.155  0.3676  0.6575  0.1031
 9293TIP3    H249295   6.156   5.039   4.026 -1.3710 -0.6344 -1.2628
 9294TIP3   OH249296   1.464   5.001  13.677 -0.3754  0.1570 -0.1511
 9294TIP3    H149297   1.421   5.060  13.614 -0.5146  0.2766  0.0566
 9294TIP3    H249298   1.481   4.922  13.627 -0.0430  0.4309 -0.4800
 9295TIP3   OH249299   3.256   0.537   2.842 -0.1261  0.0597  0.2731
 9295TIP3    H149300   3.235   0.487   2.763  0.5728 -2.9145  1.7862
 9295TIP3    H249301   3.307   0.476   2.895  0.3438  2.2916  2.5827
 9296TIP3   OH249302   3.231   4.934   0.229 -0.1040 -0.4746 -0.5548
 9296TIP3    H149303   3.241   5.028   0.246  0.8851 -0.9023  1.4963
 9296TIP3    H249304   3.138   4.922   0.212 -0.2304  0.8837 -0.9105
 9297TIP3   OH249305   4.995   5.564   4.871 -0.1829  0.0041 -0.4597
 9297TIP3    H149306   4.937   5.604   4.936  2.3611  1.5437  1.0323
 9297TIP3    H249307   5.075   5.545   4.920  1.4147  0.0924 -2.8908
 9298TIP3   OH249308   6.490   3.899  13.535  0.8934 -0.1221 -0.8477
 9298TIP3    H149309   6.532   3.984  13.525  2.9099 -0.9666  0.0162
 9298TIP3    H249310   6.520   3.867  13.620 -1.5420 -0.8080 -0.1539
 9299TIP3   OH249311   4.844   4.979  15.795 -0.1156  0.2033 -0.1219
 9299TIP3    H149312   4.823   4.970  15.887  0.0826  0.5957 -0.0352
 9299TIP3    H249313   4.897   4.902  15.774  1.8311  1.2540  0.6714
 9300TIP3   OH249314   2.273   6.370  15.949  0.6399 -0.1516 -0.1817
 9300TIP3    H149315   2.287   6.298  15.888 -0.0472 -0.4236 -0.0247
 9300TIP3    H249316   2.273   6.449  15.894  0.0033 -0.3949 -0.5413
 9301TIP3   OH249317   3.595   5.924   1.369 -0.0331  0.2185 -0.1797
 9301TIP3    H149318   3.677   5.972   1.371 -0.5206  1.0404  1.2028
 9301TIP3    H249319   3.548   5.953   1.447 -1.7246 -0.0866 -1.0353
 9302TIP3   OH249320   5.716   4.807   4.465  0.4873  0.0388  0.2221
 9302TIP3    H149321   5.805   4.796   4.497  0.2670 -0.0780  0.8149
 9302TIP3    H249322   5.665   4.742   4.514  0.1668 -0.2437 -0.4842
 9303TIP3   OH249323   5.646   3.281   1.193 -0.6679 -0.6091 -0.1140
 9303TIP3    H149324   5.658   3.262   1.286  0.3244  1.3866  0.2231
 9303TIP3    H249325   5.664   3.198   1.149 -1.6833 -1.7302  1.4771
 9304TIP3   OH249326   5.744   6.409  16.484  0.3566 -0.0511 -0.0751
 9304TIP3    H149327   5.808   6.344  16.512  0.6459  0.2061 -0.1468
 9304TIP3    H249328   5.683   6.359  16.429  0.2938 -0.3677  0.2749
 9305TIP3   OH249329   1.254   1.660  14.163 -0.1228  0.1410 -0.4941
 9305TIP3    H149330   1.197   1.622  14.095  1.2400 -2.4244 -0.3173
 9305TIP3    H249331   1.338   1.673  14.119 -0.0625  1.3338 -0.0493
 9306TIP3   OH249332   1.002   6.214   5.569 -0.8459 -0.4816 -0.0090
 9306TIP3    H149333   0.943   6.174   5.633 -0.6179 -0.7446  0.0415
 9306TIP3    H249334   0.957   6.293   5.540 -1.1818 -0.6340  0.0943
 9307TIP3   OH249335   1.864   4.269   1.375  0.1059 -0.0773 -0.0920
 9307TIP3    H149336   1.938   4.322   1.405  0.2789 -0.1326 -0.4226
 9307TIP3    H249337   1.890   4.237   1.289 -0.0601 -0.5808  0.0430
 9308TIP3   OH249338   0.422   5.324  11.593  0.5405 -0.1436 -0.5697
 9308TIP3    H149339   0.378   5.294  11.513  0.0949 -0.8388 -0.0705
 9308TIP3    H249340   0.384   5.271  11.663  0.9469  0.4414  0.1070
 9309TIP3   OH249341   5.774   1.040   5.642 -0.5393 -0.3758 -0.9146
 9309TIP3    H149342   5.743   0.964   5.691  2.7661 -0.9793  0.5466
 9309TIP3    H249343   5.867   1.021   5.625  0.7214  3.6920  0.3519
 9310TIP3   OH249344   0.210   3.609   2.548  0.6562 -0.6101  0.3521
 9310TIP3    H149345   0.221   3.542   2.480 -1.1912 -0.6996  0.0907
 9310TIP3    H249346   0.217   3.692   2.502  0.6628 -0.6488  0.2835
 9311TIP3   OH249347   2.837   0.209  13.874 -0.3179 -0.4070 -0.1900
 9311TIP3    H149348   2.770   0.254  13.823 -0.1293 -0.1840 -0.2453
 9311TIP3    H249349   2.876   0.278  13.928  0.6024 -0.3130 -0.9422
 9312TIP3   OH249350   3.421   1.213  14.958 -0.2181  0.3174  0.9253
 9312TIP3    H149351   3.400   1.285  15.018 -4.1090 -0.2372  0.5465
 9312TIP3    H249352   3.445   1.256  14.876 -0.2040  1.1475  1.3532
 9313TIP3   OH249353   0.267   3.738  11.541  0.2742  0.3009  0.2393
 9313TIP3    H149354   0.196   3.744  11.476 -0.2002 -1.4566  0.5551
 9313TIP3    H249355   0.222   3.738  11.626  0.3384 -3.2248  0.4213
 9314TIP3   OH249356   1.003   0.106  14.451 -0.2294  0.0184  0.3340
 9314TIP3    H149357   0.973   0.016  14.462 -1.0957  0.3466  0.7822
 9314TIP3    H249358   1.039   0.130  14.536 -0.4081  0.2427  0.3460
 9315TIP3   OH249359   2.534   5.159   5.645  0.2805  0.3208 -0.3903
 9315TIP3    H149360   2.548   5.170   5.740  1.6832 -1.6708 -0.2970
 9315TIP3    H249361   2.439   5.150   5.636  0.2052 -0.7763  1.0334
 9316TIP3   OH249362   1.915   5.338   1.686 -0.3425  0.8053 -0.1826
 9316TIP3    H149363   1.976   5.347   1.613 -0.3431  3.1686  0.0387
 9316TIP3    H249364   1.834   5.380   1.655 -0.0470  2.6796  1.4640
 9317TIP3   OH249365   4.006   4.974   6.178  0.3164  0.3552  0.4459
 9317TIP3    H149366   3.958   4.921   6.114  1.2642 -0.1643  0.1512
 9317TIP3    H249367   4.034   4.912   6.245  2.0062  0.3284 -0.2423
 9318TIP3   OH249368   6.285   3.153   3.631  0.4561  0.1986  0.2165
 9318TIP3    H149369   6.295   3.108   3.548 -2.4027 -1.0575  0.4590
 9318TIP3    H249370   6.206   3.206   3.621  0.9811  1.3287  1.6066
 9319TIP3   OH249371   5.604   3.140  13.535  0.2115 -0.3021 -0.0073
 9319TIP3    H149372   5.678   3.199  13.547 -0.2305  0.0511  1.0911
 9319TIP3    H249373   5.610   3.079  13.608 -1.0726  0.2695  0.5921
 9320TIP3   OH249374   0.485   3.902  14.337 -0.3006  0.2674 -0.3432
 9320TIP3    H149375   0.451   3.985  14.302 -0.0684 -0.2091 -1.7900
 9320TIP3    H249376   0.551   3.928  14.401 -1.6296  1.1960  0.7154
 9321TIP3   OH249377   2.206   0.018  10.998  0.1387  0.0734  0.0277
 9321TIP3    H149378   2.250   0.003  10.915  0.1290  0.3831 -0.0360
 9321TIP3    H249379   2.155   0.098  10.984  0.5683  0.4394  0.5024
 9322TIP3   OH249380   6.303   6.120  10.746  0.4217 -0.1332 -0.1883
 9322TIP3    H149381   6.283   6.127  10.653  0.2598  1.9279 -0.0487
 9322TIP3    H249382   6.389   6.079  10.749  0.5907  0.1170 -1.2642
 9323TIP3   OH249383   1.291   1.802  13.767 -0.3432 -0.7885  0.2254
 9323TIP3    H149384   1.322   1.892  13.756  0.0649 -0.7369  1.6202
 9323TIP3    H249385   1.199   1.805  13.740  0.2110 -0.4528 -1.8120
 9324TIP3   OH249386   4.654   0.888   1.685 -0.0861  0.0697  0.4303
 9324TIP3    H149387   4.680   0.978   1.663 -0.2393  0.1345  0.5128
 9324TIP3    H249388   4.569   0.898   1.729  0.4464 -0.0198  1.5097
 9325TIP3   OH249389   3.612   4.752   0.380  0.3635 -0.1254  0.9671
 9325TIP3    H149390   3.606   4.667   0.422  0.4970 -0.6355 -0.0200
 9325TIP3    H249391   3.623   4.733   0.287  0.3088  0.9676  0.7138
 9326TIP3   OH249392   1.525   1.289   0.467 -0.4186  0.7251 -0.3198
 9326TIP3    H149393   1.487   1.206   0.436  1.7891 -0.5888  0.2752
 9326TIP3    H249394   1.559   1.268   0.554 -0.2536  2.4273  0.0495
 9327TIP3   OH249395   5.447   6.684  12.409  0.3061 -0.2861 -0.5936
 9327TIP3    H149396   5.521   6.629  12.383  1.5826  1.1725 -0.2060
 9327TIP3    H249397   5.397   6.630  12.471  1.6808 -0.9043  0.0121
 9328TIP3   OH249398   6.550   1.319   0.462  0.1177 -0.4206  0.3862
 9328TIP3    H149399   6.561   1.375   0.539 -1.8500 -0.4900  0.7581
 9328TIP3    H249400   6.555   1.378   0.388  1.3034 -0.2499  0.5770
 9329TIP3   OH249401   1.592   6.417   4.849 -0.2611  0.1192 -0.3690
 9329TIP3    H149402   1.604   6.324   4.831  1.3779 -0.1801  1.8330
 9329TIP3    H249403   1.674   6.459   4.822 -0.2267  0.5971  0.4256
 9330TIP3   OH249404   2.264   5.366  12.550  0.2924 -0.8807  0.6406
 9330TIP3    H149405   2.298   5.383  12.637  1.4852 -0.2689  0.0749
 9330TIP3    H249406   2.341   5.367  12.493 -0.5139 -0.8445 -0.4871
 9331TIP3   OH249407   2.107   4.088  15.517  0.4992 -0.5441 -0.7574
 9331TIP3    H149408   2.065   4.003  15.506  0.5107 -0.8506  1.1457
 9331TIP3    H249409   2.035   4.149  15.535  0.6185 -0.4836 -0.4730
 9332TIP3   OH249410   5.764   5.668  12.999 -0.0846  0.0198 -0.5996
 9332TIP3    H149411   5.756   5.634  12.910 -0.9814  1.6731 -1.1990
 9332TIP3    H249412   5.697   5.619  13.049 -1.2728  0.7699 -1.4071
 9333TIP3   OH249413   4.619   4.292   0.346 -0.2201 -0.5019  0.0213
 9333TIP3    H149414   4.692   4.235   0.320  1.4125  1.4626  0.0156
 9333TIP3    H249415   4.541   4.238   0.334  0.8188 -1.4403 -3.9579
 9334TIP3   OH249416   3.851   1.246   5.680  0.1786  0.3817 -0.7887
 9334TIP3    H149417   3.767   1.278   5.711  1.0097 -0.0827  2.3159
 9334TIP3    H249418   3.885   1.318   5.625 -0.6535  2.1963  0.9333
 9335TIP3   OH249419   6.683   1.953  15.882 -0.2905 -0.0345 -0.0302
 9335TIP3    H149420   6.727   2.009  15.819 -0.5767  0.4358  0.1840
 9335TIP3    H249421   6.752   1.923  15.941 -0.4453  2.0166  1.3168
 9336TIP3   OH249422   4.173   5.045  11.461  0.2699 -0.1604 -0.1531
 9336TIP3    H149423   4.217   5.026  11.544 -0.3522  0.9469  0.4586
 9336TIP3    H249424   4.123   4.965  11.442  0.7582 -0.5864  0.3101
 9337TIP3   OH249425   2.960   4.894  11.720  0.2939 -0.1915 -0.0879
 9337TIP3    H149426   2.901   4.845  11.778  0.8589 -2.2485 -1.1286
 9337TIP3    H249427   3.038   4.838  11.715  1.7763  1.7707  0.1307
 9338TIP3   OH249428   5.577   1.296   4.460 -0.0690 -0.0767  0.2124
 9338TIP3    H149429   5.554   1.385   4.433 -1.4241 -0.6677 -0.6933
 9338TIP3    H249430   5.651   1.308   4.521  0.3203  1.5943 -0.5161
 9339TIP3   OH249431   6.759   4.901  13.042  0.6149 -0.5750  0.3162
 9339TIP3    H149432   6.667   4.891  13.016 -0.3761  2.5208  2.1248
 9339TIP3    H249433   6.755   4.925  13.135  3.2094  0.4301  0.2506
 9340TIP3   OH249434   5.021   6.731   0.258  0.3390 -0.5272 -0.3217
 9340TIP3    H149435   5.114   6.738   0.239  0.7731  2.6068  2.0940
 9340TIP3    H249436   5.014   6.660   0.322  0.9477 -1.1352 -0.9174
 9341TIP3   OH249437   5.763   2.498  10.569 -0.4160  0.2086  0.5704
 9341TIP3    H149438   5.707   2.427  10.600 -1.0622 -0.4453 -1.9155
 9341TIP3    H249439   5.702   2.568  10.545 -0.1473 -0.1678 -1.3133
 9342TIP3   OH249440   6.270   5.793   2.723 -0.2056 -0.3370 -0.2234
 9342TIP3    H149441   6.217   5.865   2.759 -1.6155 -1.4462  0.0503
 9342TIP3    H249442   6.305   5.749   2.801 -0.8290 -0.9928 -0.3049
 9343TIP3   OH249443   5.143   1.910   2.781 -0.6215  0.0372  0.3797
 9343TIP3    H149444   5.139   1.964   2.860  2.5953 -0.3768  0.9339
 9343TIP3    H249445   5.149   1.820   2.814  0.5336 -0.1547 -0.3077
 9344TIP3   OH249446   5.650   6.611  12.728  0.7539  0.1064  0.2047
 9344TIP3    H149447   5.726   6.555  12.743  1.3529  1.1225  1.1402
 9344TIP3    H249448   5.686   6.691  12.690 -0.0781 -0.0802 -1.0341
 9345TIP3   OH249449   5.139   0.671  15.020 -0.3701 -0.2770 -0.4384
 9345TIP3    H149450   5.186   0.604  15.071  0.7275  1.5556  1.0811
 9345TIP3    H249451   5.157   0.648  14.929  0.6815 -1.5733  0.0566
 9346TIP3   OH249452   1.568   1.406  13.973  0.2752 -0.1402 -0.3090
 9346TIP3    H149453   1.533   1.345  14.038  1.7713  1.3372  2.0504
 9346TIP3    H249454   1.501   1.411  13.905 -1.6078 -1.4418  1.3488
 9347TIP3   OH249455   2.558   2.552  10.572  0.2437  0.3458 -0.4177
 9347TIP3    H149456   2.617   2.620  10.537  1.2060 -0.2662 -0.0247
 9347TIP3    H249457   2.479   2.600  10.597  0.9756  1.3617  0.0318
 9348TIP3   OH249458   0.187   5.554  14.137 -0.6416  0.1306  0.3531
 9348TIP3    H149459   0.149   5.637  14.165  0.2257  0.2057  1.3555
 9348TIP3    H249460   0.169   5.550  14.043 -1.6688  0.9179  0.4966
 9349TIP3   OH249461   2.792   1.777  13.916  0.3203  0.0568 -0.1852
 9349TIP3    H149462   2.836   1.772  14.001  0.8750  0.7344 -0.4269
 9349TIP3    H249463   2.773   1.686  13.894  2.3017 -0.3314 -0.4247
 9350TIP3   OH249464   6.172   1.321  11.208 -0.0005 -0.3471  0.0502
 9350TIP3    H149465   6.086   1.347  11.242 -0.7317  0.7498 -2.4182
 9350TIP3    H249466   6.233   1.386  11.245 -0.9158  1.3884 -1.3156
 9351TIP3   OH249467   0.328   5.720   1.202  0.0362 -0.2327  0.5842
 9351TIP3    H149468   0.324   5.661   1.126 -2.1443  1.8780 -1.1332
 9351TIP3    H249469   0.382   5.793   1.172 -1.9474  1.2696  0.4676
 9352TIP3   OH249470   0.562   5.193   1.854  0.3225  1.0375  0.2165
 9352TIP3    H149471   0.589   5.145   1.775  0.9526  1.7228 -0.0005
 9352TIP3    H249472   0.533   5.125   1.915 -3.2506  0.6418 -1.6741
 9353TIP3   OH249473   2.445   1.820  13.308 -0.7647  0.1696  0.2965
 9353TIP3    H149474   2.452   1.910  13.338  0.2510 -0.4373  2.0276
 9353TIP3    H249475   2.494   1.818  13.226  1.0560  0.7533  1.3213
 9354TIP3   OH249476   0.642   5.640  15.048  0.3880 -0.2972 -0.0401
 9354TIP3    H149477   0.620   5.727  15.083  0.1687 -0.0749 -0.7115
 9354TIP3    H249478   0.702   5.603  15.112 -1.0838 -0.4698  1.3104
 9355TIP3   OH249479   2.739   0.825  15.905  0.1330 -0.0404  0.0214
 9355TIP3    H149480   2.735   0.794  15.814  0.0349  0.8458 -0.2876
 9355TIP3    H249481   2.733   0.920  15.898 -2.7844 -0.0533  1.0991
 9356TIP3   OH249482   1.839   0.758  16.519 -0.0237 -0.2993 -0.5768
 9356TIP3    H149483   1.848   0.803  16.604 -3.3936  1.4284 -0.9630
 9356TIP3    H249484   1.783   0.683  16.537 -0.5812 -0.0457 -1.2186
 9357TIP3   OH249485   5.359   3.127  10.751  0.0137  0.3120  0.7525
 9357TIP3    H149486   5.449   3.159  10.758 -0.0872  1.1561 -1.1774
 9357TIP3    H249487   5.367   3.032  10.758  0.8229  0.4651  2.3623
 9358TIP3   OH249488   6.661   5.562  17.221  0.0578 -0.1725 -0.2078
 9358TIP3    H149489   6.651   5.629  17.288  2.0371  0.3457 -0.3653
 9358TIP3    H249490   6.642   5.480  17.266 -1.6089  0.3978  0.1848
 9359TIP3   OH249491   6.439   0.823   1.067 -0.1196  0.6289 -0.1963
 9359TIP3    H149492   6.408   0.904   1.027 -0.0274  0.9094  0.2838
 9359TIP3    H249493   6.359   0.774   1.088 -0.1672  0.4681 -0.7344
 9360TIP3   OH249494   5.378   6.373  14.646  0.1791 -0.3273 -0.0778
 9360TIP3    H149495   5.341   6.428  14.576  0.4669  0.2680  0.2336
 9360TIP3    H249496   5.346   6.412  14.727 -1.6885 -2.0850  0.1283
 9361TIP3   OH249497   5.098   0.234  10.689 -0.2382  0.3691  0.4677
 9361TIP3    H149498   5.003   0.230  10.694 -0.2541  0.4423  0.2483
 9361TIP3    H249499   5.118   0.213  10.598  0.0823 -1.9754  1.0277
 9362TIP3   OH249500   6.003   2.466   4.628  0.8774  0.5638 -0.6383
 9362TIP3    H149501   6.021   2.391   4.686 -1.6267 -0.1987 -0.7280
 9362TIP3    H249502   6.009   2.429   4.540 -0.8609  0.2949 -0.6711
 9363TIP3   OH249503   3.568   2.675   1.174  0.2110  0.0521  0.0410
 9363TIP3    H149504   3.634   2.609   1.192 -0.7799 -0.1297  4.1969
 9363TIP3    H249505   3.587   2.745   1.237 -0.6843  2.2846 -2.0131
 9364TIP3   OH249506   3.068   1.349   4.633  0.4861 -0.3931 -0.8976
 9364TIP3    H149507   2.992   1.298   4.604  0.2062 -0.0265 -0.8055
 9364TIP3    H249508   3.057   1.357   4.727  1.6121 -1.9407 -0.5935
 9365TIP3   OH249509   2.437   1.942  10.849  0.3685 -0.1787 -0.1052
 9365TIP3    H149510   2.360   1.942  10.792 -1.2213  2.4198  1.8052
 9365TIP3    H249511   2.485   2.021  10.824 -0.0206  0.6574  1.6192
 9366TIP3   OH249512   3.204   2.608   5.735 -0.7678  0.3405  0.2553
 9366TIP3    H149513   3.242   2.641   5.654 -0.4695 -1.0798 -0.2138
 9366TIP3    H249514   3.128   2.663   5.751  0.9814  2.7626  0.7889
 9367TIP3   OH249515   5.198   2.443  16.296 -0.0278  0.5411 -0.5261
 9367TIP3    H149516   5.107   2.414  16.307  0.4196 -1.2782 -1.2602
 9367TIP3    H249517   5.191   2.525  16.247 -1.2976  0.8865  0.1836
 9368TIP3   OH249518   0.765   4.504   3.931 -0.4229 -0.1622  0.2941
 9368TIP3    H149519   0.681   4.534   3.966 -0.1942 -0.8181  1.4520
 9368TIP3    H249520   0.742   4.429   3.876 -0.8992  1.4794 -1.9083
 9369TIP3   OH249521   0.781   2.504  17.067  0.6298  0.5646 -0.0584
 9369TIP3    H149522   0.870   2.529  17.093  0.2249 -0.4072  2.5121
 9369TIP3    H249523   0.757   2.432  17.126 -1.8909  0.8401 -0.6154
 9370TIP3   OH249524   6.048   5.024  15.262  0.0713  0.4631 -0.4732
 9370TIP3    H149525   6.039   5.067  15.177 -1.5308  0.4469 -0.3375
 9370TIP3    H249526   6.001   4.941  15.253 -0.0827  0.4390  0.3996
 9371TIP3   OH249527   6.780   5.021  14.086 -0.3037  0.0480  0.1242
 9371TIP3    H149528   6.786   4.926  14.100 -0.2084 -0.2592 -1.7312
 9371TIP3    H249529   6.840   5.058  14.151  0.9826 -1.2830 -0.2391
 9372TIP3   OH249530   5.906   1.476   0.056  0.2247  0.0571  0.0067
 9372TIP3    H149531   5.983   1.449   0.006 -0.0060 -0.9578  0.1670
 9372TIP3    H249532   5.929   1.455   0.147 -0.5257 -0.9704 -0.0308
 9373TIP3   OH249533   3.262   2.534  16.184 -0.2406  0.0189 -0.8285
 9373TIP3    H149534   3.206   2.467  16.222 -0.0966  0.2760 -0.1544
 9373TIP3    H249535   3.318   2.486  16.123 -0.2810 -0.4432 -0.5067
 9374TIP3   OH249536   0.448   0.358  12.179 -0.2219 -0.3771  0.8826
 9374TIP3    H149537   0.436   0.347  12.274 -0.9065 -0.6076  0.7756
 9374TIP3    H249538   0.438   0.270  12.143 -1.2410 -0.1108  0.4745
 9375TIP3   OH249539   0.806   0.722   3.017  0.4818  0.2357 -0.1633
 9375TIP3    H149540   0.869   0.707   2.946  0.2541  2.0804 -0.8062
 9375TIP3    H249541   0.813   0.815   3.036 -2.6309  0.7236 -0.8319
 9376TIP3   OH249542   5.812   6.030  12.670  0.4398  0.5727 -0.5452
 9376TIP3    H149543   5.904   6.026  12.697  0.7854  0.5374 -1.6791
 9376TIP3    H249544   5.813   6.084  12.591 -0.7531  2.0250  0.3820
 9377TIP3   OH249545   2.179   6.444  17.128 -0.2961 -0.2398 -0.0261
 9377TIP3    H149546   2.120   6.369  17.128 -1.1762  0.3098 -3.0445
 9377TIP3    H249547   2.235   6.432  17.051  1.3651  0.8945  0.9311
 9378TIP3   OH249548   1.993   3.616   1.396  0.3736  0.0146  0.0483
 9378TIP3    H149549   2.063   3.672   1.430 -1.1108  1.0587  1.5588
 9378TIP3    H249550   1.962   3.568   1.472 -0.5358 -0.4382 -0.5933
 9379TIP3   OH249551   4.726   2.261  12.156  0.0280 -0.0885  0.1700
 9379TIP3    H149552   4.789   2.270  12.084  1.0831  0.4824  1.1191
 9379TIP3    H249553   4.753   2.181  12.201 -0.6201 -0.4365 -0.0504
 9380TIP3   OH249554   0.159   5.574   2.876 -0.0587  0.3254 -0.0953
 9380TIP3    H149555   0.150   5.480   2.890  2.5616  0.1174  0.8037
 9380TIP3    H249556   0.203   5.606   2.955  0.4386  2.0316 -1.0018
 9381TIP3   OH249557   1.365   5.974  13.384  0.0272 -0.4604 -0.0127
 9381TIP3    H149558   1.318   5.900  13.346  0.8429 -1.1960  0.3714
 9381TIP3    H249559   1.297   6.038  13.404 -0.6994 -1.1208 -0.3224
 9382TIP3   OH249560   4.778   1.281  10.715  0.0899 -0.1774 -0.7860
 9382TIP3    H149561   4.823   1.342  10.656  0.8853 -0.2311 -0.2369
 9382TIP3    H249562   4.848   1.234  10.760 -0.4312  0.8946  1.3036
 9383TIP3   OH249563   5.241   4.980  13.224  0.5316 -0.1060  0.6368
 9383TIP3    H149564   5.211   4.922  13.154 -0.8528  0.4490  0.7251
 9383TIP3    H249565   5.326   4.945  13.250  1.3095 -0.0452 -1.6203
 9384TIP3   OH249566   4.873   0.278   4.362 -0.4057 -0.7009  0.1519
 9384TIP3    H149567   4.925   0.297   4.285 -0.9687 -0.5487 -0.1982
 9384TIP3    H249568   4.900   0.343   4.427 -1.4800  0.5858 -0.6433
 9385TIP3   OH249569   3.044   6.356   6.119  0.3071 -0.2871  0.5631
 9385TIP3    H149570   3.012   6.391   6.202 -0.4097  1.8270 -0.5349
 9385TIP3    H249571   3.103   6.285   6.144 -0.2342 -0.0081  2.8448
 9386TIP3   OH249572   4.352   4.124  17.024 -0.3843 -0.5464 -0.0303
 9386TIP3    H149573   4.313   4.054  16.972 -1.4820  0.3608 -0.4804
 9386TIP3    H249574   4.446   4.115  17.010 -0.5314 -1.7294 -0.3298
 9387TIP3   OH249575   2.817   0.985  14.745  0.5672 -0.1660  0.0158
 9387TIP3    H149576   2.811   0.909  14.689 -0.1569  0.0952 -0.2722
 9387TIP3    H249577   2.776   0.958  14.828  1.4786 -0.4952  0.3747
 9388TIP3   OH249578   2.211   2.874   5.459 -0.1628 -0.2669  0.9334
 9388TIP3    H149579   2.206   2.796   5.515  1.7685 -0.7587  0.4826
 9388TIP3    H249580   2.240   2.841   5.374  0.7444  0.9487  0.7453
 9389TIP3   OH249581   5.816   5.653  11.392 -0.2656 -0.1030 -0.1505
 9389TIP3    H149582   5.896   5.702  11.370 -0.1465 -0.1936  0.0779
 9389TIP3    H249583   5.830   5.567  11.354  0.5971 -0.7522  1.5261
 9390TIP3   OH249584   5.252   4.281  11.806 -0.5148  0.5708 -0.2193
 9390TIP3    H149585   5.221   4.237  11.727 -1.3613  1.8201 -0.6294
 9390TIP3    H249586   5.205   4.238  11.877  1.2234 -1.4434 -0.2045
 9391TIP3   OH249587   1.982   4.004   4.440  0.3350 -0.2008  0.4114
 9391TIP3    H149588   2.036   3.982   4.516 -0.0332 -1.5589  0.3121
 9391TIP3    H249589   2.042   4.044   4.378  1.0598 -0.9454  0.6228
 9392TIP3   OH249590   0.600   5.632   4.147 -0.5593 -0.0647  0.1092
 9392TIP3    H149591   0.658   5.559   4.127  0.1927  0.0788  1.6330
 9392TIP3    H249592   0.524   5.592   4.189 -2.1367 -0.3666 -2.8033
 9393TIP3   OH249593   2.896   5.345   1.968 -0.4850 -0.0218 -0.4723
 9393TIP3    H149594   2.819   5.309   1.925 -0.6802  0.0848 -0.2136
 9393TIP3    H249595   2.901   5.436   1.937 -1.5326  0.5518  0.9129
 9394TIP3   OH249596   0.923   4.455   1.395 -0.2845 -0.1829  0.8944
 9394TIP3    H149597   0.832   4.482   1.392 -0.2956 -0.2533  0.5487
 9394TIP3    H249598   0.965   4.505   1.325 -0.5997 -2.1247 -0.7782
 9395TIP3   OH249599   4.792   0.843  15.711  0.5636 -0.0481  0.6269
 9395TIP3    H149600   4.818   0.830  15.803  1.2333 -0.7271  0.3545
 9395TIP3    H249601   4.716   0.900  15.716  0.7101  0.0934  1.5998
 9396TIP3   OH249602   0.849   6.616  13.870  0.0733  0.1420 -0.0270
 9396TIP3    H149603   0.813   6.548  13.927 -1.5865  1.5099  0.6525
 9396TIP3    H249604   0.899   6.568  13.804  0.5289 -1.5954  1.5088
 9397TIP3   OH249605   1.179   3.323  14.076  0.5457  0.1382 -0.4350
 9397TIP3    H149606   1.220   3.284  14.154  1.7526  1.3489 -0.4389
 9397TIP3    H249607   1.102   3.268  14.060  0.5559 -0.4510  1.3036
 9398TIP3   OH249608   3.034   3.640   3.639  0.3283 -0.1261 -0.0872
 9398TIP3    H149609   3.035   3.710   3.705  0.5399 -0.4611  0.2649
 9398TIP3    H249610   3.049   3.686   3.557 -3.0715  0.7619 -0.3607
 9399TIP3   OH249611   6.518   4.804   2.364  0.2061 -0.1668  0.0823
 9399TIP3    H149612   6.442   4.808   2.421  0.8879  0.6415  0.9845
 9399TIP3    H249613   6.508   4.879   2.304  1.2121  1.1581  1.4770
 9400TIP3   OH249614   5.488   5.054  15.799 -0.4577 -0.0724 -0.5546
 9400TIP3    H149615   5.393   5.050  15.790 -0.4775  1.0926 -1.1957
 9400TIP3    H249616   5.520   5.067  15.709  0.2906 -0.2838 -0.3282
 9401TIP3   OH249617   5.160   2.640   5.654 -0.2503 -0.4160 -0.4183
 9401TIP3    H149618   5.195   2.648   5.566  1.6443 -0.1835  0.3085
 9401TIP3    H249619   5.075   2.685   5.650 -0.4990 -0.9725 -2.2477
 9402TIP3   OH249620   2.492   3.849  15.568  0.4403  0.3982  1.3326
 9402TIP3    H149621   2.542   3.770  15.547  0.1417  0.2972  0.9843
 9402TIP3    H249622   2.515   3.911  15.499 -1.2113 -0.2288  0.1696
 9403TIP3   OH249623   5.861   1.098  17.092 -0.0773 -0.1427  0.2333
 9403TIP3    H149624   5.865   1.046  17.172 -0.0300  0.6315  0.7513
 9403TIP3    H249625   5.779   1.146  17.100 -0.6477 -0.9234 -0.7472
 9404TIP3   OH249626   1.729   3.330   1.469 -0.0646 -0.2655  0.1488
 9404TIP3    H149627   1.669   3.261   1.496  0.5193 -0.0486  2.1801
 9404TIP3    H249628   1.678   3.411   1.474 -0.1288 -0.2959 -0.0133
 9405TIP3   OH249629   1.623   2.607  12.853 -0.0458  0.1098 -0.3889
 9405TIP3    H149630   1.647   2.529  12.803 -0.2318  0.9579 -1.8568
 9405TIP3    H249631   1.676   2.602  12.932 -0.1328 -1.5538 -0.3915
 9406TIP3   OH249632   1.698   0.152  12.765 -0.7450  0.1276  0.5493
 9406TIP3    H149633   1.728   0.221  12.824 -2.8075  1.4847  0.1386
 9406TIP3    H249634   1.731   0.178  12.679 -0.5181 -0.0563  0.5804
 9407TIP3   OH249635   0.573   1.218   1.323  0.7374 -0.3223 -0.0072
 9407TIP3    H149636   0.577   1.220   1.419 -0.0447 -1.9863  0.0870
 9407TIP3    H249637   0.662   1.198   1.295  0.6214 -1.5163  0.4550
 9408TIP3   OH249638   2.696   6.353   5.979  0.4517  0.2022 -0.0340
 9408TIP3    H149639   2.638   6.425   6.004 -0.7358 -0.8715  0.4186
 9408TIP3    H249640   2.763   6.394   5.925  1.5299  2.1858  2.5691
 9409TIP3   OH249641   4.294   5.093  12.320  0.1108 -0.3306  0.2529
 9409TIP3    H149642   4.282   5.182  12.352  0.6904 -0.3791  0.6215
 9409TIP3    H249643   4.246   5.091  12.237 -0.0484  0.2725  0.3246
 9410TIP3   OH249644   6.299   4.805  15.243  0.3130 -0.0468  0.3214
 9410TIP3    H149645   6.270   4.793  15.153  1.1178  0.2785  0.0091
 9410TIP3    H249646   6.319   4.717  15.274 -1.0971 -0.2917  0.5895
 9411TIP3   OH249647   3.860   2.208  11.503  0.1739 -0.0614  0.5601
 9411TIP3    H149648   3.940   2.178  11.546 -0.0067 -0.0573  0.9012
 9411TIP3    H249649   3.828   2.131  11.456  0.7259  0.1106 -0.1135
 9412TIP3   OH249650   3.249   2.296   0.312  0.2079  0.2840  0.3262
 9412TIP3    H149651   3.197   2.224   0.346 -0.3607 -0.3848 -1.7834
 9412TIP3    H249652   3.320   2.254   0.263  0.6068  1.1553  0.1232
 9413TIP3   OH249653   6.416   6.164  11.137 -0.0180 -0.0358  0.6731
 9413TIP3    H149654   6.465   6.137  11.059  2.2058 -2.2023  2.6425
 9413TIP3    H249655   6.418   6.259  11.135  3.1651 -0.0117 -0.0883
 9414TIP3   OH249656   3.252   4.440   2.096  0.1934  0.4201  0.2823
 9414TIP3    H149657   3.305   4.519   2.104 -0.6503  0.8356  2.4756
 9414TIP3    H249658   3.263   4.394   2.180 -1.9751 -0.0449  0.3935
 9415TIP3   OH249659   1.743   3.914   0.225  0.0880  0.4003 -0.2594
 9415TIP3    H149660   1.746   3.987   0.162 -2.1951  0.4177 -0.4646
 9415TIP3    H249661   1.696   3.950   0.300 -0.1854 -0.5730  0.0513
 9416TIP3   OH249662   5.249   1.259   4.816 -0.4499 -0.0186  0.2914
 9416TIP3    H149663   5.248   1.233   4.724  0.0354 -0.2370  0.3437
 9416TIP3    H249664   5.179   1.325   4.824  0.8681  1.5753 -0.6951
 9417TIP3   OH249665   0.261   3.556  15.582 -1.0328  0.3218 -0.2316
 9417TIP3    H149666   0.292   3.628  15.527  0.0509 -0.2851 -0.4322
 9417TIP3    H249667   0.327   3.488  15.572 -1.4956 -0.2943  0.8118
 9418TIP3   OH249668   4.361   1.540  12.096 -0.2029 -0.2077 -0.3591
 9418TIP3    H149669   4.284   1.540  12.152 -1.7017  1.1559 -2.2961
 9418TIP3    H249670   4.414   1.613  12.127 -0.2603 -0.4125  0.2339
 9419TIP3   OH249671   1.269   0.701   5.976  0.5716 -0.0174  0.1025
 9419TIP3    H149672   1.280   0.764   6.047 -0.8598  0.5903 -0.2002
 9419TIP3    H249673   1.296   0.617   6.015  0.1108  0.3545  1.2658
 9420TIP3   OH249674   4.659   0.295   2.078 -0.2670 -0.6545 -0.6925
 9420TIP3    H149675   4.619   0.378   2.054 -0.5185 -0.7893 -0.7409
 9420TIP3    H249676   4.660   0.243   1.998  1.5093 -0.0590 -1.0981
 9421TIP3   OH249677   3.951   1.600   5.775  0.3817 -0.3885 -0.1188
 9421TIP3    H149678   4.045   1.598   5.795  1.1603 -0.4273 -3.2094
 9421TIP3    H249679   3.945   1.559   5.688 -2.3109  0.9195 -0.6365
 9422TIP3   OH249680   5.776   2.067   6.681 -0.4810 -0.0498  0.6738
 9422TIP3    H149681   5.842   2.056   6.612 -1.7789  0.8121 -0.7659
 9422TIP3    H249682   5.742   1.979   6.695 -1.1713 -0.0617 -0.8297
 9423TIP3   OH249683   5.127   1.582   3.455 -0.3424 -0.3463  0.1463
 9423TIP3    H149684   5.117   1.667   3.413 -1.4583  0.2060  1.4553
 9423TIP3    H249685   5.060   1.527   3.414  0.1206 -0.4983 -0.4221
 9424TIP3   OH249686   2.205   4.834  12.929  0.3547  0.3319 -0.2435
 9424TIP3    H149687   2.256   4.908  12.895  2.1474 -1.2677 -1.2228
 9424TIP3    H249688   2.270   4.768  12.952 -1.2159 -1.2404 -0.0557
 9425TIP3   OH249689   5.351   4.437   1.995  0.4074 -0.3121 -0.2916
 9425TIP3    H149690   5.297   4.358   1.995  0.4587 -0.3615  0.8437
 9425TIP3    H249691   5.427   4.414   2.049  0.6312  0.3707 -0.3070
 9426TIP3   OH249692   5.583   0.301  16.897 -0.2540 -0.1915 -0.2796
 9426TIP3    H149693   5.500   0.303  16.849 -1.7190 -1.2204  2.0310
 9426TIP3    H249694   5.610   0.392  16.902 -1.4435  0.2042 -0.7722
 9427TIP3   OH249695   1.596   4.892  13.902 -0.1018  0.2189  0.3046
 9427TIP3    H149696   1.550   4.944  13.837 -1.2874 -0.3593  0.6508
 9427TIP3    H249697   1.557   4.919  13.986 -0.3579 -0.8053  0.5341
 9428TIP3   OH249698   4.611   1.146   6.569  0.0180  0.2273  0.2056
 9428TIP3    H149699   4.689   1.107   6.530  0.2992  1.2742 -0.3303
 9428TIP3    H249700   4.562   1.072   6.605  1.4838 -0.3946  0.9875
 9429TIP3   OH249701   2.923   1.770   5.396  0.1830 -0.6239 -0.1357
 9429TIP3    H149702   2.994   1.815   5.443  1.1114 -0.3565 -1.7091
 9429TIP3    H249703   2.848   1.829   5.405  0.8644  0.3424 -0.5633
 9430TIP3   OH249704   2.843   5.403  10.314 -0.1515  0.3502 -0.6506
 9430TIP3    H149705   2.881   5.481  10.355 -4.3590  1.8817  0.8740
 9430TIP3    H249706   2.874   5.407  10.223  1.1422  2.8487 -0.2023
 9431TIP3   OH249707   0.221   5.877  10.872  0.3824  0.0493  0.1641
 9431TIP3    H149708   0.128   5.885  10.893  0.1049 -0.2000 -0.9512
 9431TIP3    H249709   0.233   5.785  10.848  1.1003 -0.1279  1.1331
 9432TIP3   OH249710   4.729   4.838   1.713  0.1440  0.3547  0.2370
 9432TIP3    H149711   4.786   4.777   1.760  0.7785  0.7213 -0.0320
 9432TIP3    H249712   4.713   4.909   1.775 -2.8440 -1.2939  1.5609
 9433TIP3   OH249713   2.635   1.004  12.001 -0.0715  0.1603  0.1427
 9433TIP3    H149714   2.636   0.911  11.980 -0.5701  0.5559 -1.7712
 9433TIP3    H249715   2.544   1.031  11.988  0.0480  0.9010  0.7544
 9434TIP3   OH249716   2.263   5.039   3.655  0.2065 -0.6829 -0.0613
 9434TIP3    H149717   2.276   5.119   3.706  1.3703  0.4990 -2.0462
 9434TIP3    H249718   2.204   4.986   3.708 -0.5426  1.4469  1.3973
 9435TIP3   OH249719   6.620   4.475  14.119  0.0402 -0.0927  0.4217
 9435TIP3    H149720   6.527   4.457  14.128 -0.0812  0.6995  0.7791
 9435TIP3    H249721   6.657   4.451  14.204 -0.2726  2.1935  1.2580
 9436TIP3   OH249722   3.237   2.204   3.565  0.2754  0.2363  0.2226
 9436TIP3    H149723   3.316   2.204   3.618  0.0301  1.9679  0.6290
 9436TIP3    H249724   3.168   2.238   3.622 -1.0312 -2.1089  0.1835
 9437TIP3   OH249725   0.582   6.347   1.220  0.2839  0.0466  0.1883
 9437TIP3    H149726   0.584   6.317   1.310  1.0739 -0.0627  0.1460
 9437TIP3    H249727   0.506   6.405   1.215  0.2220  0.0352  0.9127
 9438TIP3   OH249728   5.154   2.745  16.578  0.3144  0.1056  0.1805
 9438TIP3    H149729   5.194   2.662  16.553  1.1219  0.6187 -0.2544
 9438TIP3    H249730   5.075   2.751  16.524  1.3437  0.5856 -1.3270
 9439TIP3   OH249731   4.643   2.382   5.423 -0.3089  0.6184  0.0657
 9439TIP3    H149732   4.675   2.323   5.355  0.2095  0.8629  0.0874
 9439TIP3    H249733   4.712   2.380   5.490  0.3437  2.2258 -0.5134
 9440TIP3   OH249734   4.124   3.504   3.870 -0.3320 -0.8295  0.3565
 9440TIP3    H149735   4.123   3.436   3.803 -1.5885  0.1728 -0.6721
 9440TIP3    H249736   4.033   3.532   3.878  0.2632  1.4088  0.0158
 9441TIP3   OH249737   0.001   6.637   5.089  0.5521  0.7286  0.9331
 9441TIP3    H149738  -0.046   6.562   5.126  0.4864 -0.2349 -0.9782
 9441TIP3    H249739   0.084   6.601   5.058 -0.3206  0.9035 -1.9105
 9442TIP3   OH249740   4.806   0.304  13.459 -0.4839  0.6640 -1.0337
 9442TIP3    H149741   4.835   0.214  13.476  0.4139  0.8170 -1.6791
 9442TIP3    H249742   4.746   0.324  13.531 -2.0449 -1.0491 -1.7646
 9443TIP3   OH249743   0.566   5.333   0.356  0.1152  0.2899 -0.6424
 9443TIP3    H149744   0.511   5.382   0.416 -0.9029  0.0473 -1.3405
 9443TIP3    H249745   0.628   5.287   0.412  0.2147  1.2938  0.1029
 9444TIP3   OH249746   4.391   6.343  13.537 -0.2481  0.1222 -0.1612
 9444TIP3    H149747   4.473   6.295  13.534  0.2936  1.0344 -0.7604
 9444TIP3    H249748   4.417   6.435  13.531 -1.2204  0.5364  1.4135
 9445TIP3   OH249749   5.032   6.309   4.907 -0.0217  0.4106 -0.1127
 9445TIP3    H149750   4.955   6.340   4.859 -1.4513  0.7531  2.2163
 9445TIP3    H249751   5.024   6.214   4.906 -0.7982  0.4527  0.5187
 9446TIP3   OH249752   3.956   4.687  12.848  0.4223 -0.8552 -0.8951
 9446TIP3    H149753   3.898   4.637  12.789  1.2499 -1.1314 -1.4976
 9446TIP3    H249754   3.951   4.640  12.931 -1.3591 -0.0265 -0.4779
 9447TIP3   OH249755   3.388   4.521  13.027 -0.1951  0.5242  0.5409
 9447TIP3    H149756   3.307   4.528  13.078 -0.3358  1.3835  0.2163
 9447TIP3    H249757   3.384   4.434  12.988 -1.7616  1.1419 -0.7710
 9448TIP3   OH249758   3.166   6.751   3.879 -0.5420  0.0497 -0.4368
 9448TIP3    H149759   3.087   6.705   3.907  0.4000 -0.2649  1.9595
 9448TIP3    H249760   3.137   6.841   3.862 -1.7352 -0.5194 -1.5263
 9449TIP3   OH249761   3.445   5.624   5.190  0.1648 -0.2479 -0.5989
 9449TIP3    H149762   3.448   5.669   5.106 -1.0550  1.0989  0.0265
 9449TIP3    H249763   3.536   5.599   5.208  1.0570  2.6361 -0.6742
 9450TIP3   OH249764   2.664   2.302  16.585 -0.0642  0.1237  0.3563
 9450TIP3    H149765   2.678   2.314  16.491 -1.6792  0.2408  0.1005
 9450TIP3    H249766   2.672   2.390  16.622  5.0304 -0.3476  1.1131
 9451TIP3   OH249767   6.637   0.446  14.981 -0.1728  0.6869  0.0791
 9451TIP3    H149768   6.727   0.434  15.010  0.5804  1.6008 -1.7181
 9451TIP3    H249769   6.620   0.540  14.992 -0.9538  0.5057  0.5107
 9452TIP3   OH249770   4.327   4.538   5.843  0.1308 -0.1760  0.4290
 9452TIP3    H149771   4.417   4.553   5.873  0.4171 -1.3311  0.2005
 9452TIP3    H249772   4.324   4.582   5.758 -0.2503  1.8601  1.4362
 9453TIP3   OH249773   6.773   5.671  14.986 -0.2890 -0.1981  0.2098
 9453TIP3    H149774   6.794   5.596  14.930  0.7356  0.0885  0.1886
 9453TIP3    H249775   6.858   5.702  15.017 -0.8516 -1.2524  3.1378
 9454TIP3   OH249776   1.314   2.947  13.205 -0.3603  0.0797 -0.4063
 9454TIP3    H149777   1.372   2.873  13.224 -0.8989 -0.3141 -0.2860
 9454TIP3    H249778   1.242   2.939  13.268 -0.0069  1.1882  0.1770
 9455TIP3   OH249779   4.109   4.063   2.940 -0.3986 -0.3742 -0.2034
 9455TIP3    H149780   4.151   3.977   2.934 -0.0495 -0.1059 -1.9236
 9455TIP3    H249781   4.102   4.094   2.850 -0.1145  1.6041  0.4011
 9456TIP3   OH249782   4.864   4.233   5.251  0.3022 -0.2737 -0.0242
 9456TIP3    H149783   4.878   4.192   5.166 -0.2143 -0.1912 -0.1528
 9456TIP3    H249784   4.896   4.169   5.315 -0.9997 -1.1105 -0.1948
 9457TIP3   OH249785   0.535   4.496   0.815  0.2297  0.0957 -0.1017
 9457TIP3    H149786   0.594   4.460   0.881  0.5376  1.4874  0.4065
 9457TIP3    H249787   0.570   4.583   0.796 -0.4208  0.0943 -1.3871
 9458TIP3   OH249788   4.290   4.710   0.025 -0.1356  0.0686  0.1249
 9458TIP3    H149789   4.321   4.625  -0.008 -1.5160 -0.1868 -0.5708
 9458TIP3    H249790   4.217   4.687   0.083 -1.3179  0.8357 -1.0285
 9459TIP3   OH249791   6.026   3.997  15.036 -0.4165 -0.1813 -0.1340
 9459TIP3    H149792   6.113   3.972  15.066 -1.1498 -0.9190  1.5232
 9459TIP3    H249793   6.008   4.079  15.080  0.4569  1.4364 -2.5891
 9460TIP3   OH249794   5.663   0.625   2.635 -0.4437  0.2384  0.1532
 9460TIP3    H149795   5.704   0.611   2.550 -1.3651 -1.3401 -0.0790
 9460TIP3    H249796   5.617   0.708   2.626  0.8061  0.9033 -0.3241
 9461TIP3   OH249797   3.538   6.268  14.002  0.3964  0.4340  0.6658
 9461TIP3    H149798   3.495   6.260  13.916 -0.7513 -0.5579  1.2977
 9461TIP3    H249799   3.594   6.344  13.993  1.1262 -0.2602 -1.3122
 9462TIP3   OH249800   2.761   1.210   4.962 -0.0574 -0.4180  0.2337
 9462TIP3    H149801   2.723   1.248   4.883 -1.0800 -0.9000  0.4880
 9462TIP3    H249802   2.808   1.133   4.932 -1.7692 -1.5179  0.2626
 9463TIP3   OH249803   5.526   1.843  11.776  0.9905 -0.0848 -0.3243
 9463TIP3    H149804   5.609   1.835  11.823  0.6759  0.2157  0.2941
 9463TIP3    H249805   5.544   1.904  11.705  1.6911 -1.1834 -1.1126
 9464TIP3   OH249806   3.918   0.384   5.603 -0.1257  0.1092 -0.4668
 9464TIP3    H149807   3.900   0.324   5.531  0.8745  0.7380 -1.2721
 9464TIP3    H249808   3.833   0.398   5.645 -0.9185  0.5005 -2.1303
 9465TIP3   OH249809   2.281   4.585  12.771 -0.0490 -0.2001 -0.0972
 9465TIP3    H149810   2.313   4.591  12.861 -3.2201  1.0129  1.0999
 9465TIP3    H249811   2.343   4.639  12.721  2.0732 -1.2942  1.1649
 9466TIP3   OH249812   6.584   5.826   0.781 -0.4767 -0.2757 -0.6109
 9466TIP3    H149813   6.637   5.790   0.852  0.9997  0.2229 -1.4358
 9466TIP3    H249814   6.563   5.915   0.810 -1.3111 -0.6342 -0.0682
 9467TIP3   OH249815   0.181   1.571   3.153 -0.6960  0.9634  0.3406
 9467TIP3    H149816   0.227   1.634   3.097 -0.0104 -1.1992 -1.6787
 9467TIP3    H249817   0.100   1.551   3.106  0.0633 -1.1780 -0.1696
 9468TIP3   OH249818   4.556   3.071   5.329 -0.5589  0.7684 -1.0693
 9468TIP3    H149819   4.647   3.076   5.299  0.0064 -2.4993 -0.2446
 9468TIP3    H249820   4.563   3.068   5.424 -1.3126 -1.5731 -1.0389
 9469TIP3   OH249821   2.211   3.079  11.345  0.0739 -0.2117 -0.4089
 9469TIP3    H149822   2.250   2.997  11.313 -0.8738 -1.2127  0.8899
 9469TIP3    H249823   2.279   3.145  11.332  0.0328 -0.6339 -3.8159
 9470TIP3   OH249824   3.317   4.865   3.116  0.4662 -0.0123  0.7527
 9470TIP3    H149825   3.386   4.802   3.097 -0.9643 -1.3768 -0.1979
 9470TIP3    H249826   3.362   4.948   3.125  2.0191 -0.3625 -2.3796
 9471TIP3   OH249827   0.705   5.386   2.539  0.2823  0.0822  0.4087
 9471TIP3    H149828   0.679   5.451   2.474 -0.2112  1.4727  1.9466
 9471TIP3    H249829   0.786   5.348   2.503  0.4477  1.3439 -0.6466
 9472TIP3   OH249830   0.705   6.430  12.311 -0.7038  0.0719 -0.3458
 9472TIP3    H149831   0.682   6.518  12.340 -0.3894  0.2873 -0.7351
 9472TIP3    H249832   0.745   6.389  12.388 -0.4193  0.4320 -0.2996
 9473TIP3   OH249833   4.309   0.651   5.366  0.2409 -0.0551 -0.1343
 9473TIP3    H149834   4.303   0.608   5.451 -0.8530  0.4258  0.0390
 9473TIP3    H249835   4.221   0.646   5.329  0.8447 -0.9291 -1.5897
 9474TIP3   OH249836   2.683   6.637  12.580 -0.2359  0.6922 -0.3877
 9474TIP3    H149837   2.658   6.573  12.647  0.6400  0.4438 -0.2790
 9474TIP3    H249838   2.722   6.709  12.630  0.3138  0.5576 -0.6113
 9475TIP3   OH249839   3.481   2.649  16.357  0.0693  0.0623  0.1774
 9475TIP3    H149840   3.439   2.622  16.275 -0.8198 -0.2006  0.7096
 9475TIP3    H249841   3.410   2.655  16.420  0.5422  1.6789  0.5939
 9476TIP3   OH249842   6.063   1.860   0.325 -0.0323 -0.5778 -0.2369
 9476TIP3    H149843   6.013   1.806   0.264  1.2756 -2.2022  0.0464
 9476TIP3    H249844   5.997   1.897   0.384 -1.0792 -0.9526 -1.1382
 9477TIP3   OH249845   1.891   1.574   4.835  0.7608 -0.2928 -0.0515
 9477TIP3    H149846   1.944   1.614   4.903 -0.5183  2.3366 -0.4564
 9477TIP3    H249847   1.801   1.587   4.864  0.2367 -0.9090 -1.3093
 9478TIP3   OH249848   3.706   6.159  16.241  0.6447 -0.1826 -0.0921
 9478TIP3    H149849   3.747   6.231  16.289 -0.5150  1.4602 -1.4432
 9478TIP3    H249850   3.612   6.173  16.252  0.3776 -0.6490 -1.5546
 9479TIP3   OH249851   0.786   4.197   4.771  0.1680  0.5018  0.5773
 9479TIP3    H149852   0.726   4.163   4.837 -0.3759  1.5253  0.6383
 9479TIP3    H249853   0.869   4.154   4.789 -0.7486 -1.7115 -0.1138
 9480TIP3   OH249854   6.479   5.965   3.135  0.1464  0.4152 -0.0331
 9480TIP3    H149855   6.515   5.932   3.053 -0.6744  1.5342 -0.8699
 9480TIP3    H249856   6.413   6.029   3.109 -0.4476  0.4788  1.4962
 9481TIP3   OH249857   3.755   0.492   3.121 -0.4703  0.7421 -0.3746
 9481TIP3    H149858   3.789   0.554   3.056  0.6294  0.4812 -0.0607
 9481TIP3    H249859   3.664   0.479   3.095 -0.5957  2.1493 -0.6997
 9482TIP3   OH249860   0.149   3.933  13.026  0.4556 -0.1045  0.1020
 9482TIP3    H149861   0.197   3.949  13.108  2.1198 -1.7220 -0.5003
 9482TIP3    H249862   0.212   3.891  12.969 -0.6177  1.1499 -2.1418
 9483TIP3   OH249863   5.982   1.499   5.455  0.4988  0.2507 -0.1732
 9483TIP3    H149864   6.015   1.433   5.516 -1.0168 -1.7688 -1.4083
 9483TIP3    H249865   5.946   1.568   5.511  1.0589 -0.5251  1.1841
 9484TIP3   OH249866   0.996   2.079   2.173  0.2659  0.4889  0.2790
 9484TIP3    H149867   0.961   2.161   2.138  0.2912  0.4162  0.0826
 9484TIP3    H249868   1.081   2.104   2.211 -0.6164  0.9600  2.0907
 9485TIP3   OH249869   5.619   2.256  13.797 -0.4909  0.2747 -0.2944
 9485TIP3    H149870   5.695   2.230  13.745 -1.3575 -2.6438 -0.2410
 9485TIP3    H249871   5.586   2.335  13.753  0.9465  0.0206 -1.9249
 9486TIP3   OH249872   2.102   1.547  10.787 -0.0349 -0.3531  0.8426
 9486TIP3    H149873   2.013   1.512  10.792 -0.3073  0.0415 -0.7460
 9486TIP3    H249874   2.134   1.519  10.702  0.5814  1.2852  0.4953
 9487TIP3   OH249875   0.891   5.536  17.057  0.1070 -0.2303  0.5775
 9487TIP3    H149876   0.944   5.538  16.978 -0.6332  0.1487  0.0733
 9487TIP3    H249877   0.952   5.557  17.128  0.8427 -0.8939  0.1516
 9488TIP3   OH249878   4.037   3.610  11.896  0.0548 -0.7262 -0.1417
 9488TIP3    H149879   3.958   3.559  11.876 -0.7794  0.4329  0.1386
 9488TIP3    H249880   4.013   3.663  11.971  0.8648  0.2005 -0.5233
 9489TIP3   OH249881   4.313   0.891  17.141 -0.6928 -0.7749 -0.4756
 9489TIP3    H149882   4.380   0.828  17.114  0.4005  0.2951 -0.3293
 9489TIP3    H249883   4.310   0.884  17.237  1.3919  1.2529 -0.1869
 9490TIP3   OH249884   0.797   4.945  17.207 -0.2244  0.4756  0.6379
 9490TIP3    H149885   0.840   5.008  17.150 -1.5496  0.3432 -0.5468
 9490TIP3    H249886   0.865   4.881  17.227  0.1742  0.2998 -1.1292
 9491TIP3   OH249887   1.024   5.957   0.528 -0.1209  0.0239 -0.5183
 9491TIP3    H149888   1.116   5.953   0.551 -0.2613 -0.0274  0.0493
 9491TIP3    H249889   0.992   5.868   0.542 -1.0128  0.7015  2.5806
 9492TIP3   OH249890   1.104   1.374   1.737  0.1828 -0.7570  0.2293
 9492TIP3    H149891   1.168   1.358   1.668 -0.3262  0.3784 -0.5406
 9492TIP3    H249892   1.037   1.308   1.724 -0.4198  0.0651 -1.0323
 9493TIP3   OH249893   1.994   1.593   1.177  0.3037 -0.0501  0.0463
 9493TIP3    H149894   1.919   1.534   1.172  1.2753 -1.2832 -0.3445
 9493TIP3    H249895   2.039   1.569   1.258  1.8360 -1.2900 -1.1122
 9494TIP3   OH249896   3.809   5.994   0.263 -0.0029 -0.1158  0.8054
 9494TIP3    H149897   3.753   6.030   0.194  1.1671 -2.2059 -1.3811
 9494TIP3    H249898   3.758   5.920   0.298 -0.1598  0.3136  1.5039
 9495TIP3   OH249899   0.066   4.229   1.708 -0.5142 -0.1238  0.0158
 9495TIP3    H149900  -0.029   4.241   1.710 -0.7596 -1.9242  0.6134
 9495TIP3    H249901   0.080   4.155   1.649  0.5523  0.2985 -0.2923
 9496TIP3   OH249902   0.999   4.587   1.158  0.3311 -0.3655  0.3237
 9496TIP3    H149903   0.918   4.633   1.137  0.0305 -0.6990  0.7199
 9496TIP3    H249904   1.061   4.656   1.181  0.3587 -0.0650 -0.5953
 9497TIP3   OH249905   0.772   1.544   2.753  0.3455  0.5303 -0.3070
 9497TIP3    H149906   0.767   1.639   2.761  1.5065  0.6956 -1.3224
 9497TIP3    H249907   0.746   1.525   2.663  0.0972 -0.1224 -0.1074
 9498TIP3   OH249908   1.645   3.678   0.213 -0.2412  0.5295  0.2791
 9498TIP3    H149909   1.620   3.655   0.303  0.2214  0.3273  0.3582
 9498TIP3    H249910   1.688   3.763   0.222 -1.5908  1.2653  0.0394
 9499TIP3   OH249911   6.093   5.864   3.209  0.8855 -0.3892  0.1002
 9499TIP3    H149912   6.165   5.862   3.272  0.7277 -1.3018  0.2657
 9499TIP3    H249913   6.041   5.940   3.236  0.9722 -0.6009  0.9095
 9500TIP3   OH249914   0.587   6.156   3.165  0.3344  0.5209 -0.3824
 9500TIP3    H149915   0.606   6.106   3.244 -0.6617  0.5939 -0.0804
 9500TIP3    H249916   0.527   6.224   3.194  0.2628  0.7862 -1.1320
 9501TIP3   OH249917   4.866   2.521  14.965  0.2025  0.3709 -0.3762
 9501TIP3    H149918   4.898   2.600  14.922 -0.6951  0.5528 -0.7211
 9501TIP3    H249919   4.924   2.510  15.040  0.8467  0.8904 -0.7856
 9502TIP3   OH249920   5.717   3.950  15.123 -0.2253 -0.1421  0.0648
 9502TIP3    H149921   5.799   3.988  15.090  0.3389 -0.1199  1.4343
 9502TIP3    H249922   5.686   3.894  15.051  0.7588  0.1838 -0.6385
 9503TIP3   OH249923   4.447   1.784  12.190 -0.0980 -0.6561  0.0490
 9503TIP3    H149924   4.420   1.862  12.141 -1.1693  0.5593  2.3600
 9503TIP3    H249925   4.515   1.816  12.250 -0.6285 -1.4269  1.1050
 9504TIP3   OH249926   5.107   0.823  12.439  0.7914 -0.1437  0.0647
 9504TIP3    H149927   5.089   0.733  12.466  1.0287 -0.4068 -0.6492
 9504TIP3    H249928   5.161   0.815  12.361 -1.6673  0.5522 -1.8606
 9505TIP3   OH249929   5.142   0.410  13.929  0.3017 -0.5382 -0.1549
 9505TIP3    H149930   5.097   0.478  13.978 -0.6943  0.3985 -2.2335
 9505TIP3    H249931   5.123   0.431  13.837  3.0995 -1.4223 -1.0341
 9506TIP3   OH249932   3.591   0.265  15.663 -0.2132 -0.3473 -0.0133
 9506TIP3    H149933   3.646   0.191  15.637 -1.0868 -1.5125  1.3109
 9506TIP3    H249934   3.518   0.225  15.711 -0.2290  1.4149  1.5448
 9507TIP3   OH249935   5.033   1.025   0.179 -0.0188  0.2580 -0.0774
 9507TIP3    H149936   4.949   1.070   0.165  0.5418  1.1196 -0.8465
 9507TIP3    H249937   5.073   1.073   0.251  0.1665  0.3888 -0.2654
 9508TIP3   OH249938   2.108   5.706   2.529 -0.3162 -0.2365  0.8097
 9508TIP3    H149939   2.055   5.779   2.560 -3.4463 -1.9667 -0.0655
 9508TIP3    H249940   2.137   5.662   2.609 -0.6788  0.4248  1.3110
 9509TIP3   OH249941   6.636   1.848   6.268 -0.8010  0.0443  0.4166
 9509TIP3    H149942   6.608   1.780   6.207  0.4539  1.0261 -1.3695
 9509TIP3    H249943   6.582   1.924   6.246 -0.6453  0.2842  0.8439
 9510TIP3   OH249944   2.356   1.055   1.055 -0.1121  0.2642 -0.0563
 9510TIP3    H149945   2.284   1.058   1.117  0.4085  0.2146  0.5616
 9510TIP3    H249946   2.388   0.965   1.059  1.3434  0.7903  1.2773
 9511TIP3   OH249947   3.786   3.763  11.265 -0.3221 -0.5110  0.5018
 9511TIP3    H149948   3.831   3.754  11.349 -1.2894 -1.5390  0.9284
 9511TIP3    H249949   3.835   3.705  11.206 -1.0701 -1.6639  0.9763
 9512TIP3   OH249950   6.226   3.040   4.623 -0.2095 -0.2423  0.5186
 9512TIP3    H149951   6.269   3.093   4.690 -0.3837 -0.8814  1.1447
 9512TIP3    H249952   6.298   2.999   4.575 -0.0781  0.4479  0.1243
 9513TIP3   OH249953   6.094   4.339   0.245 -0.5069 -0.9610 -0.0731
 9513TIP3    H149954   6.084   4.337   0.340  0.6742 -1.4696  0.0655
 9513TIP3    H249955   6.006   4.322   0.211 -1.0913 -0.0010  0.9083
 9514TIP3   OH249956   6.703   3.641  16.624 -0.3231  0.0745  0.1412
 9514TIP3    H149957   6.652   3.718  16.652 -2.4366 -1.1166 -0.2280
 9514TIP3    H249958   6.736   3.666  16.537 -0.9647  0.5950  0.0304
 9515TIP3   OH249959   5.162   6.643  12.523  0.5208  0.5235 -0.0014
 9515TIP3    H149960   5.175   6.697  12.601 -1.8299  1.5826 -0.2834
 9515TIP3    H249961   5.153   6.553  12.557 -0.5244  0.9724  0.9684
 9516TIP3   OH249962   2.889   1.915  16.467  0.6777  0.0974 -0.4527
 9516TIP3    H149963   2.938   1.837  16.442 -0.6038 -0.4245 -1.4109
 9516TIP3    H249964   2.943   1.988  16.435  1.9416 -0.3595  0.5583
 9517TIP3   OH249965   4.573   5.928   0.175  0.2158  0.5173  0.7029
 9517TIP3    H149966   4.502   5.992   0.176  0.8167  1.2428 -0.4081
 9517TIP3    H249967   4.645   5.974   0.131  0.7184 -0.8644  0.0300
 9518TIP3   OH249968   4.304   0.703   0.707 -0.4098 -0.3557  0.0451
 9518TIP3    H149969   4.389   0.697   0.663 -0.0268  1.8994  0.3793
 9518TIP3    H249970   4.300   0.623   0.760  0.9080 -1.1395 -0.9630
 9519TIP3   OH249971   4.806   0.822  10.752  0.4316  0.4270 -0.3923
 9519TIP3    H149972   4.756   0.750  10.714  1.5329 -0.5588 -0.0099
 9519TIP3    H249973   4.771   0.901  10.710 -1.0641 -0.2816 -0.5214
 9520TIP3   OH249974   4.033   3.992   0.159  0.0416  0.5199 -0.4453
 9520TIP3    H149975   3.943   4.005   0.130  0.6097  2.6892 -1.4622
 9520TIP3    H249976   4.080   3.967   0.080  0.5372  0.4689 -0.1393
 9521TIP3   OH249977   1.025   1.397  14.324  0.8656 -0.4081 -0.2090
 9521TIP3    H149978   0.960   1.435  14.265  1.1573 -0.0714 -0.3159
 9521TIP3    H249979   0.977   1.384  14.406  0.8899  0.7085 -0.0003
 9522TIP3   OH249980   0.244   5.402  14.825 -0.7604 -0.0351  0.3314
 9522TIP3    H149981   0.308   5.388  14.895 -1.4930 -0.1274  1.0022
 9522TIP3    H249982   0.249   5.495  14.806  1.8020 -0.5021 -1.8515
 9523TIP3   OH249983   4.777   4.619  15.946 -0.6785  0.2435 -0.1550
 9523TIP3    H149984   4.711   4.689  15.949 -1.2275 -0.1976 -1.2943
 9523TIP3    H249985   4.726   4.539  15.930  0.0545 -0.2383 -0.1156
 9524TIP3   OH249986   3.385   5.765  13.551  0.1947 -0.6669 -0.2047
 9524TIP3    H149987   3.385   5.860  13.561 -2.1160 -0.6975  0.8637
 9524TIP3    H249988   3.426   5.732  13.630 -1.8106 -0.5545  0.9512
 9525TIP3   OH249989   5.375   6.228  13.615  0.7496 -0.4079  0.2300
 9525TIP3    H149990   5.341   6.158  13.672 -0.0507  1.2045  1.8153
 9525TIP3    H249991   5.307   6.295  13.618  1.4618  0.4074 -1.3541
 9526TIP3   OH249992   6.510   1.059  16.072 -0.2336 -0.3889 -0.0063
 9526TIP3    H149993   6.593   1.095  16.104 -1.0976  1.4564  0.3309
 9526TIP3    H249994   6.503   0.973  16.114  0.9862 -0.1048  0.8326
 9527TIP3   OH249995   1.503   2.936   2.980  0.1904  0.1690 -0.3377
 9527TIP3    H149996   1.512   2.970   2.891 -0.6998 -0.5711 -0.7207
 9527TIP3    H249997   1.460   3.006   3.029 -0.3594  0.1407 -0.7758
 9528TIP3   OH249998   2.211   3.732  16.307  1.0454  0.2561  0.4555
 9528TIP3    H149999   2.221   3.637  16.304 -0.5423  0.0838 -0.4244
 9528TIP3    H250000   2.140   3.751  16.245  1.7848  2.0832  0.1030
 9529TIP3   OH250001   6.081   1.533  15.648 -0.0315 -0.0756  0.5863
 9529TIP3    H150002   6.121   1.458  15.604 -1.7349 -0.9158  0.3890
 9529TIP3    H250003   6.001   1.551  15.598 -0.5316  0.7651  1.6411
 9530TIP3   OH250004   4.794   0.953   3.149 -0.3465 -0.3056  0.6868
 9530TIP3    H150005   4.837   0.898   3.214 -0.3227 -2.4574 -1.0551
 9530TIP3    H250006   4.727   0.897   3.110 -0.9249  1.1851 -0.5598
 9531TIP3   OH250007   2.199   6.418  13.782  1.0382  0.4834  0.7042
 9531TIP3    H150008   2.183   6.495  13.727 -0.6863  0.3515  0.9751
 9531TIP3    H250009   2.287   6.389  13.756  0.7897  1.1509 -1.0855
 9532TIP3   OH250010   3.931   1.309  12.038 -0.3735 -0.1895 -0.2490
 9532TIP3    H150011   3.997   1.304  11.969 -1.5077 -0.6332 -1.3411
 9532TIP3    H250012   3.848   1.291  11.994 -1.4332  1.7079  0.8099
 9533TIP3   OH250013   4.563   1.816  15.699 -0.2913 -0.2444  0.2916
 9533TIP3    H150014   4.592   1.799  15.609 -1.5731 -1.1449  0.0186
 9533TIP3    H250015   4.468   1.800  15.697 -0.3852 -0.0042  1.7417
 9534TIP3   OH250016   4.893   2.317   1.833  0.3713  0.2591 -0.0336
 9534TIP3    H150017   4.986   2.324   1.811  0.3579  0.1340 -0.1265
 9534TIP3    H250018   4.857   2.404   1.815  0.1021 -0.1572 -1.6815
 9535TIP3   OH250019   2.989   3.946   4.670  0.7138 -0.3747  0.2502
 9535TIP3    H150020   3.066   3.891   4.658  1.1886 -0.6299  3.4527
 9535TIP3    H250021   3.021   4.036   4.659  0.6766 -0.5618 -1.6604
 9536TIP3   OH250022   2.898   5.379   0.946 -0.5841 -0.2282  0.2504
 9536TIP3    H150023   2.969   5.425   0.989 -0.1049  0.2682 -1.0051
 9536TIP3    H250024   2.868   5.314   1.010 -0.0502  0.6029  1.3624
 9537TIP3   OH250025   0.591   0.631   3.243 -0.1563  0.0621  0.0312
 9537TIP3    H150026   0.668   0.596   3.198  0.6002  1.6347  0.0362
 9537TIP3    H250027   0.542   0.678   3.176 -0.2323  0.4859  0.3813
 9538TIP3   OH250028   2.315   0.682  14.731 -0.0968  0.2828 -0.2306
 9538TIP3    H150029   2.377   0.749  14.763 -0.5099  0.6166 -0.1120
 9538TIP3    H250030   2.236   0.697  14.783 -0.3329 -0.0346 -0.4976
 9539TIP3   OH250031   3.672   1.099   0.041  0.4409 -0.1581 -0.0332
 9539TIP3    H150032   3.694   1.187   0.010  0.8988 -0.2646 -0.0222
 9539TIP3    H250033   3.667   1.107   0.136 -1.0070  0.1784 -0.1232
 9540TIP3   OH250034   3.113   5.900   1.474 -0.0345 -0.6147 -0.0221
 9540TIP3    H150035   3.094   5.815   1.514 -3.4799 -0.1599 -0.3889
 9540TIP3    H250036   3.074   5.895   1.387 -2.1367  1.9230  0.6536
 9541TIP3   OH250037   5.712   2.785  14.519  0.5014  0.3464  0.4350
 9541TIP3    H150038   5.622   2.760  14.499  1.3973 -2.0257 -1.0935
 9541TIP3    H250039   5.716   2.785  14.615 -1.0171  0.1157  0.5177
 9542TIP3   OH250040   0.050   0.003  11.745 -0.0812 -0.8233 -0.4567
 9542TIP3    H150041   0.090   0.076  11.793 -2.2818  1.2612 -1.5518
 9542TIP3    H250042   0.110  -0.070  11.757  0.6249  0.1994  3.4915
 9543TIP3   OH250043   6.485   5.585  13.371 -0.4573 -0.0421 -0.1773
 9543TIP3    H150044   6.445   5.540  13.296 -0.6875 -0.9130  0.4541
 9543TIP3    H250045   6.539   5.518  13.414 -3.1802 -0.7053  2.5696
 9544TIP3   OH250046   5.929   2.988   0.859 -0.4749 -0.7945 -0.0222
 9544TIP3    H150047   6.011   3.036   0.846 -0.4744 -0.7542  0.1213
 9544TIP3    H250048   5.887   2.988   0.773 -0.2130 -1.0262 -0.1503
 9545TIP3   OH250049   4.906   2.184  12.984 -0.0928  0.0586  0.0763
 9545TIP3    H150050   4.960   2.116  13.024 -0.8366 -0.3415  0.4163
 9545TIP3    H250051   4.846   2.211  13.054  1.2644  2.2556  0.4795
 9546TIP3   OH250052   0.381   0.459   3.325  0.2073  0.0271 -0.2084
 9546TIP3    H150053   0.451   0.523   3.313  0.2899 -0.0756 -0.2820
 9546TIP3    H250054   0.420   0.392   3.382 -0.0752  0.3494  0.3751
 9547TIP3   OH250055   5.796   5.727   1.240 -0.0007  0.2944  0.5158
 9547TIP3    H150056   5.865   5.784   1.206  1.3292 -1.3652  0.3258
 9547TIP3    H250057   5.795   5.744   1.334  0.5596  0.4241  0.5006
 9548TIP3   OH250058   4.661   0.008  13.664  0.1412  0.1981  0.5657
 9548TIP3    H150059   4.741   0.027  13.615  1.3617 -3.4686  0.8318
 9548TIP3    H250060   4.682   0.033  13.754  0.3771  0.7671  0.3543
 9549TIP3   OH250061   0.105   0.792   5.211 -0.0678  0.1450  0.0438
 9549TIP3    H150062   0.077   0.717   5.159  0.5121 -1.5871  2.1204
 9549TIP3    H250063   0.052   0.789   5.290 -1.8035  3.4398 -0.8190
 9550TIP3   OH250064   6.163   2.300  13.665 -0.4244  0.1861 -0.2218
 9550TIP3    H150065   6.128   2.213  13.682  1.7492 -0.6755  0.1310
 9550TIP3    H250066   6.249   2.285  13.626  1.0678  2.1184  2.0329
 9551TIP3   OH250067   2.324   5.836  10.801  0.1169 -0.0385  0.6835
 9551TIP3    H150068   2.284   5.911  10.756  1.7427  0.0999 -0.6582
 9551TIP3    H250069   2.382   5.876  10.866  2.2595  0.0499 -1.1284
 9552TIP3   OH250070   5.970   3.194   4.022  0.8663 -1.0201 -0.5806
 9552TIP3    H150071   6.010   3.115   3.986  0.2261 -2.1199  0.9765
 9552TIP3    H250072   5.939   3.167   4.109  1.3277  1.1589  0.3226
 9553TIP3   OH250073   6.378   6.557   0.267 -0.6917  0.6135  0.2998
 9553TIP3    H150074   6.388   6.632   0.209 -0.4748  0.5246  0.2213
 9553TIP3    H250075   6.422   6.584   0.348 -1.4086  0.9227  0.5966
 9554TIP3   OH250076   1.728   6.419   0.473  0.1011 -0.4458 -0.0853
 9554TIP3    H150077   1.686   6.502   0.496  0.1620 -0.0973 -1.1358
 9554TIP3    H250078   1.670   6.381   0.406  1.7243  0.3730 -2.0853
 9555TIP3   OH250079   0.248   1.801  16.982  0.4983  0.3286  0.1270
 9555TIP3    H150080   0.290   1.817  16.897 -0.6100  1.0293 -0.3089
 9555TIP3    H250081   0.161   1.840  16.973  0.2451  0.1023  1.4735
 9556TIP3   OH250082   4.453   2.374  16.685  0.4968  0.7980 -0.1522
 9556TIP3    H150083   4.492   2.291  16.659  0.2247  0.8396 -0.7277
 9556TIP3    H250084   4.376   2.350  16.737  2.0722  0.7203  2.3059
 9557TIP3   OH250085   2.548   1.107  15.147 -0.3573  0.0644  0.2105
 9557TIP3    H150086   2.565   1.151  15.064 -0.5761 -1.0656 -0.4554
 9557TIP3    H250087   2.489   1.035  15.124  0.3359 -0.8426  1.1974
 9558TIP3   OH250088   3.043   6.706   4.807  0.6081  0.0829  0.4512
 9558TIP3    H150089   3.066   6.797   4.827  1.6016 -0.4463  1.9133
 9558TIP3    H250090   3.062   6.696   4.714  0.1469  1.4617  0.1975
 9559TIP3   OH250091   0.008   0.468  13.733  0.0222 -0.8660  0.4206
 9559TIP3    H150092  -0.086   0.458  13.716 -0.0317  0.3433 -0.1130
 9559TIP3    H250093   0.049   0.453  13.648  0.4259 -2.4316  0.8592
 9560TIP3   OH250094   6.106   0.309  14.049  0.4823  0.4335 -0.4962
 9560TIP3    H150095   6.107   0.219  14.083 -2.1715  0.0695 -1.1050
 9560TIP3    H250096   6.095   0.364  14.126  1.8862  0.2612 -0.1427
 9561TIP3   OH250097   6.226   6.415   2.321 -0.6744 -0.2104  0.3069
 9561TIP3    H150098   6.158   6.420   2.388  1.0385  0.2088  2.0944
 9561TIP3    H250099   6.240   6.506   2.295 -0.8153 -0.3019 -0.1016
 9562TIP3   OH250100   2.580   5.833   2.745  0.1550 -0.4697  0.0280
 9562TIP3    H150101   2.674   5.829   2.758  0.1033 -1.4454  0.2134
 9562TIP3    H250102   2.544   5.779   2.816 -0.7104  1.8839  1.5112
 9563TIP3   OH250103   0.641   1.364  16.536 -0.0841  0.5302 -0.0486
 9563TIP3    H150104   0.656   1.273  16.512  0.4614  0.7765 -0.7068
 9563TIP3    H250105   0.727   1.396  16.564 -0.3107  0.7865  0.3593
 9564TIP3   OH250106   6.424   6.650  16.473  0.4640  0.3453 -0.1672
 9564TIP3    H150107   6.328   6.656  16.477  0.2931 -1.5675 -0.5560
 9564TIP3    H250108   6.451   6.637  16.564  0.3065  0.3218 -0.1229
 9565TIP3   OH250109   2.811   3.438   5.260  0.2359 -0.4085  0.5062
 9565TIP3    H150110   2.775   3.431   5.349  0.6553  1.0750  0.8209
 9565TIP3    H250111   2.747   3.493   5.213  0.5577 -0.2919  0.2035
 9566TIP3   OH250112   3.457   0.095  16.308  1.0010 -0.5535 -0.3096
 9566TIP3    H150113   3.370   0.133  16.312  1.7268  1.1278  1.2190
 9566TIP3    H250114   3.466   0.063  16.218 -0.8344  0.0504 -0.7426
 9567TIP3   OH250115   1.532   5.898   0.507  0.0047 -0.8391  0.0638
 9567TIP3    H150116   1.616   5.939   0.526  0.3310 -1.8130  0.8215
 9567TIP3    H250117   1.549   5.839   0.435 -0.1494 -0.6660 -0.1158
 9568TIP3   OH250118   4.076   3.573  13.285 -0.3189  0.4301  0.3970
 9568TIP3    H150119   4.155   3.520  13.290  0.6892  1.7318 -0.8548
 9568TIP3    H250120   4.014   3.519  13.237  0.7472  0.3913 -1.0037
 9569TIP3   OH250121   4.887   2.365  13.707 -0.6002  0.0601  0.3255
 9569TIP3    H150122   4.898   2.273  13.731  1.6264 -0.0125 -0.7669
 9569TIP3    H250123   4.829   2.363  13.631 -1.0497 -0.3788  0.6711
 9570TIP3   OH250124   3.700   0.353  11.800  0.5833 -0.3872  0.0821
 9570TIP3    H150125   3.649   0.275  11.823 -0.5722  0.1278 -0.5975
 9570TIP3    H250126   3.785   0.319  11.773 -0.0268 -1.4656 -0.5900
 9571TIP3   OH250127   0.549   3.184  13.210  0.4009  0.5696  0.4884
 9571TIP3    H150128   0.626   3.238  13.230  1.6206 -0.6171 -0.7854
 9571TIP3    H250129   0.504   3.177  13.294  2.1809  0.5485  1.5072
 9572TIP3   OH250130   5.529   5.565  11.574  0.2818  0.5263 -0.0995
 9572TIP3    H150131   5.435   5.584  11.574  0.6706  2.7423  1.0439
 9572TIP3    H250132   5.555   5.574  11.665  1.1778 -2.8706  0.1338
 9573TIP3   OH250133   6.173   4.808   6.297  0.2044  0.0223 -0.0401
 9573TIP3    H150134   6.267   4.789   6.296  0.1653 -0.1683 -0.5537
 9573TIP3    H250135   6.158   4.862   6.219 -0.2226 -0.5136 -0.3366
 9574TIP3   OH250136   5.632   0.386   5.448 -0.3290 -0.1266 -0.2285
 9574TIP3    H150137   5.609   0.365   5.539 -0.5261  0.6230 -0.0960
 9574TIP3    H250138   5.586   0.469   5.431  0.2356  0.0725 -0.7957
 9575TIP3   OH250139   2.692   4.284   1.089 -0.3936  0.4843  0.0693
 9575TIP3    H150140   2.776   4.305   1.130  0.2263 -1.2154 -0.2576
 9575TIP3    H250141   2.646   4.232   1.155 -2.0039  2.8375  0.9629
 9576TIP3   OH250142   1.038   0.900  12.157 -0.1576 -0.2053  0.6352
 9576TIP3    H150143   1.022   0.992  12.181 -1.8794 -0.6911  1.4389
 9576TIP3    H250144   1.121   0.879  12.202  1.4859  1.5462 -1.3472
 9577TIP3   OH250145   5.876   1.423   6.806 -0.6436  0.5863  0.4531
 9577TIP3    H150146   5.899   1.330   6.814 -4.0183 -0.2891  1.4517
 9577TIP3    H250147   5.945   1.459   6.750 -1.0748 -3.3340 -3.1597
 9578TIP3   OH250148   3.526   3.697   4.068  0.4073  0.3382 -0.0980
 9578TIP3    H150149   3.489   3.703   3.980  2.3728 -1.3289 -1.1254
 9578TIP3    H250150   3.458   3.654   4.120  0.2981 -1.3677 -1.5612
 9579TIP3   OH250151   3.046   1.535  16.796  0.2725  0.0421 -0.0477
 9579TIP3    H150152   2.971   1.594  16.790 -0.3831 -0.7023  0.5580
 9579TIP3    H250153   3.045   1.503  16.886 -0.2004 -1.9076 -0.6963
 9580TIP3   OH250154   1.036   3.613  15.273  0.0698  0.4604 -0.7982
 9580TIP3    H150155   1.103   3.646  15.334 -0.6501 -1.1384  0.9805
 9580TIP3    H250156   1.086   3.566  15.207  0.7722 -1.0781  0.7347
 9581TIP3   OH250157   6.001   6.524  16.657  0.0235  0.1141  0.0347
 9581TIP3    H150158   6.016   6.551  16.747 -3.1049  0.1460  0.6535
 9581TIP3    H250159   5.946   6.446  16.664 -1.2447  0.7711 -1.8048
 9582TIP3   OH250160   1.995   0.447  15.781 -0.0196 -0.6324  0.0661
 9582TIP3    H150161   2.081   0.455  15.823  0.1590 -1.2204 -0.1804
 9582TIP3    H250162   2.000   0.506  15.706  0.1533 -0.6361  0.0738
 9583TIP3   OH250163   0.275   2.425   0.938 -0.4552  0.1341  0.3211
 9583TIP3    H150164   0.229   2.343   0.954  0.0421 -0.3211 -0.5491
 9583TIP3    H250165   0.367   2.401   0.934 -0.3980  0.4937 -1.3441
 9584TIP3   OH250166   5.439   4.329  16.753 -0.2915  0.1629 -0.2024
 9584TIP3    H150167   5.372   4.394  16.729  1.0408  1.1398 -1.4637
 9584TIP3    H250168   5.452   4.278  16.673 -1.7665 -2.1794  0.9329
 9585TIP3   OH250169   3.798   4.793  15.076 -0.0859 -0.1583 -0.7834
 9585TIP3    H150170   3.741   4.717  15.064  0.8972 -1.1718  0.7294
 9585TIP3    H250171   3.738   4.868  15.077 -1.1609 -0.9851 -1.3666
 9586TIP3   OH250172   6.698   6.548  16.613 -0.4901  0.4129  0.8270
 9586TIP3    H150173   6.788   6.521  16.626 -0.6988 -1.4051 -1.0359
 9586TIP3    H250174   6.663   6.487  16.548 -2.1997  2.8722 -0.7279
 9587TIP3   OH250175   0.620   0.203   4.172 -0.1093  0.6662  0.4629
 9587TIP3    H150176   0.528   0.185   4.155  0.2739 -1.9231  0.7007
 9587TIP3    H250177   0.666   0.166   4.096  0.8563 -0.4031  1.5333
 9588TIP3   OH250178   1.966   3.489  13.913 -0.0675  0.7977 -0.1303
 9588TIP3    H150179   2.034   3.433  13.877  0.9177 -0.5024  3.4039
 9588TIP3    H250180   2.005   3.577  13.914  0.7477  0.4375 -0.0311
 9589TIP3   OH250181   3.760   5.350   5.542  0.3200 -0.3486 -0.0428
 9589TIP3    H150182   3.730   5.321   5.628 -1.1833 -1.2395 -0.8074
 9589TIP3    H250183   3.754   5.271   5.487  2.3137 -0.0684 -0.7168
 9590TIP3   OH250184   3.706   5.646   4.166 -0.0278  0.4196 -0.1825
 9590TIP3    H150185   3.661   5.706   4.106 -0.9604  0.7214  0.7940
 9590TIP3    H250186   3.785   5.694   4.192  0.2733  0.3769 -0.9676
 9591TIP3   OH250187   1.772   0.490  13.791 -0.4655  0.3431 -0.7528
 9591TIP3    H150188   1.856   0.461  13.755  0.2754  2.0984 -0.5261
 9591TIP3    H250189   1.725   0.409  13.809  0.8894 -0.6701 -1.5592
 9592TIP3   OH250190   5.971   5.653   5.194 -0.0653  0.3903  0.4141
 9592TIP3    H150191   6.030   5.700   5.252 -0.2958 -0.5490  1.4358
 9592TIP3    H250192   5.891   5.705   5.193  0.4217  1.1524 -0.2083
 9593TIP3   OH250193   2.912   3.577   5.641  0.5148  0.3244 -0.0780
 9593TIP3    H150194   2.927   3.540   5.729  2.4358 -2.2803 -1.3559
 9593TIP3    H250195   2.872   3.662   5.658 -0.2850 -0.5516  3.2796
 9594TIP3   OH250196   6.206   4.254   4.851  0.8308 -0.4083 -0.2784
 9594TIP3    H150197   6.188   4.219   4.939  0.6618 -0.5766 -0.3791
 9594TIP3    H250198   6.259   4.332   4.867  1.5505 -0.9277 -0.0628
 9595TIP3   OH250199   2.877   6.505   3.560  0.4946  0.2376 -0.1449
 9595TIP3    H150200   2.840   6.543   3.640 -0.7108  0.0030 -0.5745
 9595TIP3    H250201   2.932   6.574   3.524  0.5345  0.5763  0.5490
 9596TIP3   OH250202   4.120   3.727   1.014  0.1074  0.3057 -0.3785
 9596TIP3    H150203   4.165   3.750   0.933  1.0872 -1.5909 -0.4428
 9596TIP3    H250204   4.135   3.633   1.024  0.0327  0.4782  2.0122
 9597TIP3   OH250205   4.810   6.361   4.042 -0.1647 -0.4232  0.1827
 9597TIP3    H150206   4.839   6.304   4.114 -0.6472 -1.8237 -0.6957
 9597TIP3    H250207   4.741   6.311   3.998 -1.2100  1.2254 -0.1030
 9598TIP3   OH250208   2.035   1.106  13.965  0.2472  0.4434 -0.0358
 9598TIP3    H150209   2.079   1.119  13.881 -0.4508  2.1092 -0.1648
 9598TIP3    H250210   1.955   1.157  13.959 -0.6483 -0.7604  1.0349
 9599TIP3   OH250211   6.007   6.566   5.298 -0.3170 -0.0662  0.0379
 9599TIP3    H150212   6.084   6.572   5.354  0.5167 -0.4809 -1.0131
 9599TIP3    H250213   5.938   6.610   5.347  0.7559  0.9419  0.7143
 9600TIP3   OH250214   6.482   3.240   5.392 -0.2244 -0.2293 -0.0578
 9600TIP3    H150215   6.544   3.276   5.455  0.2472 -1.0698 -0.0320
 9600TIP3    H250216   6.403   3.222   5.443  0.8138 -2.8279  0.8187
 9601TIP3   OH250217   2.141   0.304  14.049  0.6065  0.2915 -0.4750
 9601TIP3    H150218   2.094   0.302  14.132 -0.7978  0.9568 -1.2211
 9601TIP3    H250219   2.225   0.345  14.071 -0.3753  2.0145  0.3554
 9602TIP3   OH250220   0.267   2.557  15.686 -0.1946  0.1454  0.2865
 9602TIP3    H150221   0.319   2.477  15.687 -0.5103 -0.0610  2.1029
 9602TIP3    H250222   0.313   2.617  15.745 -1.5837  0.2127  1.3435
 9603TIP3   OH250223   4.829   3.342  14.824  0.3131  0.1371  0.5275
 9603TIP3    H150224   4.782   3.299  14.896 -0.8513  2.2279  1.0973
 9603TIP3    H250225   4.902   3.387  14.867 -0.4649  1.5046  0.4588
 9604TIP3   OH250226   3.576   5.903  11.088 -0.0055  0.7639 -0.1381
 9604TIP3    H150227   3.548   5.842  11.020  2.2644 -0.1332 -0.3697
 9604TIP3    H250228   3.617   5.975  11.040 -1.4251  1.8142  0.1903
 9605TIP3   OH250229   5.819   2.500  11.587 -0.2808  0.2169 -0.2986
 9605TIP3    H150230   5.777   2.444  11.653 -0.2274  0.3855 -0.1196
 9605TIP3    H250231   5.859   2.439  11.526 -2.0515  0.0055 -1.3241
 9606TIP3   OH250232   4.318   2.887  15.733 -0.1192  0.0122 -0.9210
 9606TIP3    H150233   4.295   2.949  15.802 -1.7750  0.4670 -1.8174
 9606TIP3    H250234   4.334   2.805  15.779 -0.1998  0.5527  0.0915
 9607TIP3   OH250235   2.282   2.880   5.840  0.3691 -0.0363  0.0206
 9607TIP3    H150236   2.311   2.814   5.903  2.5829  1.1020  0.3031
 9607TIP3    H250237   2.192   2.857   5.820  1.2125 -3.5085 -0.3554
 9608TIP3   OH250238   0.313   5.656  15.025 -0.3086 -0.0999 -0.0307
 9608TIP3    H150239   0.364   5.692  14.953 -0.9254 -0.7970 -0.8379
 9608TIP3    H250240   0.378   5.631  15.091  0.1168  3.0280  0.8582
 9609TIP3   OH250241   6.067   5.518  15.321 -0.4340 -0.2688 -0.5113
 9609TIP3    H150242   6.036   5.472  15.399 -0.2862  1.7709  0.8247
 9609TIP3    H250243   5.990   5.524  15.264 -1.3472  0.6831  0.7497
 9610TIP3   OH250244   4.628   5.075  14.457 -0.4454  0.0039  0.0952
 9610TIP3    H150245   4.554   5.046  14.511  0.0540 -0.8555  0.3426
 9610TIP3    H250246   4.693   5.106  14.520 -0.8581  1.4219 -0.1592
 9611TIP3   OH250247   5.803   5.498   5.790  0.1752 -0.3412 -0.7143
 9611TIP3    H150248   5.856   5.570   5.826 -1.8578 -0.1259  2.2071
 9611TIP3    H250249   5.741   5.478   5.859 -3.2434 -0.9314 -3.6682
 9612TIP3   OH250250   3.613   4.010   4.473  0.1197 -0.0537  0.6329
 9612TIP3    H150251   3.606   3.917   4.451  1.6967 -0.0590  0.0636
 9612TIP3    H250252   3.578   4.016   4.562  0.1542 -1.2114  0.7478
 9613TIP3   OH250253   3.525   4.052  12.694 -0.2079 -0.4139  0.0385
 9613TIP3    H150254   3.468   4.120  12.729 -0.0466 -1.0162  1.5451
 9613TIP3    H250255   3.571   4.017  12.771  1.4448 -0.6347 -0.9907
 9614TIP3   OH250256   2.851   3.135   1.965 -0.4388 -0.4482 -0.2015
 9614TIP3    H150257   2.844   3.159   1.872 -2.4826 -1.5883 -0.3912
 9614TIP3    H250258   2.796   3.199   2.010 -0.3056 -0.5440  0.0973
 9615TIP3   OH250259   2.252   0.062  11.799 -0.6946 -0.4877 -0.6762
 9615TIP3    H150260   2.167   0.040  11.837 -0.3701 -0.5065  0.0569
 9615TIP3    H250261   2.284  -0.020  11.762  0.1055 -1.1140  1.2514
 9616TIP3   OH250262   5.193   4.861  13.592  0.4123 -0.0429  0.0093
 9616TIP3    H150263   5.158   4.772  13.582  1.9798 -0.7316  0.2499
 9616TIP3    H250264   5.118   4.918  13.578  0.0601 -1.1952 -4.2284
 9617TIP3   OH250265   4.146   3.895  12.594  0.4400  0.3819  0.1461
 9617TIP3    H150266   4.201   3.871  12.519 -0.5639 -0.2828 -0.4132
 9617TIP3    H250267   4.156   3.822  12.655 -1.7378 -1.0374 -1.0647
 9618TIP3   OH250268   0.273   2.907  15.688 -0.1351  0.0269 -0.2398
 9618TIP3    H150269   0.297   2.834  15.744  0.1886  0.1545 -0.2093
 9618TIP3    H250270   0.177   2.910  15.692 -0.1362 -0.2349 -0.0423
 9619TIP3   OH250271   0.600   5.595   5.266  0.7654  0.6592 -0.1434
 9619TIP3    H150272   0.598   5.684   5.231 -1.1941  1.0946  0.9699
 9619TIP3    H250273   0.587   5.605   5.360  0.8063 -0.7943  0.0463
 9620TIP3   OH250274   0.662   4.070  16.390 -0.4367  0.0389 -0.1198
 9620TIP3    H150275   0.678   4.008  16.461  0.7033 -0.4879 -0.8070
 9620TIP3    H250276   0.681   4.021  16.310 -0.4879  0.9811 -0.7354
 9621TIP3   OH250277   4.216   0.417  13.822  0.2757 -0.3515  0.1905
 9621TIP3    H150278   4.228   0.424  13.727 -1.4755  0.0851 -0.0389
 9621TIP3    H250279   4.121   0.420  13.834  0.3610 -2.2439  1.8394
 9622TIP3   OH250280   4.589   1.860   2.301 -0.8224 -0.4153  0.2832
 9622TIP3    H150281   4.541   1.912   2.237  0.5909 -1.1714 -1.4637
 9622TIP3    H250282   4.660   1.917   2.330  0.8300 -1.2854 -1.7589
 9623TIP3   OH250283   1.001   3.784  14.322  0.8191 -0.6902 -0.0215
 9623TIP3    H150284   0.934   3.816  14.263  1.9198  1.6675 -0.1278
 9623TIP3    H250285   0.958   3.718  14.375 -1.3605  0.1949 -0.6044
 9624TIP3   OH250286   2.944   4.715   5.498 -0.5873 -0.1014 -0.1723
 9624TIP3    H150287   3.018   4.655   5.509 -0.4440  0.2015  0.5799
 9624TIP3    H250288   2.952   4.775   5.572 -1.9646 -0.4677  0.3009
 9625TIP3   OH250289   6.255   6.460  15.832 -1.0514  0.0090  0.0494
 9625TIP3    H150290   6.341   6.446  15.872 -0.8070  2.7617  0.7006
 9625TIP3    H250291   6.273   6.480  15.740 -0.7609  1.9643  0.4698
 9626TIP3   OH250292   5.438   2.265  15.148  0.6481 -0.2257  0.6631
 9626TIP3    H150293   5.393   2.208  15.085  0.6577  0.0143  0.4390
 9626TIP3    H250294   5.480   2.204  15.209  2.2860 -0.5247 -0.6827
 9627TIP3   OH250295   0.153   3.831   1.494  0.1565 -0.0250  0.1717
 9627TIP3    H150296   0.073   3.880   1.513 -0.5913 -0.9222 -0.5477
 9627TIP3    H250297   0.136   3.790   1.409  1.3538 -0.3020  0.0535
 9628TIP3   OH250298   2.056   2.817  16.810  0.6409 -0.1156 -0.0464
 9628TIP3    H150299   2.069   2.743  16.869  2.7600 -1.2167 -1.7248
 9628TIP3    H250300   1.961   2.825  16.801  0.2278 -4.3397 -1.6898
 9629TIP3   OH250301   5.686   5.404   3.985 -0.1951  0.3130  0.1259
 9629TIP3    H150302   5.645   5.486   4.012 -1.0209  0.2186 -0.8047
 9629TIP3    H250303   5.760   5.394   4.044 -0.5816  1.3003  0.8020
 9630TIP3   OH250304   6.525   5.546   0.680 -0.1654 -0.1641 -0.2361
 9630TIP3    H150305   6.564   5.625   0.716 -0.7019  0.2902 -0.6369
 9630TIP3    H250306   6.459   5.577   0.617  0.1978 -0.9230 -1.0262
 9631TIP3   OH250307   2.003   1.041   0.560  0.0123 -0.0139 -0.0375
 9631TIP3    H150308   1.974   1.004   0.476 -0.1392  0.0528 -0.0154
 9631TIP3    H250309   2.094   1.014   0.568 -0.4030 -1.3300  0.5016
 9632TIP3   OH250310   2.106   5.336  13.947 -0.3170 -0.3803 -0.0521
 9632TIP3    H150311   2.158   5.412  13.920  1.7924 -0.7573  2.5842
 9632TIP3    H250312   2.015   5.362  13.929  0.2921  2.9182  1.0406
 9633TIP3   OH250313   4.559   4.353  12.275  0.4655  0.4684 -0.3368
 9633TIP3    H150314   4.570   4.379  12.367  3.1055 -0.0226 -0.4503
 9633TIP3    H250315   4.592   4.428  12.225 -1.0963  0.7978 -0.9627
 9634TIP3   OH250316   1.502   5.573  16.884 -0.3925 -0.0736 -0.0108
 9634TIP3    H150317   1.420   5.525  16.882 -0.1155 -0.5636  0.2531
 9634TIP3    H250318   1.570   5.506  16.871  0.0200  0.1830  0.7486
 9635TIP3   OH250319   0.764   6.693  15.894 -0.2780  0.1571  0.1177
 9635TIP3    H150320   0.764   6.664  15.803  0.8698 -0.3762  0.2655
 9635TIP3    H250321   0.805   6.780  15.892 -1.8726  0.9471 -0.0705
 9636TIP3   OH250322   5.475   6.299   1.518  0.3878 -0.2158 -0.4073
 9636TIP3    H150323   5.420   6.246   1.460 -2.6420  2.0598  0.1359
 9636TIP3    H250324   5.413   6.340   1.579  2.6767  2.5496  0.2767
 9637TIP3   OH250325   1.715   6.074  15.888  0.1178  0.4163  0.5150
 9637TIP3    H150326   1.807   6.095  15.904 -0.0450  0.8150  0.9733
 9637TIP3    H250327   1.717   5.989  15.844  0.7538  0.9562 -0.5406
 9638TIP3   OH250328   5.013   4.580  13.551 -0.4703  0.3160 -0.5392
 9638TIP3    H150329   5.006   4.507  13.489  0.1128  0.6390 -0.9913
 9638TIP3    H250330   5.096   4.566  13.595  0.1758  1.3045 -1.4111
 9639TIP3   OH250331   6.336   5.393   4.614 -0.3398 -0.2583  0.3332
 9639TIP3    H150332   6.406   5.341   4.654 -2.8489 -2.9909  1.5319
 9639TIP3    H250333   6.282   5.420   4.688  0.2372  3.3852 -0.3628
 9640TIP3   OH250334   5.812   0.798  15.860 -0.0084  0.4035 -0.1088
 9640TIP3    H150335   5.857   0.864  15.912  0.2102  0.5632 -0.4932
 9640TIP3    H250336   5.877   0.771  15.794 -0.7733  1.3738 -1.3078
 9641TIP3   OH250337   5.177   3.242   3.267 -0.4909  0.2675  0.2556
 9641TIP3    H150338   5.133   3.156   3.262  1.0951 -0.6037  0.6209
 9641TIP3    H250339   5.222   3.250   3.183 -0.8872  0.9120  0.0959
 9642TIP3   OH250340   1.864   4.165  15.728  0.1198  0.3166  0.3548
 9642TIP3    H150341   1.841   4.093  15.787  2.5744 -0.2692  0.7053
 9642TIP3    H250342   1.810   4.151  15.651 -0.1198 -1.3717  0.7862
 9643TIP3   OH250343   6.729   4.042  14.558  0.4909  0.6600  0.5977
 9643TIP3    H150344   6.636   4.042  14.534  0.9239 -0.4532 -1.1895
 9643TIP3    H250345   6.771   4.095  14.491  1.2328  0.7474  1.1246
 9644TIP3   OH250346   6.185   4.608  12.518  0.1867  0.9625 -0.4300
 9644TIP3    H150347   6.129   4.653  12.456  0.7091  2.0005 -0.1622
 9644TIP3    H250348   6.181   4.516  12.491 -3.7633  0.4614  1.1893
 9645TIP3   OH250349   0.091   2.335  13.638 -0.9242  0.2575  0.2840
 9645TIP3    H150350   0.081   2.423  13.602 -1.1754  0.3200  0.5062
 9645TIP3    H250351   0.095   2.347  13.733  4.0177  0.5456  0.2976
 9646TIP3   OH250352   3.544   2.851   3.005  1.2022  0.4117 -0.6250
 9646TIP3    H150353   3.545   2.822   2.914  2.3414  2.0698 -1.1812
 9646TIP3    H250354   3.633   2.835   3.036  0.8508 -0.0389  0.1638
 9647TIP3   OH250355   3.396   1.938  14.727  0.2406 -0.2856 -0.1880
 9647TIP3    H150356   3.364   1.889  14.652  0.2863 -1.8341  0.7537
 9647TIP3    H250357   3.473   1.889  14.757  1.1666  1.1795 -0.0639
 9648TIP3   OH250358   2.269   1.368  16.318  0.4219  0.0720 -0.3770
 9648TIP3    H150359   2.275   1.273  16.308 -1.6403 -0.1210 -0.1267
 9648TIP3    H250360   2.219   1.381  16.398  2.6823  1.4407  0.9355
 9649TIP3   OH250361   4.134   1.434  15.853 -0.4464 -0.4231 -0.3691
 9649TIP3    H150362   4.189   1.380  15.795  1.3010  1.1720 -0.2888
 9649TIP3    H250363   4.165   1.412  15.941  1.5462  1.8407 -0.3884
 9650TIP3   OH250364   0.163   6.418   2.403 -0.1177 -0.3502 -1.0417
 9650TIP3    H150365   0.140   6.447   2.315 -1.2595 -0.8543 -0.9330
 9650TIP3    H250366   0.079   6.400   2.445  0.4614 -1.9371 -0.4755
 9651TIP3   OH250367   0.597   0.587   2.935  0.4800  0.0549  0.3805
 9651TIP3    H150368   0.613   0.574   2.841 -0.4688  1.2161  0.0402
 9651TIP3    H250369   0.679   0.624   2.968 -0.1625  2.5885 -0.6456
 9652TIP3   OH250370   4.617   6.077   3.077 -0.4244 -0.0971 -0.6923
 9652TIP3    H150371   4.553   6.048   3.012  0.0102  0.3873 -1.3502
 9652TIP3    H250372   4.676   6.135   3.028 -1.8120  2.6771  0.7207
 9653TIP3   OH250373   2.088   2.015   1.934  0.4527  0.1647 -0.0472
 9653TIP3    H150374   1.992   2.016   1.930  0.4381  1.3638  0.1911
 9653TIP3    H250375   2.115   2.073   1.863  0.9414  0.9703  0.7683
 9654TIP3   OH250376   6.538   4.990  12.805 -0.2795 -0.4152 -0.3535
 9654TIP3    H150377   6.612   4.991  12.745 -1.2224  0.2634 -1.5452
 9654TIP3    H250378   6.461   4.994  12.749 -1.1922  0.6364  0.9108
 9655TIP3   OH250379   3.052   6.706   0.837 -0.2028  0.2646 -0.9431
 9655TIP3    H150380   3.119   6.659   0.886 -1.0743 -1.5017 -1.3756
 9655TIP3    H250381   3.067   6.799   0.858 -0.0451 -0.3515  1.9850
 9656TIP3   OH250382   5.765   1.255   4.668  0.3770  0.5308  0.2004
 9656TIP3    H150383   5.817   1.178   4.690 -0.0670  0.0293 -0.4570
 9656TIP3    H250384   5.802   1.325   4.721  0.7699 -0.1412  0.8312
 9657TIP3   OH250385   1.406   6.077  17.008  0.2541  0.4908 -0.6315
 9657TIP3    H150386   1.448   6.017  16.947  0.6044 -1.1693  1.1517
 9657TIP3    H250387   1.314   6.052  17.008  0.2080  0.6586 -0.6655
 9658TIP3   OH250388   2.121   6.109   5.781 -0.1910 -0.4136  0.5816
 9658TIP3    H150389   2.077   6.143   5.704  1.4611 -0.7671 -0.5768
 9658TIP3    H250390   2.153   6.022   5.754 -0.4469 -0.9711  1.9918
 9659TIP3   OH250391   4.796   1.648   3.511 -0.1579  0.5545 -0.2504
 9659TIP3    H150392   4.727   1.694   3.464 -0.6419  0.7251  0.5938
 9659TIP3    H250393   4.818   1.573   3.456  0.4746  1.6486 -1.5283
 9660TIP3   OH250394   2.757   0.860  12.442  0.1170  0.1879  0.4928
 9660TIP3    H150395   2.724   0.874  12.530  2.1508  0.6667  1.2300
 9660TIP3    H250396   2.703   0.917  12.387  0.0565  1.3351  1.7014
 9661TIP3   OH250397   0.751   5.852  12.409  0.0761  0.2411  0.1278
 9661TIP3    H150398   0.846   5.850  12.418  0.1762 -1.3985 -1.0095
 9661TIP3    H250399   0.736   5.909  12.333  0.1010  0.8632  0.5770
 9662TIP3   OH250400   5.736   1.083  14.443 -0.4622 -0.1754  0.3794
 9662TIP3    H150401   5.779   1.022  14.503 -0.3854 -0.7035 -0.2046
 9662TIP3    H250402   5.688   1.143  14.500  1.1464  0.5224  1.0639
 9663TIP3   OH250403   4.084   2.026   5.136 -0.2919  0.0191 -0.0272
 9663TIP3    H150404   4.092   2.104   5.191 -1.8960 -2.0015  3.4899
 9663TIP3    H250405   4.161   1.974   5.156 -0.5599 -0.4573 -0.2035
 9664TIP3   OH250406   2.716   3.600  12.507 -0.8661  0.1698 -0.5071
 9664TIP3    H150407   2.728   3.649  12.426 -0.5461  0.1560 -0.4690
 9664TIP3    H250408   2.743   3.510  12.486  0.7245  0.4916  0.0244
 9665TIP3   OH250409   1.057   4.106  13.070 -0.4796 -0.2485 -0.0727
 9665TIP3    H150410   1.035   4.199  13.076  2.5990  0.5315  1.6094
 9665TIP3    H250411   1.009   4.065  13.142 -0.0863  0.5067  0.6332
 9666TIP3   OH250412   1.111   2.681   5.987  0.4195  0.1975  0.1937
 9666TIP3    H150413   1.023   2.711   5.964  0.6723 -0.5074 -1.9247
 9666TIP3    H250414   1.126   2.714   6.075 -1.6655  0.9852  0.2952
 9667TIP3   OH250415   4.656   4.802  16.433 -0.3618  0.0071  0.8581
 9667TIP3    H150416   4.668   4.885  16.478  0.1863 -0.4232  1.5083
 9667TIP3    H250417   4.737   4.789  16.384 -1.3215  0.9713 -1.1323
 9668TIP3   OH250418   4.667   0.263   4.727 -0.1649  0.0120 -0.3989
 9668TIP3    H150419   4.664   0.254   4.822 -0.9894 -0.3682 -0.4540
 9668TIP3    H250420   4.652   0.174   4.694  0.7138  0.0304 -0.8834
 9669TIP3   OH250421   6.631   2.933  17.217  0.7996 -0.5452 -0.1945
 9669TIP3    H150422   6.707   2.949  17.161  0.7554 -1.8663 -0.6734
 9669TIP3    H250423   6.607   2.843  17.198 -0.9311 -0.1311 -0.0813
 9670TIP3   OH250424   4.127   6.705   5.081  0.2616  0.0902 -0.7137
 9670TIP3    H150425   4.161   6.616   5.091  1.1056  0.1805 -2.5003
 9670TIP3    H250426   4.204   6.761   5.092 -0.4558  0.7602  1.7073
 9671TIP3   OH250427   3.424   2.970  16.568 -0.0443  0.1974 -0.0561
 9671TIP3    H150428   3.432   2.954  16.662  0.1110  0.2282 -0.0639
 9671TIP3    H250429   3.337   2.935  16.545  0.8849 -2.1099 -0.3624
 9672TIP3   OH250430   5.828   4.994   1.312 -0.1669 -0.6910 -0.2795
 9672TIP3    H150431   5.889   4.957   1.248 -0.5895 -1.7483 -0.0888
 9672TIP3    H250432   5.751   4.937   1.308 -1.3237  0.8469 -0.7889
 9673TIP3   OH250433   2.540   5.749   2.470 -0.6790 -0.5469  0.0192
 9673TIP3    H150434   2.468   5.805   2.440 -0.3520 -0.1856 -0.0933
 9673TIP3    H250435   2.542   5.761   2.565 -0.7256 -0.5134  0.0160
 9674TIP3   OH250436   1.645   5.910  13.208 -0.6362  0.1867 -0.0856
 9674TIP3    H150437   1.594   5.949  13.137 -0.6090 -0.3134 -0.3791
 9674TIP3    H250438   1.592   5.837  13.239  0.1458 -0.6904 -0.7744
 9675TIP3   OH250439   0.616   3.315  13.884  0.4635  0.2741  0.1005
 9675TIP3    H150440   0.644   3.398  13.923  1.9677 -0.2577  0.2310
 9675TIP3    H250441   0.670   3.306  13.806  0.2064 -0.5214  0.0043
 9676TIP3   OH250442   6.268   2.668   3.860 -0.0552  0.2428  0.4327
 9676TIP3    H150443   6.323   2.663   3.781 -1.4378 -0.8114 -0.5151
 9676TIP3    H250444   6.327   2.645   3.931  0.8770 -0.3203 -0.4851
 9677TIP3   OH250445   0.431   3.094   3.044 -0.8107  0.8000 -0.2226
 9677TIP3    H150446   0.451   3.167   2.985 -0.4634  1.0478  0.1887
 9677TIP3    H250447   0.412   3.136   3.128 -3.0312  0.5699 -0.5592
 9678TIP3   OH250448   5.768   0.247   0.079  0.0032  0.0663  0.9070
 9678TIP3    H150449   5.796   0.171   0.129  1.5346 -0.7580 -1.0929
 9678TIP3    H250450   5.682   0.269   0.116 -0.6765 -2.8543  1.2968
 9679TIP3   OH250451   2.940   6.350  16.604 -0.3039 -0.2783 -0.4374
 9679TIP3    H150452   3.008   6.330  16.668  0.6589 -0.4105 -1.4873
 9679TIP3    H250453   2.866   6.295  16.630 -0.1642  0.1446  0.9322
 9680TIP3   OH250454   6.775   1.760   0.728 -0.4571  0.0549 -0.2303
 9680TIP3    H150455   6.745   1.720   0.810 -0.1912 -0.4745 -0.3834
 9680TIP3    H250456   6.697   1.762   0.672 -1.0034  1.7547  0.5222
 9681TIP3   OH250457   0.702   4.898  12.379  0.8386 -0.4374 -0.2337
 9681TIP3    H150458   0.699   4.874  12.472 -1.1924 -0.6110 -0.3041
 9681TIP3    H250459   0.783   4.858  12.347 -0.3775 -3.9141  0.5742
 9682TIP3   OH250460   2.553   6.746   1.219 -0.2562 -0.1710  0.1682
 9682TIP3    H150461   2.491   6.771   1.150 -0.1139 -3.3400 -1.3029
 9682TIP3    H250462   2.618   6.816   1.220 -1.7644  1.3302 -0.9418
 9683TIP3   OH250463   3.671   6.077   4.135 -0.0332  0.1945 -0.3602
 9683TIP3    H150464   3.626   6.006   4.090 -0.2840  0.4165 -0.4637
 9683TIP3    H250465   3.761   6.073   4.103 -0.2391  0.4357 -0.9849
 9684TIP3   OH250466   2.350   6.701   2.541  0.3039 -0.2366  0.2732
 9684TIP3    H150467   2.364   6.630   2.603  0.5308 -1.5503 -1.2167
 9684TIP3    H250468   2.274   6.748   2.575 -0.2868 -1.6195  0.9513
 9685TIP3   OH250469   4.399   1.041   2.127 -0.3414 -0.3199 -0.2620
 9685TIP3    H150470   4.443   1.096   2.192  0.7825  0.2210 -1.4448
 9685TIP3    H250471   4.355   0.973   2.179  1.4122 -0.5479  1.0157
 9686TIP3   OH250472   3.412   0.986  12.896 -0.4178 -0.4620 -0.2279
 9686TIP3    H150473   3.394   1.073  12.860 -0.4110  0.1263  1.1057
 9686TIP3    H250474   3.345   0.930  12.858  0.9214 -0.4068 -2.8654
 9687TIP3   OH250475   0.410   6.516   1.358  0.5260 -0.0352 -0.2969
 9687TIP3    H150476   0.419   6.519   1.453 -0.4042 -0.4310 -0.1811
 9687TIP3    H250477   0.331   6.568   1.340 -1.4849 -2.9023 -0.4678
 9688TIP3   OH250478   5.570   0.839   1.676  0.2617 -0.4333  0.1870
 9688TIP3    H150479   5.584   0.745   1.670 -0.5898 -0.5431 -0.3910
 9688TIP3    H250480   5.633   0.870   1.741  0.3380 -1.4425  0.6000
 9689TIP3   OH250481   2.159   1.524   5.615 -0.5127 -0.5882  0.2884
 9689TIP3    H150482   2.118   1.595   5.666 -0.8877 -0.0972 -0.6621
 9689TIP3    H250483   2.186   1.460   5.681 -1.3788 -0.1827  1.0756
 9690TIP3   OH250484   4.965   5.360  16.079  0.3798  0.2137 -0.5280
 9690TIP3    H150485   4.998   5.318  16.000 -0.6425  0.7303 -1.2538
 9690TIP3    H250486   4.917   5.436  16.047 -0.7256 -0.0083  0.5261
 9691TIP3   OH250487   1.560   2.068  17.053  0.1377 -0.3386 -0.4594
 9691TIP3    H150488   1.477   2.052  17.008 -0.0472  1.0975 -0.6713
 9691TIP3    H250489   1.535   2.115  17.133  0.8098  1.1490 -1.0905
 9692TIP3   OH250490   5.880   0.050   3.108 -0.2425 -0.4968 -0.2065
 9692TIP3    H150491   5.796   0.027   3.068  0.5542  0.1383 -2.3500
 9692TIP3    H250492   5.872   0.143   3.129 -0.4658 -0.7075  0.7270
 9693TIP3   OH250493   4.354   3.248  17.079  0.2597  0.0459  0.2145
 9693TIP3    H150494   4.437   3.201  17.085 -1.6042 -3.7166 -0.1951
 9693TIP3    H250495   4.342   3.263  16.986  0.3629  0.3489  0.2506
 9694TIP3   OH250496   4.999   1.056  13.085 -0.5434  0.1129  0.2112
 9694TIP3    H150497   5.030   0.983  13.138 -0.3249  1.4973  2.0889
 9694TIP3    H250498   4.909   1.032  13.062 -0.2923 -0.9901  0.3193
 9695TIP3   OH250499   0.779   3.676  15.405  0.2445 -0.7877  0.1295
 9695TIP3    H150500   0.816   3.719  15.483 -1.0447  0.0397  0.3145
 9695TIP3    H250501   0.854   3.631  15.365  1.4049  0.6238  0.6091
 9696TIP3   OH250502   2.494   5.198   3.332  0.1332 -0.3195  0.1585
 9696TIP3    H150503   2.405   5.215   3.363 -0.1163 -0.4501 -0.4721
 9696TIP3    H250504   2.543   5.276   3.359 -0.5112  0.4484 -0.7997
 9697TIP3   OH250505   1.357   3.765  13.633 -0.1571 -0.2002  0.0336
 9697TIP3    H150506   1.365   3.746  13.727  0.1168 -0.6307 -0.0748
 9697TIP3    H250507   1.433   3.820  13.613 -0.6975  0.6461  0.2477
 9698TIP3   OH250508   6.076   4.259   3.272 -0.0326 -0.2042  0.0408
 9698TIP3    H150509   6.102   4.318   3.343  1.1358 -0.2453 -0.3279
 9698TIP3    H250510   6.092   4.310   3.192  1.1253 -1.0405 -0.2905
 9699TIP3   OH250511   3.758   6.693   3.417 -0.1981 -0.4184  0.2440
 9699TIP3    H150512   3.703   6.618   3.439 -0.0755 -0.9038 -1.0297
 9699TIP3    H250513   3.848   6.661   3.427 -0.1412 -0.2392  0.3165
 9700TIP3   OH250514   4.276   2.365  14.449  0.2907 -0.3819  0.4320
 9700TIP3    H150515   4.206   2.307  14.418  0.1318 -0.0486  0.1575
 9700TIP3    H250516   4.357   2.320  14.427  0.1952 -1.8988  2.8197
 9701TIP3   OH250517   5.790   3.161  12.637 -0.2157  0.1321  0.0501
 9701TIP3    H150518   5.755   3.088  12.586 -2.8223  0.5315  1.1208
 9701TIP3    H250519   5.796   3.128  12.727  0.4151  0.6767  0.2214
 9702TIP3   OH250520   3.247   6.652  13.107  0.0059 -0.7869  0.1672
 9702TIP3    H150521   3.187   6.635  13.034 -0.6539 -0.1515  0.5545
 9702TIP3    H250522   3.320   6.592  13.092  0.5367  0.2659 -1.7745
 9703TIP3   OH250523   2.646   4.089  13.162  0.5420  0.1536 -0.0066
 9703TIP3    H150524   2.729   4.129  13.190 -1.0790  3.0980  1.0972
 9703TIP3    H250525   2.604   4.063  13.244 -0.1676 -0.1556 -0.4641
 9704TIP3   OH250526   0.584   2.332  13.470 -0.5027  0.0858 -0.5633
 9704TIP3    H150527   0.673   2.328  13.433 -1.0441 -0.6403 -1.8550
 9704TIP3    H250528   0.568   2.244  13.503 -0.5511  0.3591  0.1504
 9705TIP3   OH250529   5.240   5.187  16.152  0.2094 -0.5784  0.0751
 9705TIP3    H150530   5.222   5.194  16.246 -0.6152 -1.9377  0.0525
 9705TIP3    H250531   5.269   5.274  16.126  2.1729 -0.6114  1.9247
 9706TIP3   OH250532   0.694   5.217   2.796  0.2417  0.4631  0.5545
 9706TIP3    H150533   0.665   5.128   2.816 -1.1837 -0.0511 -3.0039
 9706TIP3    H250534   0.615   5.271   2.807  0.5883  0.9487  0.7205
 9707TIP3   OH250535   6.737   5.390  11.533 -0.0038 -0.2049 -0.0404
 9707TIP3    H150536   6.661   5.374  11.476  1.0779 -0.1609 -1.5586
 9707TIP3    H250537   6.755   5.483  11.523 -0.1359 -0.0840  0.8270
 9708TIP3   OH250538   2.599   3.867  11.607 -0.1659 -1.1404  0.5240
 9708TIP3    H150539   2.508   3.844  11.592 -1.1428  2.2152  0.5075
 9708TIP3    H250540   2.642   3.784  11.625 -3.0987 -2.9025  0.0376
 9709TIP3   OH250541   0.681   1.289  16.888  0.6401 -0.2277 -0.1470
 9709TIP3    H150542   0.621   1.358  16.861 -1.2347 -2.0458 -0.8862
 9709TIP3    H250543   0.763   1.308  16.841  0.4718  1.9182  0.3507
 9710TIP3   OH250544   4.058   6.732  11.177 -0.4280 -0.2887  0.3587
 9710TIP3    H150545   4.101   6.680  11.110  0.2555 -0.3774  0.8605
 9710TIP3    H250546   4.079   6.823  11.155  1.2620 -0.3831  1.4082
 9711TIP3   OH250547   4.653   6.625   2.651 -0.5738  0.7281  0.1815
 9711TIP3    H150548   4.670   6.531   2.661  0.9574  0.9758  0.0780
 9711TIP3    H250549   4.725   6.657   2.597 -1.0747  1.9748  0.2254
 9712TIP3   OH250550   6.524   1.839  16.941  0.1827  0.2100 -0.1359
 9712TIP3    H150551   6.578   1.780  16.887 -0.3960 -1.8007  1.3561
 9712TIP3    H250552   6.498   1.785  17.016 -1.3932  2.0489  0.7120
 9713TIP3   OH250553   6.486   1.690  17.178 -0.2129 -0.1658 -0.0955
 9713TIP3    H150554   6.541   1.708  17.255  0.1502 -1.6935  0.0460
 9713TIP3    H250555   6.476   1.595  17.178  2.4250 -0.6484 -3.6832
 9714TIP3   OH250556   4.691   1.306  11.395  0.1150 -0.4531  0.1309
 9714TIP3    H150557   4.729   1.218  11.392  0.3000 -0.3525 -1.8410
 9714TIP3    H250558   4.767   1.364  11.406  0.3478 -0.3891 -1.5785
 9715TIP3   OH250559   6.265   1.767  15.102 -0.1718  0.0464  0.0842
 9715TIP3    H150560   6.306   1.720  15.174  0.3770  1.0651  0.4587
 9715TIP3    H250561   6.270   1.859  15.127  0.5576  0.4847 -1.4999
 9716TIP3   OH250562   0.354   2.962  17.156 -0.5833  0.5151 -0.1530
 9716TIP3    H150563   0.419   2.895  17.130 -0.4336  0.9764 -1.0109
 9716TIP3    H250564   0.322   2.932  17.241  3.2198  1.9987  2.0997
 9717TIP3   OH250565   5.884   4.295  15.434 -0.0932  0.3221  0.4888
 9717TIP3    H150566   5.882   4.389  15.415  0.3085  0.1425 -0.4833
 9717TIP3    H250567   5.794   4.266  15.418  0.5461 -0.1474 -3.0668
 9718TIP3   OH250568   3.496   3.870   6.366 -0.1648 -0.2694  0.0297
 9718TIP3    H150569   3.475   3.791   6.315  1.7173 -0.4698 -0.4964
 9718TIP3    H250570   3.542   3.838   6.443  0.3696  0.2946 -0.0469
 9719TIP3   OH250571   3.780   3.758  15.544  0.1899 -0.4593  0.0117
 9719TIP3    H150572   3.858   3.738  15.492  1.0693 -0.1269  1.1584
 9719TIP3    H250573   3.719   3.797  15.482  0.7100 -1.2332 -1.0244
 9720TIP3   OH250574   2.449   2.130   1.114 -0.1137  0.0142  0.5781
 9720TIP3    H150575   2.446   2.225   1.109 -1.8547 -0.0258  0.3971
 9720TIP3    H250576   2.412   2.109   1.200  0.3975 -0.4984  0.6795
 9721TIP3   OH250577   0.597   1.738  14.258 -0.8258 -0.1318 -0.5379
 9721TIP3    H150578   0.679   1.782  14.280 -1.9337  1.0505  1.6617
 9721TIP3    H250579   0.621   1.646  14.247  1.1614  0.5522 -2.6906
 9722TIP3   OH250580   6.341   0.720   2.290 -0.8790 -0.0312 -0.1277
 9722TIP3    H150581   6.334   0.777   2.213 -1.8034 -1.1015 -0.8665
 9722TIP3    H250582   6.278   0.755   2.352 -0.0926  0.8706  0.1875
 9723TIP3   OH250583   1.581   5.927  12.598 -0.0179  0.2187  0.5188
 9723TIP3    H150584   1.585   5.944  12.503  0.8741  1.3843  0.7385
 9723TIP3    H250585   1.494   5.958  12.623 -0.5880 -0.8748 -0.0435
 9724TIP3   OH250586   1.153   0.674   5.063  0.1844  0.1908  0.1415
 9724TIP3    H150587   1.122   0.752   5.108 -0.9044 -0.2133  0.1161
 9724TIP3    H250588   1.210   0.630   5.127  1.3077  1.2986 -0.0600
 9725TIP3   OH250589   1.942   1.507   6.040 -0.5586 -0.4717 -0.0859
 9725TIP3    H150590   1.921   1.463   5.957 -0.8278  1.1658 -0.9403
 9725TIP3    H250591   2.004   1.448   6.083 -0.3689 -1.3564 -1.4836
 9726TIP3   OH250592   1.874   4.345  17.161  0.1068 -0.3164  0.1230
 9726TIP3    H150593   1.916   4.404  17.224  2.1063 -0.4046 -1.0384
 9726TIP3    H250594   1.785   4.380  17.152 -0.5538 -0.7632  3.4877
 9727TIP3   OH250595   6.597   3.148   3.528  0.0321 -0.6312 -0.2283
 9727TIP3    H150596   6.553   3.100   3.458 -0.8400 -1.5083  0.8822
 9727TIP3    H250597   6.632   3.080   3.586  2.6218  0.0406 -0.8906
 9728TIP3   OH250598   6.196   5.674  15.035 -0.2411 -0.5604  0.2835
 9728TIP3    H150599   6.242   5.724  15.102  1.1986  0.9202 -1.7092
 9728TIP3    H250600   6.104   5.682  15.059  0.1940  0.1787  1.8939
 9729TIP3   OH250601   3.720   4.270  12.180  0.3604  0.4651  0.4508
 9729TIP3    H150602   3.673   4.271  12.096  3.2355  3.2332 -1.3544
 9729TIP3    H250603   3.731   4.177  12.200 -0.5177 -0.3146 -2.1965
 9730TIP3   OH250604   4.347   4.094  14.156 -0.6567  0.2997 -0.3444
 9730TIP3    H150605   4.276   4.128  14.210 -1.3732 -0.8282 -0.5302
 9730TIP3    H250606   4.333   3.999  14.156  1.1252  0.0113 -0.0248
 9731TIP3   OH250607   5.515   6.272  10.189 -0.0653  0.0023  0.2011
 9731TIP3    H150608   5.479   6.311  10.269 -1.2019 -1.0476  0.2248
 9731TIP3    H250609   5.584   6.333  10.163  2.0869 -0.8332  3.3107
 9732TIP3   OH250610   5.512   1.615   3.908  1.1274 -0.1220 -0.2366
 9732TIP3    H150611   5.574   1.542   3.906  1.6997  0.2442 -4.6785
 9732TIP3    H250612   5.568   1.693   3.910  0.5915  0.2584  0.9459
 9733TIP3   OH250613   4.615   4.857  10.782  0.0993  0.0281  0.3191
 9733TIP3    H150614   4.681   4.793  10.808  0.7135  1.4610  2.5238
 9733TIP3    H250615   4.586   4.896  10.864  1.9863  4.7928 -0.9562
 9734TIP3   OH250616   6.714   4.076   4.160  0.3038  0.5254  0.2895
 9734TIP3    H150617   6.693   4.160   4.120 -0.4761  0.7608  1.1367
 9734TIP3    H250618   6.756   4.025   4.091  0.2301  1.3948 -0.4069
 9735TIP3   OH250619   0.027   6.338   1.620  0.1614 -0.0616 -0.5257
 9735TIP3    H150620   0.004   6.354   1.529  1.7206 -0.2833 -0.9811
 9735TIP3    H250621  -0.001   6.248   1.636 -0.5724  0.1399 -0.6118
 9736TIP3   OH250622   2.894   0.685   4.738 -0.0779  0.0312  0.2831
 9736TIP3    H150623   2.919   0.674   4.830 -0.0790  1.6326  0.5081
 9736TIP3    H250624   2.964   0.737   4.700 -0.3833 -0.0922 -0.4726
 9737TIP3   OH250625   4.856   1.025   4.696 -0.4232 -0.7100 -0.4253
 9737TIP3    H150626   4.894   0.995   4.614  0.9860 -1.9051  0.6130
 9737TIP3    H250627   4.925   1.012   4.761 -1.0898  1.2831  0.7798
 9738TIP3   OH250628   2.837   0.993   5.473 -0.2686  0.2916  0.5303
 9738TIP3    H150629   2.921   1.039   5.462 -0.9782  1.3893 -0.5495
 9738TIP3    H250630   2.780   1.032   5.407 -2.2920  1.1637  2.6687
 9739TIP3   OH250631   4.273   1.530  11.065 -0.5723 -0.0083  0.0106
 9739TIP3    H150632   4.197   1.480  11.035 -0.3627  0.3480 -1.1371
 9739TIP3    H250633   4.234   1.606  11.109 -0.8749 -0.2806  0.2252
 9740TIP3   OH250634   3.277   3.228   0.376  0.2020 -0.2239  0.6690
 9740TIP3    H150635   3.321   3.186   0.450  1.9012  0.5138  0.1464
 9740TIP3    H250636   3.225   3.298   0.415  2.3083  1.1783  1.1241
 9741TIP3   OH250637   1.028   2.037  15.409 -0.1542  0.1343  0.0228
 9741TIP3    H150638   0.937   2.034  15.436  0.3737  0.3110  1.9785
 9741TIP3    H250639   1.047   1.949  15.376 -1.3785  0.5018 -1.7870
 9742TIP3   OH250640   4.285   0.593  13.548 -0.0673 -0.1639 -0.0118
 9742TIP3    H150641   4.376   0.567  13.560  0.2117 -0.1141 -1.7987
 9742TIP3    H250642   4.289   0.687  13.528 -0.2668 -0.5822 -2.2886
 9743TIP3   OH250643   5.007   6.080  13.448  0.2149 -0.0493 -0.0586
 9743TIP3    H150644   5.090   6.041  13.419 -0.6167 -0.3741 -2.1510
 9743TIP3    H250645   5.034   6.154  13.503  1.8474 -1.3156  0.9551
 9744TIP3   OH250646   5.957   5.162   5.315  0.3882 -0.2559  0.2143
 9744TIP3    H150647   5.977   5.147   5.222  0.9187 -1.6278  0.5326
 9744TIP3    H250648   5.923   5.252   5.317 -0.6393 -0.5395 -1.4705
 9745TIP3   OH250649   2.910   4.343   1.945  0.5160 -0.0689  0.0068
 9745TIP3    H150650   2.946   4.429   1.927 -1.9611  1.0930  0.1989
 9745TIP3    H250651   2.900   4.340   2.041 -2.7769  1.0157 -0.1850
 9746TIP3   OH250652   5.787   1.853  13.274 -0.3784  0.1664 -0.3755
 9746TIP3    H150653   5.779   1.947  13.259 -2.0746 -0.1185 -1.4341
 9746TIP3    H250654   5.730   1.836  13.349 -1.5920 -0.2937 -1.3844
 9747TIP3   OH250655   1.201   0.634   2.022 -0.2022 -0.0131 -0.1697
 9747TIP3    H150656   1.175   0.688   1.948 -1.1123  1.2440  1.0171
 9747TIP3    H250657   1.136   0.653   2.090  0.0735 -1.8092  0.6589
 9748TIP3   OH250658   0.204   0.702  12.171  0.5976  0.0357 -0.1850
 9748TIP3    H150659   0.255   0.774  12.208  1.0964 -0.3002 -0.2164
 9748TIP3    H250660   0.267   0.651  12.120  0.5257 -1.1161  0.8192
 9749TIP3   OH250661   5.033   2.557  11.959  0.1240  0.7965 -0.0114
 9749TIP3    H150662   4.962   2.606  11.917  0.3561  0.4455 -0.8449
 9749TIP3    H250663   5.007   2.465  11.951  1.0604  0.5987 -1.1182
 9750TIP3   OH250664   1.054   5.407  15.049  0.5204 -0.2408  0.0828
 9750TIP3    H150665   0.996   5.352  14.997 -0.1323 -0.3648  0.9085
 9750TIP3    H250666   1.068   5.486  14.996 -1.5021  0.3845  0.4067
 9751TIP3   OH250667   2.986   1.304   0.942  0.2323 -0.3070 -0.7915
 9751TIP3    H150668   3.036   1.385   0.930 -1.3518  0.7708 -0.3999
 9751TIP3    H250669   2.983   1.264   0.855  1.4400 -0.2117 -0.8898
 9752TIP3   OH250670   6.087   2.201  14.381  0.0927 -0.2022  0.5098
 9752TIP3    H150671   5.999   2.190  14.347 -0.4831  0.6878  1.6390
 9752TIP3    H250672   6.076   2.203  14.476  1.4778 -1.2580  0.7224
 9753TIP3   OH250673   5.316   1.021   2.688 -0.3133  0.1187  0.0289
 9753TIP3    H150674   5.361   1.101   2.659  1.2956 -0.6825  0.2323
 9753TIP3    H250675   5.282   1.044   2.775  3.2217 -0.4011  1.7495
 9754TIP3   OH250676   2.391   5.797   1.467 -0.0923  0.7347 -0.6048
 9754TIP3    H150677   2.474   5.843   1.455 -0.3316  0.8946 -1.8257
 9754TIP3    H250678   2.398   5.721   1.409 -0.9925  1.0370 -1.1310
 9755TIP3   OH250679   5.495   3.021  14.097  0.1876  0.3211  0.2352
 9755TIP3    H150680   5.444   3.088  14.051  1.2343  1.5028  0.7555
 9755TIP3    H250681   5.583   3.058  14.105  0.8588 -1.2238  0.3271
 9756TIP3   OH250682   3.689   0.845  13.986 -0.3668 -0.5246  0.2071
 9756TIP3    H150683   3.657   0.915  14.043  0.2445 -0.3201  0.3179
 9756TIP3    H250684   3.643   0.766  14.014 -0.0802 -0.4217  0.9801
 9757TIP3   OH250685   6.613   5.405  11.264 -0.1721 -0.5004  0.1402
 9757TIP3    H150686   6.644   5.432  11.178  0.9974 -0.2303  0.6200
 9757TIP3    H250687   6.519   5.422  11.263 -0.7199 -3.0927 -2.0365
 9758TIP3   OH250688   3.199   6.160  15.427  0.2642 -0.0122 -0.2756
 9758TIP3    H150689   3.134   6.126  15.366  1.8787 -1.0928 -1.4605
 9758TIP3    H250690   3.274   6.183  15.373  1.2166  0.3716  1.1400
 9759TIP3   OH250691   1.635   2.280   5.609 -0.3910  0.2896  0.0746
 9759TIP3    H150692   1.572   2.288   5.680  0.2647  0.2602  0.6704
 9759TIP3    H250693   1.627   2.361   5.560 -1.4703 -0.0523 -0.3505
 9760TIP3   OH250694   2.541   0.808   1.195 -0.1756  0.1137  0.5697
 9760TIP3    H150695   2.464   0.795   1.251 -0.6584 -0.1392 -0.1349
 9760TIP3    H250696   2.585   0.885   1.232 -0.0782 -0.4810  1.7290
 9761TIP3   OH250697   5.758   4.584  13.537 -0.2228 -0.0248 -0.5871
 9761TIP3    H150698   5.740   4.575  13.443  1.0101 -1.9188 -0.6903
 9761TIP3    H250699   5.720   4.505  13.576 -1.6670  1.2533  0.6964
 9762TIP3   OH250700   4.380   6.575   4.750  0.3451  0.3701  0.4041
 9762TIP3    H150701   4.415   6.571   4.839  1.0435 -0.5307  0.0973
 9762TIP3    H250702   4.457   6.579   4.694 -0.0602 -0.2905 -0.2196
 9763TIP3   OH250703   2.794   4.593  10.525 -0.1825 -0.2173  0.6548
 9763TIP3    H150704   2.737   4.522  10.495 -1.6496  1.0574  0.2454
 9763TIP3    H250705   2.742   4.638  10.592  0.2261  1.1401  0.0904
 9764TIP3   OH250706   4.179   5.188   5.551  0.4356  0.0801 -0.4667
 9764TIP3    H150707   4.203   5.219   5.638  0.1119 -0.3663 -0.2124
 9764TIP3    H250708   4.213   5.099   5.547  0.3858  0.0731 -0.7722
 9765TIP3   OH250709   1.508   6.222  15.744 -0.5422  0.5854  0.3265
 9765TIP3    H150710   1.455   6.285  15.793  1.1395  2.0255  0.4036
 9765TIP3    H250711   1.574   6.193  15.806  0.3765  0.8807 -0.4820
 9766TIP3   OH250712   3.201   0.217  16.639  0.3714 -0.2861 -0.0248
 9766TIP3    H150713   3.129   0.158  16.664 -2.6540  2.5732 -1.2464
 9766TIP3    H250714   3.208   0.206  16.544  3.5314 -2.4052  0.3146
 9767TIP3   OH250715   2.949   0.994   1.674  0.3754 -0.7324  0.2771
 9767TIP3    H150716   2.869   0.988   1.622 -0.6308 -3.1729  1.9262
 9767TIP3    H250717   2.925   1.047   1.749  1.2782  1.1586 -0.7020
 9768TIP3   OH250718   3.378   5.598   5.965 -0.6263 -0.1564 -0.0277
 9768TIP3    H150719   3.441   5.600   6.037  0.7183  0.4978 -1.1760
 9768TIP3    H250720   3.347   5.507   5.964 -0.8636 -0.1218  1.5083
 9769TIP3   OH250721   3.453   0.367   4.130 -0.1401  0.1139 -0.7685
 9769TIP3    H150722   3.472   0.287   4.080 -0.0437 -1.5035  1.6938
 9769TIP3    H250723   3.538   0.409   4.142  0.4712 -1.5185  1.1846
 9770TIP3   OH250724   5.204   0.750   1.923  0.0774  0.2622 -0.3883
 9770TIP3    H150725   5.156   0.672   1.951 -0.4695  0.6187 -0.3084
 9770TIP3    H250726   5.139   0.801   1.874  0.0567  1.2734  0.6604
 9771TIP3   OH250727   1.023   4.998   4.410 -0.0787  0.3677 -0.1127
 9771TIP3    H150728   1.037   4.908   4.439 -1.3472  0.5048  1.0578
 9771TIP3    H250729   0.927   5.007   4.408  0.0296  1.5050 -0.8172
 9772TIP3   OH250730   2.666   0.497   2.356 -0.2874  0.2628  0.4989
 9772TIP3    H150731   2.761   0.508   2.359  0.1206 -2.0430 -1.1929
 9772TIP3    H250732   2.631   0.586   2.363  1.9344  1.1117  1.8525
 9773TIP3   OH250733   6.603   6.268   3.008 -0.2212  0.5988  0.2622
 9773TIP3    H150734   6.631   6.184   2.973 -0.3171  1.1274 -1.1603
 9773TIP3    H250735   6.581   6.320   2.931 -0.4553  1.8298  1.1251
 9774TIP3   OH250736   5.273   0.286   1.933  0.1163 -0.5940  0.3067
 9774TIP3    H150737   5.216   0.244   1.869 -1.1964  0.4521  0.7540
 9774TIP3    H250738   5.343   0.222   1.948 -1.1341 -2.0797  0.0359
 9775TIP3   OH250739   1.765   4.588  16.227 -0.0416  0.4020 -0.1767
 9775TIP3    H150740   1.767   4.529  16.302  2.3250  1.1831  0.4867
 9775TIP3    H250741   1.768   4.530  16.151 -0.7504 -0.3708  0.3719
 9776TIP3   OH250742   4.394   5.515   0.239 -0.3883 -0.4980  0.3618
 9776TIP3    H150743   4.404   5.456   0.313  3.0593 -0.7756 -0.1549
 9776TIP3    H250744   4.304   5.504   0.211 -0.9297 -2.6318  2.6455
 9777TIP3   OH250745   4.493   1.149   0.443  0.2680  0.0470  0.2848
 9777TIP3    H150746   4.456   1.201   0.515  1.6596  1.6711 -0.1196
 9777TIP3    H250747   4.564   1.099   0.484  0.7475  0.6072  0.1483
 9778TIP3   OH250748   4.285   2.875   4.741 -0.3956 -0.0403  0.1997
 9778TIP3    H150749   4.256   2.812   4.806 -0.2417 -0.4002 -0.0793
 9778TIP3    H250750   4.317   2.949   4.793  0.4721 -0.6502  0.5558
 9779TIP3   OH250751   5.727   2.165  12.121  0.2519  0.4199 -0.6936
 9779TIP3    H150752   5.721   2.245  12.174 -2.4527  0.4884 -0.9922
 9779TIP3    H250753   5.655   2.172  12.059  1.8293 -0.8510 -2.7969
 9780TIP3   OH250754   5.029   3.059   5.576  0.0213 -0.3098 -0.0064
 9780TIP3    H150755   4.945   3.087   5.539 -0.2929 -1.8801 -0.5705
 9780TIP3    H250756   5.071   3.140   5.604 -1.6359  0.5213  0.1975
 9781TIP3   OH250757   0.598   5.743  13.148  0.5734 -0.1408 -0.2319
 9781TIP3    H150758   0.612   5.723  13.056  0.6941 -1.2426  0.0103
 9781TIP3    H250759   0.657   5.684  13.195 -0.0652 -0.1614  0.5758
 9782TIP3   OH250760   5.146   0.008   6.012  0.0293  0.2781 -0.2193
 9782TIP3    H150761   5.197  -0.005   5.932 -0.7626  2.6566 -1.2028
 9782TIP3    H250762   5.116  -0.080   6.036  0.3749 -0.5201 -2.4677
 9783TIP3   OH250763   1.832   6.570   2.414  0.5816 -0.1993  0.4096
 9783TIP3    H150764   1.836   6.648   2.471  2.4147 -0.3454  0.5483
 9783TIP3    H250765   1.854   6.603   2.327 -0.8043 -0.2202  0.0328
 9784TIP3   OH250766   0.615   1.876  11.225 -0.3122  0.0953  0.0431
 9784TIP3    H150767   0.595   1.916  11.140 -2.2442 -0.9844 -0.0614
 9784TIP3    H250768   0.711   1.883  11.232  0.0622 -0.7345 -2.7101
 9785TIP3   OH250769   6.473   5.338   2.122 -0.0786  0.0258 -0.5487
 9785TIP3    H150770   6.419   5.262   2.143  1.7142 -0.9951  0.5822
 9785TIP3    H250771   6.420   5.413   2.150 -1.0434 -0.9030  0.2122
 9786TIP3   OH250772   5.427   1.504  12.735  0.5464 -0.5237 -0.0247
 9786TIP3    H150773   5.407   1.590  12.700  1.0425 -0.0541  0.8209
 9786TIP3    H250774   5.458   1.520  12.824  0.9792 -1.5405  0.0280
 9787TIP3   OH250775   3.022   0.399  17.081 -0.3574 -0.3255 -0.4820
 9787TIP3    H150776   3.092   0.334  17.070  0.5189  0.4879  0.2019
 9787TIP3    H250777   2.963   0.359  17.146 -0.4115 -0.9075 -0.8786
 9788TIP3   OH250778   3.226   4.452  14.635  0.5097  0.4574  0.3045
 9788TIP3    H150779   3.231   4.395  14.712 -0.9821 -0.0733  0.0446
 9788TIP3    H250780   3.317   4.472  14.614  0.9462  1.7035  2.9951
 9789TIP3   OH250781   4.421   3.470  14.618 -0.4510  0.0767  0.0488
 9789TIP3    H150782   4.433   3.538  14.685  0.0670  0.7800 -0.7435
 9789TIP3    H250783   4.458   3.507  14.539 -0.9694 -0.7956 -0.6200
 9790TIP3   OH250784   1.499   6.341   1.276  0.3802  0.5238 -0.0772
 9790TIP3    H150785   1.565   6.407   1.254  2.2754 -1.2058  0.1835
 9790TIP3    H250786   1.549   6.263   1.299 -1.7775 -0.8889  0.1232
 9791TIP3   OH250787   5.694   3.020  12.427  0.0553  0.8266  0.4021
 9791TIP3    H150788   5.604   3.036  12.397  0.5723  1.2997 -0.9461
 9791TIP3    H250789   5.735   2.973  12.355  1.8300  3.4578 -0.4310
 9792TIP3   OH250790   4.187   3.892   1.231  0.2067  0.2335 -0.2791
 9792TIP3    H150791   4.142   3.839   1.165  0.1850  0.7813 -0.7144
 9792TIP3    H250792   4.132   3.970   1.241 -0.2075 -0.2013  0.9849
 9793TIP3   OH250793   1.153   1.008   1.991  0.2976  0.0604  0.0300
 9793TIP3    H150794   1.105   1.074   2.041 -0.7325  0.9199 -1.9752
 9793TIP3    H250795   1.240   1.046   1.978 -0.1688  0.8866 -0.7864
 9794TIP3   OH250796   4.083   2.517  13.230 -0.4410 -0.2882  0.0636
 9794TIP3    H150797   3.991   2.534  13.248 -0.1840  0.4573  0.7462
 9794TIP3    H250798   4.127   2.527  13.314  0.2746 -0.5722 -0.2611
 9795TIP3   OH250799   1.304   3.155  11.370 -0.0959  0.9673  0.1779
 9795TIP3    H150800   1.233   3.181  11.428 -1.4987 -0.7004 -0.6813
 9795TIP3    H250801   1.263   3.093  11.309  2.0117  0.2983 -0.6391
 9796TIP3   OH250802   4.203   5.348  12.388  0.2827  0.2178 -0.4464
 9796TIP3    H150803   4.175   5.434  12.357  0.3636 -0.0049 -1.1337
 9796TIP3    H250804   4.256   5.367  12.466 -0.4192  0.7333 -0.0796
 9797TIP3   OH250805   5.214   3.167  14.176  0.8488 -0.1374 -0.1154
 9797TIP3    H150806   5.291   3.220  14.155  0.7795  0.5402  1.2032
 9797TIP3    H250807   5.249   3.080  14.191  1.5404  0.3641  1.4167
 9798TIP3   OH250808   3.199   6.415   0.201  0.0118 -0.1535 -0.3289
 9798TIP3    H150809   3.212   6.330   0.158  1.8292 -0.2403  0.3048
 9798TIP3    H250810   3.111   6.410   0.237 -1.3107 -0.3729 -3.2889
 9799TIP3   OH250811   1.477   2.984   1.233 -0.3232  0.3529  0.4078
 9799TIP3    H150812   1.404   3.039   1.207  1.5018  3.4152  1.2579
 9799TIP3    H250813   1.512   2.949   1.151 -2.2612 -0.6296 -0.0432
 9800TIP3   OH250814   0.826   5.111   1.669  0.3775 -0.0249 -0.2240
 9800TIP3    H150815   0.877   5.192   1.673  0.9705 -0.4316  0.6452
 9800TIP3    H250816   0.847   5.075   1.582 -0.9744  1.4212 -1.2117
 9801TIP3   OH250817   5.110   5.748  11.887  0.3354  0.0988 -0.0143
 9801TIP3    H150818   5.071   5.682  11.944 -1.0769  1.1971  0.3395
 9801TIP3    H250819   5.061   5.828  11.905  1.2718  0.9918 -1.2299
 9802TIP3   OH250820   4.447   4.435   4.774  0.3009  0.3772  0.0634
 9802TIP3    H150821   4.487   4.408   4.856  1.8713 -0.0032 -0.7990
 9802TIP3    H250822   4.484   4.521   4.756  0.7183  0.0413 -0.7230
 9803TIP3   OH250823   5.328   1.819  11.971  0.1262 -0.6176 -0.1035
 9803TIP3    H150824   5.394   1.842  12.036  1.3417 -0.0098 -1.5122
 9803TIP3    H250825   5.378   1.791  11.895 -1.2336  0.1733 -1.3278
 9804TIP3   OH250826   5.166   1.529  13.307  0.3712  0.2481  0.6569
 9804TIP3    H150827   5.125   1.451  13.268  2.1185  0.0056 -0.8349
 9804TIP3    H250828   5.140   1.525  13.400 -0.6783 -1.3661  0.3489
 9805TIP3   OH250829   0.122   6.531  12.388 -0.6022  0.0148  0.0359
 9805TIP3    H150830   0.085   6.443  12.393 -1.3981  0.2653 -0.9777
 9805TIP3    H250831   0.049   6.586  12.361  0.6634  0.3755 -3.0590
 9806TIP3   OH250832   3.996   5.589   6.203  0.0681 -0.3108  0.7348
 9806TIP3    H150833   3.905   5.561   6.195 -0.4460  1.7179 -1.6310
 9806TIP3    H250834   4.034   5.573   6.116  1.1129  1.5291  0.8039
 9807TIP3   OH250835   1.505   3.911  15.352  0.0761 -0.4581  0.1352
 9807TIP3    H150836   1.499   3.848  15.280  0.1377 -0.5224  0.1857
 9807TIP3    H250837   1.561   3.981  15.317 -1.0060  0.1848 -0.3612
 9808TIP3   OH250838   5.802   4.009   4.129 -0.6948 -0.3578  0.2477
 9808TIP3    H150839   5.822   3.943   4.063 -1.3716  0.6461 -0.9982
 9808TIP3    H250840   5.844   4.089   4.097  0.1555 -0.1494  1.7594
 9809TIP3   OH250841   6.201   4.156   2.922  0.4633 -0.4461 -0.1081
 9809TIP3    H150842   6.214   4.178   2.829  0.9254 -2.1389 -0.4849
 9809TIP3    H250843   6.280   4.108   2.946  0.1127 -0.4726  1.0148
 9810TIP3   OH250844   3.498   4.335  16.884 -0.2110  0.3085 -0.3009
 9810TIP3    H150845   3.557   4.322  16.810 -0.5897 -1.0811 -0.3863
 9810TIP3    H250846   3.415   4.299  16.855 -0.8746  1.4435  0.1451
 9811TIP3   OH250847   6.239   3.440  12.115 -0.6805  0.0074 -0.2292
 9811TIP3    H150848   6.165   3.383  12.135 -0.0216 -0.4577  0.9959
 9811TIP3    H250849   6.268   3.473  12.200  0.5012  0.1943 -0.6857
 9812TIP3   OH250850   6.331   6.424  11.037  0.4325  0.0375  0.1579
 9812TIP3    H150851   6.359   6.431  10.946  3.0296  2.1139  0.9779
 9812TIP3    H250852   6.287   6.507  11.056 -1.0365 -0.7889  0.5848
 9813TIP3   OH250853   2.425   5.908   5.866 -0.2717  0.1163  0.6227
 9813TIP3    H150854   2.444   6.002   5.860  0.4077 -0.0335  0.3855
 9813TIP3    H250855   2.473   5.879   5.944  0.7463 -0.3248 -0.1527
 9814TIP3   OH250856   0.929   2.824  16.203 -0.4235  0.2681 -0.1055
 9814TIP3    H150857   0.968   2.768  16.136  0.2150  0.1932  0.3186
 9814TIP3    H250858   0.982   2.904  16.201 -1.6853  1.1150 -1.1089
 9815TIP3   OH250859   1.753   3.356   4.076  1.6502  0.2747  0.3582
 9815TIP3    H150860   1.740   3.410   4.154 -0.0968 -0.1930  0.4292
 9815TIP3    H250861   1.819   3.291   4.102  2.4203  1.2269  0.8458
 9816TIP3   OH250862   3.437   6.121   0.474  0.3143 -0.0838 -0.1136
 9816TIP3    H150863   3.523   6.147   0.439  1.9392 -4.4019  0.0335
 9816TIP3    H250864   3.383   6.109   0.396  0.5060  0.6950 -0.3709
 9817TIP3   OH250865   0.245   3.008   4.404  0.2440 -0.2558 -0.3865
 9817TIP3    H150866   0.168   2.970   4.361  0.8942 -1.0594 -0.8884
 9817TIP3    H250867   0.307   3.024   4.333  1.1619 -1.1738  0.1740
 9818TIP3   OH250868   6.659   6.538   3.618  0.1757  0.6002  0.5111
 9818TIP3    H150869   6.745   6.496   3.613 -0.4944 -0.7296 -0.0865
 9818TIP3    H250870   6.678   6.632   3.607  1.2321  0.0828 -3.2398
 9819TIP3   OH250871   2.631   0.784  11.559 -0.4916  0.0504 -0.2905
 9819TIP3    H150872   2.640   0.878  11.569 -0.5804  0.1837 -1.3256
 9819TIP3    H250873   2.559   0.760  11.617  1.9338 -0.0047  2.9511
 9820TIP3   OH250874   4.786   6.739  11.779 -0.1738  0.3115 -0.6058
 9820TIP3    H150875   4.725   6.809  11.806 -0.9394  0.1698 -1.8908
 9820TIP3    H250876   4.813   6.764  11.691  1.5797  0.3015 -0.1109
 9821TIP3   OH250877   3.969   2.445  14.505 -0.0793  0.2099  0.0824
 9821TIP3    H150878   3.901   2.471  14.443 -0.7525 -0.0950  0.6789
 9821TIP3    H250879   4.040   2.412  14.450 -0.5198  0.2781 -0.5441
 9822TIP3   OH250880   5.390   4.241   1.074 -0.3954  0.1824 -0.2968
 9822TIP3    H150881   5.473   4.197   1.053 -1.1894 -2.2405  1.2626
 9822TIP3    H250882   5.401   4.272   1.164 -1.5751 -1.3381  0.4161
 9823TIP3   OH250883   4.650   5.167  12.955  0.7905  0.0351  0.1394
 9823TIP3    H150884   4.671   5.087  13.003  0.3717 -0.2007 -0.0592
 9823TIP3    H250885   4.618   5.135  12.870  2.7636  0.4664 -0.8282
 9824TIP3   OH250886   4.870   2.567  15.405  0.4270  0.2841 -0.2119
 9824TIP3    H150887   4.933   2.495  15.409 -0.4003 -0.4771 -0.7233
 9824TIP3    H250888   4.850   2.585  15.497 -0.5293 -1.1937 -0.0991
 9825TIP3   OH250889   5.887   3.995  16.879  0.4002  0.6058  0.2354
 9825TIP3    H150890   5.823   3.934  16.841  1.0300 -1.2868  2.0390
 9825TIP3    H250891   5.860   4.081  16.846 -2.2973 -0.2658 -0.0933
 9826TIP3   OH250892   3.044   4.184   1.788  0.0303  0.4478  0.2193
 9826TIP3    H150893   2.981   4.234   1.839 -2.7550 -0.8844 -1.6424
 9826TIP3    H250894   3.101   4.250   1.748 -0.1851  1.7125  1.9063
 9827TIP3   OH250895   3.671   6.279   0.445  0.0928 -0.2397 -0.4700
 9827TIP3    H150896   3.684   6.310   0.355 -0.3777  0.2303 -0.3827
 9827TIP3    H250897   3.718   6.343   0.499  0.7734 -0.7802 -0.3981
 9828TIP3   OH250898   2.277   6.174  15.477  0.0637 -0.4108 -0.0743
 9828TIP3    H150899   2.371   6.162  15.491  0.1325 -0.8205 -0.8499
 9828TIP3    H250900   2.270   6.214  15.391 -0.4556  0.1208  0.1997
 9829TIP3   OH250901   6.130   3.282   5.645  0.1443  0.9558 -0.7596
 9829TIP3    H150902   6.140   3.187   5.638 -0.1884  1.0131 -5.3536
 9829TIP3    H250903   6.212   3.312   5.685  0.4521 -1.1687  0.3605
 9830TIP3   OH250904   5.240   1.479  14.473  0.0280 -0.2123 -0.1717
 9830TIP3    H150905   5.146   1.497  14.481 -0.8685 -3.6363 -1.3631
 9830TIP3    H250906   5.271   1.473  14.563 -0.8612  0.9299  0.2391
 9831TIP3   OH250907   6.382   4.804  14.190 -0.2198  0.2911 -0.2433
 9831TIP3    H150908   6.301   4.754  14.197  0.5971 -1.0498  0.0201
 9831TIP3    H250909   6.376   4.871  14.258 -0.1772 -1.1931  1.2876
 9832TIP3   OH250910   1.526   5.845  16.891 -0.1518 -0.6258 -0.0850
 9832TIP3    H150911   1.499   5.870  16.803 -2.1989  0.0527  0.6750
 9832TIP3    H250912   1.501   5.753  16.898 -0.5350 -0.5205 -0.0300
 9833TIP3   OH250913   0.832   2.900   0.170  1.1532  0.3779  0.0716
 9833TIP3    H150914   0.751   2.869   0.211  1.0594  1.6584  0.8894
 9833TIP3    H250915   0.895   2.829   0.187  0.2628 -0.5678 -0.4503
 9834TIP3   OH250916   0.118   2.810   1.106  0.2047 -1.0259 -0.0474
 9834TIP3    H150917   0.037   2.779   1.065 -1.3882  1.3122  1.0849
 9834TIP3    H250918   0.111   2.781   1.197 -0.0739  0.3117  0.3861
 9835TIP3   OH250919   6.403   2.555  13.920 -0.3174 -0.6102  0.2891
 9835TIP3    H150920   6.336   2.598  13.973  0.6048 -0.0323  1.0387
 9835TIP3    H250921   6.380   2.462  13.921 -1.5173 -0.3255 -0.1088
 9836TIP3   OH250922   5.783   2.746   4.558 -0.0780  0.5970 -0.0748
 9836TIP3    H150923   5.873   2.758   4.527  0.3369  0.6801  1.1154
 9836TIP3    H250924   5.744   2.834   4.552 -0.5197  0.3187 -1.8368
 9837TIP3   OH250925   3.003   4.429  10.625 -0.1078 -0.6243  0.1429
 9837TIP3    H150926   3.016   4.462  10.714  0.4253  0.5493 -0.3394
 9837TIP3    H250927   2.915   4.458  10.601  0.5367  0.9518 -0.4526
 9838TIP3   OH250928   4.946   5.466   1.079  0.4427 -0.2682  0.1471
 9838TIP3    H150929   5.022   5.504   1.034 -0.0173  0.0032 -0.3999
 9838TIP3    H250930   4.985   5.404   1.141  1.1011 -0.4615 -0.4379
 9839TIP3   OH250931   4.258   4.224   4.396  0.0119  0.5628 -0.2242
 9839TIP3    H150932   4.343   4.261   4.419  0.2938  0.1756 -0.6177
 9839TIP3    H250933   4.223   4.285   4.330  0.8705 -0.3105 -1.5367
 9840TIP3   OH250934   5.998   4.433  17.022 -0.0207 -0.0456 -0.2986
 9840TIP3    H150935   5.951   4.510  16.989 -0.6511  0.3161  1.3462
 9840TIP3    H250936   6.030   4.460  17.107 -1.5440 -2.0533  0.9937
 9841TIP3   OH250937   3.459   1.139  14.198 -0.6963 -0.1814 -0.1581
 9841TIP3    H150938   3.548   1.103  14.195 -0.6636 -0.0581 -1.6656
 9841TIP3    H250939   3.470   1.233  14.188 -0.8754  0.1466  2.2895
 9842TIP3   OH250940   4.209   6.334  13.329 -0.0404 -0.5679 -0.1825
 9842TIP3    H150941   4.283   6.321  13.388 -0.2977 -1.1756  0.0125
 9842TIP3    H250942   4.136   6.358  13.386 -1.4098 -5.0952  0.3850
 9843TIP3   OH250943   3.874   4.214  11.518 -0.0955 -0.5064 -0.6640
 9843TIP3    H150944   3.931   4.286  11.491  0.0181 -0.4550 -0.2944
 9843TIP3    H250945   3.786   4.243  11.495  0.0840 -0.9602 -2.0828
 9844TIP3   OH250946   3.467   5.009  12.861 -0.2160  0.3071 -0.0307
 9844TIP3    H150947   3.518   4.932  12.836 -2.3624 -1.0274 -0.5621
 9844TIP3    H250948   3.506   5.038  12.944  1.5870 -0.4229 -0.5869
 9845TIP3   OH250949   3.958   5.239   0.551 -0.2401 -0.4776 -0.4384
 9845TIP3    H150950   3.900   5.165   0.530  0.9673 -0.5756 -4.0467
 9845TIP3    H250951   3.923   5.312   0.500  1.2214  0.1861 -0.5253
 9846TIP3   OH250952   3.381   6.043  16.538 -0.2007  0.5286  0.8033
 9846TIP3    H150953   3.374   6.057  16.632  0.7417  2.0029  0.6814
 9846TIP3    H250954   3.296   6.070  16.503 -0.3888  0.4173  1.1731
 9847TIP3   OH250955   3.017   2.840   3.702 -0.3303 -0.4179 -0.3549
 9847TIP3    H150956   3.082   2.775   3.674 -2.0069 -2.2455 -0.2228
 9847TIP3    H250957   3.040   2.859   3.793  0.9941  0.2410 -0.8115
 9848TIP3   OH250958   1.644   3.987  14.295  0.4143  0.3316  0.6597
 9848TIP3    H150959   1.605   4.058  14.346  1.5797  0.1686  1.8369
 9848TIP3    H250960   1.615   3.907  14.339  0.1435  0.1155  0.1008
 9849TIP3   OH250961   5.149   0.054  13.170  0.4311 -0.2103 -0.6141
 9849TIP3    H150962   5.191  -0.024  13.133  0.4475  0.4316 -1.9868
 9849TIP3    H250963   5.162   0.045  13.265  1.0696 -1.5037 -0.8003
 9850TIP3   OH250964   4.854   2.058  11.799 -0.2598  0.4523 -0.2099
 9850TIP3    H150965   4.831   2.120  11.729 -1.4205 -1.6275 -1.7975
 9850TIP3    H250966   4.776   2.056  11.855 -0.8781 -0.6413 -1.0500
 9851TIP3   OH250967   1.634   3.404   0.752  0.0836 -0.3052  0.3516
 9851TIP3    H150968   1.707   3.453   0.715 -1.0400  0.4711 -0.8737
 9851TIP3    H250969   1.641   3.419   0.847  1.6725 -0.5032  0.2960
 9852TIP3   OH250970   6.368   5.165  13.639 -0.2506  0.9598  0.2617
 9852TIP3    H150971   6.362   5.121  13.724 -0.2231 -0.7925 -0.5922
 9852TIP3    H250972   6.278   5.167  13.606 -0.0035 -0.3404 -0.5733
 9853TIP3   OH250973   4.725   2.108  14.910  0.6200  0.7947 -0.1052
 9853TIP3    H150974   4.696   2.050  14.981  1.6926 -0.3275 -0.5418
 9853TIP3    H250975   4.669   2.184  14.917 -3.0043 -1.5060 -1.3600
 9854TIP3   OH250976   2.450   3.272   2.893  0.2683 -0.4187 -0.2631
 9854TIP3    H150977   2.461   3.202   2.957 -2.0672 -1.2977 -0.7079
 9854TIP3    H250978   2.458   3.228   2.808 -3.7397 -0.8663 -0.6137
 9855TIP3   OH250979   5.987   2.905  11.021  0.2875 -0.3154 -0.2862
 9855TIP3    H150980   6.033   2.976  11.066 -0.5859 -0.1439  0.3673
 9855TIP3    H250981   5.895   2.918  11.043  0.0700 -1.4341 -0.4644
 9856TIP3   OH250982   2.068   3.506   4.344  0.1760  0.4860  0.2591
 9856TIP3    H150983   2.030   3.593   4.341  0.4180  0.6311  1.0604
 9856TIP3    H250984   2.103   3.492   4.256 -1.0389  0.6468 -0.2718
 9857TIP3   OH250985   6.364   2.605  15.813 -0.1778 -0.4826 -0.6586
 9857TIP3    H150986   6.383   2.663  15.887  0.2987 -0.2902 -0.9241
 9857TIP3    H250987   6.354   2.518  15.853 -0.6347 -0.2653 -0.2913
 9858TIP3   OH250988   6.759   0.546   2.273  0.3130 -0.1332  0.4741
 9858TIP3    H150989   6.748   0.578   2.184  0.4643 -1.4826 -0.0548
 9858TIP3    H250990   6.671   0.553   2.312 -0.1685 -1.1563 -0.3651
 9859TIP3   OH250991   1.050   6.035  16.575  0.0181  0.1366 -0.4341
 9859TIP3    H150992   1.126   6.073  16.618 -0.4730 -0.4806  1.0304
 9859TIP3    H250993   1.038   5.950  16.617 -0.8654 -0.2302 -1.3729
 9860TIP3   OH250994   0.826   2.158   5.578  0.0589  0.1355 -0.1543
 9860TIP3    H150995   0.861   2.183   5.493  0.4725  1.8675  0.4685
 9860TIP3    H250996   0.881   2.204   5.641  0.4887 -2.0057  1.1357
 9861TIP3   OH250997   4.079   2.558  12.945 -0.3850 -0.1006  0.6409
 9861TIP3    H150998   4.086   2.549  13.040  1.7306  0.1560  0.5668
 9861TIP3    H250999   4.159   2.603  12.919 -0.7899 -0.3814 -1.3085
 9862TIP3   OH251000   3.672   0.640  11.711 -0.3211  0.3970  0.1862
 9862TIP3    H151001   3.683   0.560  11.762  0.0312  0.4030  0.1280
 9862TIP3    H251002   3.752   0.690  11.728 -0.7520  0.9477  0.5904
 9863TIP3   OH251003   3.060   2.323  13.882 -0.1068  0.7456  0.2940
 9863TIP3    H151004   3.095   2.410  13.863 -0.1746  0.7259  0.0784
 9863TIP3    H251005   2.972   2.323  13.847  0.0951  0.3983 -0.2328
 9864TIP3   OH251006   6.736   6.243  12.975  0.0301  0.2963  0.2408
 9864TIP3    H151007   6.733   6.281  13.063 -0.4006 -0.1147  0.4069
 9864TIP3    H251008   6.646   6.246  12.945 -0.5885 -3.1605  1.3720
 9865TIP3   OH251009   0.451   0.999  14.652 -0.6017 -0.5743  0.5120
 9865TIP3    H151010   0.497   1.082  14.663 -1.5557 -0.3084  3.2739
 9865TIP3    H251011   0.369   1.023  14.608  0.0036 -0.3941 -0.5409
 9866TIP3   OH251012   6.501   1.891  12.477 -0.1854  0.1315  0.0458
 9866TIP3    H151013   6.527   1.833  12.405  0.5675  1.1573 -0.5428
 9866TIP3    H251014   6.428   1.941  12.443  0.1089  0.5511  0.0216
 9867TIP3   OH251015   2.675   0.824  14.112 -0.4426  0.0278  0.4954
 9867TIP3    H151016   2.676   0.744  14.059  2.7625 -0.3842  0.9791
 9867TIP3    H251017   2.582   0.844  14.124 -1.3391 -1.4569 -2.8200
 9868TIP3   OH251018   0.696   3.387   5.212  0.5126 -0.0326  0.1610
 9868TIP3    H151019   0.628   3.402   5.146  0.1507  1.9904  0.8973
 9868TIP3    H251020   0.775   3.425   5.174  1.3027 -2.3856 -0.6940
 9869TIP3   OH251021   6.130   1.680  11.432 -0.0700  0.1847  0.1015
 9869TIP3    H151022   6.139   1.589  11.461 -0.6665 -0.0107 -0.3148
 9869TIP3    H251023   6.219   1.715  11.436  0.1663 -0.4140  0.2606
 9870TIP3   OH251024   0.570   3.857  11.832  0.2241  0.1773 -0.3289
 9870TIP3    H151025   0.657   3.897  11.838  0.3754 -0.2057  0.1677
 9870TIP3    H251026   0.582   3.785  11.770  0.0312  0.6797 -0.9686
 9871TIP3   OH251027   3.426   4.676  12.807 -0.8178 -0.1263  0.5534
 9871TIP3    H151028   3.412   4.623  12.886 -0.0385 -0.4722  0.4719
 9871TIP3    H251029   3.514   4.712  12.817 -0.0336 -1.5131 -0.8980
 9872TIP3   OH251030   4.615   4.907   2.228 -0.0351  0.4632  0.2642
 9872TIP3    H151031   4.645   4.991   2.264  0.2382  1.0222 -1.1817
 9872TIP3    H251032   4.548   4.932   2.164 -0.8177 -0.5161  0.6893
 9873TIP3   OH251033   0.482   3.204  11.380 -0.3573  0.2283  0.8041
 9873TIP3    H151034   0.399   3.205  11.333 -0.4976 -0.8504  1.0016
 9873TIP3    H251035   0.532   3.276  11.342 -0.8978  0.0851 -0.2022
 9874TIP3   OH251036   3.973   4.085   3.614 -0.0781  0.1575  0.2036
 9874TIP3    H151037   4.004   4.012   3.559  1.7406  1.3865 -0.4921
 9874TIP3    H251038   3.898   4.120   3.565 -1.0289 -1.2422  0.5829
 9875TIP3   OH251039   6.003   3.075   0.083 -0.1828  0.2132  0.3401
 9875TIP3    H151040   5.980   3.083  -0.010  1.5629  0.8741 -0.0640
 9875TIP3    H251041   6.072   3.008   0.085  0.5273  0.9544  1.0195
 9876TIP3   OH251042   1.241   4.505   2.995  0.1048  0.3915  0.2961
 9876TIP3    H151043   1.298   4.446   2.946  0.5027  0.4730  0.6533
 9876TIP3    H251044   1.214   4.455   3.072 -0.2319  0.3864  0.1770
 9877TIP3   OH251045   6.100   3.391  10.659  0.3793  0.5563 -0.2826
 9877TIP3    H151046   6.127   3.362  10.572  0.5109 -0.0373 -0.0503
 9877TIP3    H251047   6.179   3.430  10.697  0.6013 -0.0771 -0.0658
 9878TIP3   OH251048   4.069   2.005  13.029 -0.3769 -0.5301  0.3665
 9878TIP3    H151049   4.057   1.925  13.081  0.6768 -0.4798  0.7235
 9878TIP3    H251050   4.055   2.076  13.092 -1.0289 -0.4299  0.1164
 9879TIP3   OH251051   0.855   4.700  13.295 -0.6123  0.3926 -0.1561
 9879TIP3    H151052   0.772   4.742  13.274 -0.5512  0.4161 -0.3557
 9879TIP3    H251053   0.902   4.765  13.347 -0.9515  0.1563  0.4458
 9880TIP3   OH251054   0.725   2.274   0.458 -0.4840 -0.1439  0.1110
 9880TIP3    H151055   0.699   2.277   0.550  1.1865 -0.1252  0.6344
 9880TIP3    H251056   0.661   2.328   0.413  0.0269  1.8692  1.6388
 9881TIP3   OH251057   2.817   6.715  13.977 -0.5647  0.0754  0.3050
 9881TIP3    H151058   2.750   6.707  14.045 -0.2672  1.0661  0.7312
 9881TIP3    H251059   2.820   6.809  13.957  0.1004 -0.0684 -0.3050
 9882TIP3   OH251060   2.614   0.278  11.238 -0.4638  0.0446  0.6123
 9882TIP3    H151061   2.604   0.310  11.148 -1.0343  0.6165  0.8728
 9882TIP3    H251062   2.575   0.347  11.292  0.4871  0.0248  1.3483
 9883TIP3   OH251063   4.044   1.060   1.745  0.1465 -0.3643  0.2080
 9883TIP3    H151064   4.087   1.076   1.830  1.6843 -1.3172 -0.3489
 9883TIP3    H251065   4.056   0.966   1.729  0.8340 -0.0162 -1.5443
 9884TIP3   OH251066   6.294   0.763  11.574 -0.1460  0.0707 -0.2451
 9884TIP3    H151067   6.345   0.821  11.631  0.5312 -1.5753  0.9026
 9884TIP3    H251068   6.338   0.769  11.489  0.1677  0.9191 -0.0309
 9885TIP3   OH251069   5.189   2.287   6.424  0.0377  0.1976 -0.0262
 9885TIP3    H151070   5.192   2.266   6.517  1.6117 -0.9537 -0.3040
 9885TIP3    H251071   5.101   2.322   6.410 -0.5324 -0.4671  1.7011
 9886TIP3   OH251072   3.116   5.978  12.288  0.0157 -0.7237  0.1076
 9886TIP3    H151073   3.086   6.057  12.243 -0.2665 -0.5938  0.5170
 9886TIP3    H251074   3.199   5.956  12.246 -0.7990 -1.2880 -1.3081
 9887TIP3   OH251075   2.219   4.931  10.426  0.1015  0.4497 -0.1258
 9887TIP3    H151076   2.245   5.022  10.439  0.9554  0.2012 -0.0260
 9887TIP3    H251077   2.271   4.881  10.490  2.1401 -0.4548 -2.3218
 9888TIP3   OH251078   5.765   5.508  15.320  0.4595 -0.2134 -0.6084
 9888TIP3    H151079   5.789   5.596  15.350  2.3277 -0.1982 -1.9572
 9888TIP3    H251080   5.731   5.464  15.398 -0.6884  1.7358  0.0584
 9889TIP3   OH251081   1.596   2.699   5.075  0.5972  0.1544  0.3892
 9889TIP3    H151082   1.622   2.745   4.995  0.0023  1.3193  0.8287
 9889TIP3    H251083   1.528   2.638   5.047 -1.9628  2.7688  0.3747
 9890TIP3   OH251084   4.767   4.517   6.289  0.7018  0.1540 -0.2905
 9890TIP3    H151085   4.802   4.559   6.210 -0.3925 -0.1253 -0.9437
 9890TIP3    H251086   4.742   4.590   6.346  2.1316  0.3621  0.1276
 9891TIP3   OH251087   2.543   3.803  12.243  0.3409  0.6273  0.0505
 9891TIP3    H151088   2.483   3.729  12.237  0.3784  0.2036  3.1551
 9891TIP3    H251089   2.493   3.872  12.287  1.6801  0.7235  1.5160
 9892TIP3   OH251090   3.637   2.628  12.240 -0.4991 -0.2219  0.3472
 9892TIP3    H151091   3.567   2.612  12.177  0.2346 -1.6334 -0.1584
 9892TIP3    H251092   3.684   2.704  12.205 -1.4201  0.3756  0.3930
 9893TIP3   OH251093   0.312   0.653  15.827 -0.1159 -0.1154  0.4647
 9893TIP3    H151094   0.403   0.642  15.853 -0.0443 -0.9791 -0.1104
 9893TIP3    H251095   0.300   0.747  15.822  0.0984  0.1051  2.7495
 9894TIP3   OH251096   5.182   6.538   1.675  0.4523 -0.3740 -0.3088
 9894TIP3    H151097   5.119   6.509   1.610  1.0077 -1.5418 -0.3428
 9894TIP3    H251098   5.228   6.459   1.702  0.0388  0.0140  1.7275
 9895TIP3   OH251099   5.948   5.191  14.006 -0.5706  0.8007  0.2310
 9895TIP3    H151100   5.872   5.135  13.995 -0.1663 -0.1749  2.0301
 9895TIP3    H251101   5.937   5.230  14.093  0.3894  1.5848  0.0195
 9896TIP3   OH251102   1.492   6.490   5.399  0.1438 -0.0729 -0.6497
 9896TIP3    H151103   1.519   6.412   5.448  0.6531 -0.0086 -0.8230
 9896TIP3    H251104   1.560   6.502   5.333  0.2273  0.7020 -0.4318
 9897TIP3   OH251105   3.218   5.950  17.050 -0.3154 -0.4495  0.2138
 9897TIP3    H151106   3.286   5.972  16.986 -0.0918  0.8649  0.8758
 9897TIP3    H251107   3.136   5.975  17.008 -0.1172  1.0830  0.6793
 9898TIP3   OH251108   3.692   0.312   2.482  0.0554 -0.0138 -0.2852
 9898TIP3    H151109   3.634   0.237   2.491  0.4648 -0.3580 -0.4719
 9898TIP3    H251110   3.770   0.289   2.534 -0.0119  0.4859  0.0496
 9899TIP3   OH251111   1.998   4.785  12.707 -0.5892 -0.1174  0.9183
 9899TIP3    H151112   2.078   4.766  12.757 -0.0110  0.4823  0.2508
 9899TIP3    H251113   1.989   4.880  12.713 -0.7555 -0.0869  0.2502
 9900TIP3   OH251114   4.674   4.629  11.171  0.3352  0.1254 -0.2489
 9900TIP3    H151115   4.613   4.624  11.245 -0.9596  0.8435 -1.2302
 9900TIP3    H251116   4.669   4.721  11.143  1.0275 -0.0778 -1.0608
 9901TIP3   OH251117   1.570   3.122   2.748  0.3135  0.2980 -0.8085
 9901TIP3    H151118   1.515   3.120   2.670 -0.1142 -0.3160 -0.4990
 9901TIP3    H251119   1.626   3.198   2.736  0.5750 -0.0573 -1.9331
 9902TIP3   OH251120   4.721   1.394   5.185 -0.3896 -0.1538 -0.5105
 9902TIP3    H151121   4.760   1.322   5.235  1.7954  2.4145  1.8472
 9902TIP3    H251122   4.627   1.389   5.204 -0.5392 -3.0631 -1.5323
 9903TIP3   OH251123   0.405   5.343  16.248  0.2275 -0.1536  0.1481
 9903TIP3    H151124   0.467   5.408  16.218  0.3150 -0.5025 -0.4377
 9903TIP3    H251125   0.401   5.279  16.177  1.2824 -1.5942  1.3276
 9904TIP3   OH251126   6.669   5.155  13.662  0.0783 -0.3448  0.0343
 9904TIP3    H151127   6.595   5.143  13.720 -0.6341 -0.6503 -0.9129
 9904TIP3    H251128   6.679   5.071  13.617  0.7000 -0.1582 -0.1952
 9905TIP3   OH251129   5.567   3.483   4.599  0.3883  0.5239 -0.5232
 9905TIP3    H151130   5.577   3.471   4.693  1.5909 -0.0821 -0.7002
 9905TIP3    H251131   5.653   3.515   4.570 -0.1202  1.1851 -1.3467
 9906TIP3   OH251132   4.983   3.334   3.006 -0.6106  0.1793  0.0013
 9906TIP3    H151133   5.078   3.327   3.002 -0.6521  0.3282 -1.7684
 9906TIP3    H251134   4.963   3.339   3.100  1.0158 -1.1924  0.4579
 9907TIP3   OH251135   2.738   6.229  12.710  0.4360  0.0049  0.9604
 9907TIP3    H151136   2.651   6.192  12.698 -0.5398  2.1036  1.2933
 9907TIP3    H251137   2.773   6.238  12.621 -0.7612  1.5811  0.6201
 9908TIP3   OH251138   2.150   1.191  16.986 -0.3151 -0.0768 -0.5847
 9908TIP3    H151139   2.229   1.238  17.015 -0.0134  0.0206 -1.5133
 9908TIP3    H251140   2.125   1.235  16.905 -1.1212 -0.3459 -0.4943
 9909TIP3   OH251141   5.036   3.633  12.718  0.2008 -0.1067  0.2421
 9909TIP3    H151142   5.014   3.727  12.721  1.6215  0.3270 -1.2418
 9909TIP3    H251143   5.033   3.605  12.810 -1.2572  1.1192  0.6197
 9910TIP3   OH251144   4.341   4.685  14.065  0.1783  0.1381  0.7039
 9910TIP3    H151145   4.337   4.698  14.160  0.7641  0.7036  0.6580
 9910TIP3    H251146   4.354   4.773  14.030  1.7045 -0.2552  0.2178
 9911TIP3   OH251147   3.464   1.980   1.042 -0.2974 -0.3455 -0.7077
 9911TIP3    H151148   3.557   1.960   1.053 -0.5290 -0.2547  2.5586
 9911TIP3    H251149   3.420   1.898   1.063 -0.9631  0.5896  1.9907
 9912TIP3   OH251150   4.711   1.975  13.146  0.4208  0.2383 -0.5461
 9912TIP3    H151151   4.768   1.927  13.206  0.3823  0.2914 -0.4657
 9912TIP3    H251152   4.735   1.944  13.059 -1.3992 -1.8864 -0.3792
 9913TIP3   OH251153   1.360   1.142  14.818  0.2496 -0.0408  0.0543
 9913TIP3    H151154   1.428   1.188  14.769  2.6232 -1.1421  2.0985
 9913TIP3    H251155   1.279   1.189  14.798  1.8433  2.2690 -1.3130
 9914TIP3   OH251156   3.984   3.601  14.666  0.4442 -0.5327 -0.3633
 9914TIP3    H151157   3.971   3.526  14.608  0.1298  1.2740 -2.7985
 9914TIP3    H251158   3.896   3.628  14.691  0.5271 -0.6046  0.0126
 9915TIP3   OH251159   0.786   4.177   2.585 -0.2423  0.1811  0.1409
 9915TIP3    H151160   0.799   4.123   2.507  1.2573  1.5582 -0.6233
 9915TIP3    H251161   0.692   4.171   2.603 -0.3745 -1.3835 -0.8332
 9916TIP3   OH251162   2.006   3.330   6.408  0.6478 -0.6432  0.3964
 9916TIP3    H151163   2.058   3.410   6.406  0.7910 -0.6692  1.9549
 9916TIP3    H251164   2.019   3.295   6.495 -0.3106 -1.7800  0.1088
 9917TIP3   OH251165   2.280   1.164   4.839 -0.1517 -0.3678  0.3314
 9917TIP3    H151166   2.286   1.099   4.909  0.0905 -0.2552  0.4138
 9917TIP3    H251167   2.243   1.115   4.765  2.8810 -1.4481 -0.6277
 9918TIP3   OH251168   2.649   0.228   1.143  0.4030 -0.2691 -0.4475
 9918TIP3    H151169   2.719   0.200   1.084 -0.2766 -1.0961 -0.8887
 9918TIP3    H251170   2.694   0.259   1.221  1.3283  0.9292 -1.4277
 9919TIP3   OH251171   3.326   3.750   1.699  0.0142  0.0314  0.3182
 9919TIP3    H151172   3.258   3.707   1.648  0.2874  0.4599 -0.4183
 9919TIP3    H251173   3.283   3.827   1.736 -0.4345 -0.7521  1.5181
 9920TIP3   OH251174   6.329   1.271   0.778 -0.0963 -0.0116 -0.5431
 9920TIP3    H151175   6.324   1.266   0.683 -1.0565  0.1661 -0.5164
 9920TIP3    H251176   6.255   1.326   0.803  0.4430  0.3644  0.2763
 9921TIP3   OH251177   0.354   4.624   1.804 -0.2373 -0.3820  0.1811
 9921TIP3    H151178   0.443   4.654   1.790  0.0286 -1.0497  0.3939
 9921TIP3    H251179   0.354   4.533   1.775 -0.2379 -1.1204  2.3434
 9922TIP3   OH251180   0.914   5.453  14.444 -0.0100  0.4714 -0.6213
 9922TIP3    H151181   0.861   5.375  14.431 -0.7711  1.0488 -1.0419
 9922TIP3    H251182   0.975   5.429  14.514 -1.3150  0.0312  0.3974
 9923TIP3   OH251183   2.310   0.602   5.853  0.4813  0.0309  0.3632
 9923TIP3    H151184   2.371   0.528   5.851  1.6911  0.8059  3.0888
 9923TIP3    H251185   2.227   0.566   5.820  1.1861 -2.3591  0.9655
 9924TIP3   OH251186   0.587   6.778  14.842  0.1745 -0.5887  0.1303
 9924TIP3    H151187   0.598   6.733  14.759  1.8230 -0.1944  0.1054
 9924TIP3    H251188   0.499   6.753  14.871 -0.8871  0.1451 -2.2320
 9925TIP3   OH251189   3.437   4.414   1.090  0.1317  0.0153  0.0570
 9925TIP3    H151190   3.416   4.443   1.179 -0.2707 -0.0278 -0.0235
 9925TIP3    H251191   3.477   4.328   1.102 -2.0750 -1.0875  0.0653
 9926TIP3   OH251192   6.783   1.297  15.567 -0.2368 -0.4863 -0.6097
 9926TIP3    H151193   6.804   1.270  15.478 -0.5644  1.4276 -1.3242
 9926TIP3    H251194   6.696   1.260  15.583 -0.6170 -0.0081 -1.4907
 9927TIP3   OH251195   6.730   0.822  14.057 -0.1263  0.1945 -0.1424
 9927TIP3    H151196   6.713   0.890  13.993  0.9087  0.4978 -0.1199
 9927TIP3    H251197   6.651   0.818  14.110 -0.8705  0.1549 -1.2306
 9928TIP3   OH251198   5.395   5.171  11.802 -0.1002 -0.2353  0.1634
 9928TIP3    H151199   5.488   5.150  11.814 -0.0351 -0.5898 -0.8442
 9928TIP3    H251200   5.379   5.243  11.863  0.7928 -0.2826  0.4731
 9929TIP3   OH251201   0.830   5.440   1.760  0.1939  0.1656  0.1945
 9929TIP3    H151202   0.745   5.405   1.786 -0.7060  1.2792 -1.0854
 9929TIP3    H251203   0.841   5.519   1.814 -0.3381  0.8762 -0.6946
 9930TIP3   OH251204   4.966   6.034  16.135 -0.2961 -0.7044 -0.1820
 9930TIP3    H151205   5.025   6.108  16.147 -0.1801 -1.0320  1.5153
 9930TIP3    H251206   5.018   5.969  16.088  0.5747 -0.8203  0.9005
 9931TIP3   OH251207   5.380   4.034   6.351  0.0164 -0.3359 -0.6899
 9931TIP3    H151208   5.373   4.109   6.291 -0.5993 -0.4797 -0.7980
 9931TIP3    H251209   5.296   4.030   6.395  0.3546 -0.4401 -0.0494
 9932TIP3   OH251210   4.307   6.043   0.185  0.7609 -0.2726  0.0103
 9932TIP3    H151211   4.289   6.121   0.238  0.5903  0.0132 -0.4601
 9932TIP3    H251212   4.223   5.998   0.180  0.5104  0.2774 -0.9316
 9933TIP3   OH251213   2.176   2.092  11.025  0.0609  0.1387 -0.1886
 9933TIP3    H151214   2.135   2.044  10.952 -0.2030 -0.1554  0.1483
 9933TIP3    H251215   2.145   2.182  11.015  0.2566  0.1602 -0.6078
 9934TIP3   OH251216   5.059   4.931  15.531  0.0686  0.6447 -0.2444
 9934TIP3    H151217   5.044   4.869  15.602  1.1948  1.6114  0.8961
 9934TIP3    H251218   5.065   4.877  15.452 -1.8091 -0.3985  0.2798
 9935TIP3   OH251219   0.098   3.378   3.935  0.6783  0.2408  0.1626
 9935TIP3    H151220   0.020   3.384   3.990 -0.5718 -0.5529 -1.4328
 9935TIP3    H251221   0.158   3.322   3.985  0.1940  0.7753  1.3664
 9936TIP3   OH251222   1.188   0.146  14.724 -0.2920  0.0742  0.2205
 9936TIP3    H151223   1.206   0.068  14.671  1.1929  0.6533 -0.1956
 9936TIP3    H251224   1.126   0.117  14.790 -0.3480 -1.2739 -0.3947
 9937TIP3   OH251225   0.297   5.028   1.101  0.5758 -0.5547 -0.2416
 9937TIP3    H151226   0.283   5.040   1.007  0.0097 -1.7001 -0.3266
 9937TIP3    H251227   0.212   5.000   1.135  1.0293 -1.2042  0.4108
 9938TIP3   OH251228   3.102   1.788  14.776 -0.6951 -0.2107  0.5208
 9938TIP3    H151229   3.125   1.722  14.711 -1.6438  0.5920 -0.6585
 9938TIP3    H251230   3.179   1.844  14.781 -0.7709 -0.0359 -0.2176
 9939TIP3   OH251231   3.993   5.528  14.588 -0.0998 -0.3193  0.1764
 9939TIP3    H151232   3.936   5.454  14.608  0.0779 -0.1988  1.1427
 9939TIP3    H251233   4.037   5.548  14.670 -0.3962  1.0789  0.0154
 9940TIP3   OH251234   4.197   5.783   3.843 -0.6916  0.0828 -0.0009
 9940TIP3    H151235   4.192   5.712   3.778 -0.5564  0.2276 -0.1714
 9940TIP3    H251236   4.147   5.855   3.803 -0.6632  0.1501  0.0855
 9941TIP3   OH251237   2.929   1.110  13.143  0.2120  0.3965 -0.1243
 9941TIP3    H151238   3.017   1.115  13.106 -0.2367  2.2675 -1.0527
 9941TIP3    H251239   2.942   1.072  13.230  2.1048  1.6769  0.2230
 9942TIP3   OH251240   6.685   2.410  11.600 -0.1831  0.1662 -0.0199
 9942TIP3    H151241   6.671   2.318  11.580 -0.6317 -0.1087  1.4344
 9942TIP3    H251242   6.673   2.455  11.516  0.7100 -1.1441 -0.8888
 9943TIP3   OH251243   4.266   5.306  12.832 -0.2097 -0.0670  0.0219
 9943TIP3    H151244   4.324   5.231  12.845 -0.7326 -0.3378  0.8828
 9943TIP3    H251245   4.192   5.289  12.891 -0.0414  1.4386  0.7010
 9944TIP3   OH251246   2.327   2.405  14.302 -0.0670  0.3336 -0.0751
 9944TIP3    H151247   2.253   2.405  14.362 -1.0625  0.8212 -1.2733
 9944TIP3    H251248   2.352   2.497  14.294 -2.1648  0.7785 -2.9978
 9945TIP3   OH251249   6.209   4.641   2.177  0.3963  0.4453  0.8511
 9945TIP3    H151250   6.274   4.657   2.109 -1.1861 -0.3905 -0.9210
 9945TIP3    H251251   6.176   4.554   2.159 -2.5204  1.5193  0.5405
 9946TIP3   OH251252   6.527   4.539  12.094  0.0382 -0.0975  0.1657
 9946TIP3    H151253   6.463   4.477  12.129  1.8807 -1.0441  2.1020
 9946TIP3    H251254   6.504   4.622  12.136 -0.3844 -0.2486  0.2478
 9947TIP3   OH251255   3.594   3.161  14.993  0.0928  0.0811  0.1435
 9947TIP3    H151256   3.538   3.106  15.048 -0.6032 -0.6528 -1.2465
 9947TIP3    H251257   3.676   3.112  14.986 -0.1733 -0.3055 -0.2843
 9948TIP3   OH251258   4.082   0.879   0.707 -0.0442 -0.3051 -0.0704
 9948TIP3    H151259   4.110   0.958   0.661  1.6114 -0.3258  0.8201
 9948TIP3    H251260   4.146   0.812   0.681 -0.2807 -0.8343  0.6739
 9949TIP3   OH251261   5.283   3.424   4.583 -0.4099 -0.0254  0.0186
 9949TIP3    H151262   5.375   3.436   4.559  0.0619 -1.9578  0.6525
 9949TIP3    H251263   5.285   3.397   4.675 -1.6395  0.2316  0.1418
 9950TIP3   OH251264   5.722   1.618  16.647  0.2476  0.2710  0.0760
 9950TIP3    H151265   5.631   1.631  16.622  0.0215 -0.4728  0.4737
 9950TIP3    H251266   5.736   1.524  16.637  1.6234  0.6378 -2.1526
 9951TIP3   OH251267   0.908   5.702   6.150 -0.1036 -0.3563  0.0823
 9951TIP3    H151268   0.899   5.796   6.138  0.6890 -0.2505  0.2461
 9951TIP3    H251269   0.818   5.669   6.152 -0.3731  0.1529 -1.8162
 9952TIP3   OH251270   5.514   4.427   0.771 -0.1638 -0.3575  0.1411
 9952TIP3    H151271   5.422   4.425   0.743  0.7844 -1.0572 -3.5241
 9952TIP3    H251272   5.526   4.514   0.808 -2.0931  0.1129 -0.2312
 9953TIP3   OH251273   5.980   2.057   6.461 -0.3626 -0.1225 -0.1198
 9953TIP3    H151274   5.926   2.000   6.406  0.3188 -1.5083  0.6078
 9953TIP3    H251275   6.039   2.099   6.399  0.5410 -1.8276 -0.4835
 9954TIP3   OH251276   6.502   4.779  13.028 -0.5431 -0.0352  0.2568
 9954TIP3    H151277   6.460   4.789  12.943  0.1724  0.9805  0.0062
 9954TIP3    H251278   6.545   4.694  13.025  1.0445  0.7591 -1.1209
 9955TIP3   OH251279   1.092   3.196   3.250 -0.6507  0.2058 -0.1215
 9955TIP3    H151280   1.133   3.170   3.333  0.0750  0.2797 -0.4482
 9955TIP3    H251281   1.007   3.152   3.251 -1.2699  1.3399  1.2991
 9956TIP3   OH251282   4.156   6.526   4.290  0.4303 -0.0478  0.2376
 9956TIP3    H151283   4.104   6.458   4.247  0.3499  0.5561 -0.6562
 9956TIP3    H251284   4.196   6.482   4.366 -0.4611 -0.8076  0.2805
 9957TIP3   OH251285   5.713   4.209   3.399 -0.2985  0.0862  0.0560
 9957TIP3    H151286   5.645   4.273   3.424  0.6541  1.6229 -1.1117
 9957TIP3    H251287   5.773   4.209   3.474  0.9581  2.4196 -0.8677
 9958TIP3   OH251288   4.074   5.249  14.799  0.8146 -0.1054 -0.2467
 9958TIP3    H151289   4.009   5.236  14.867 -0.6008  1.4491 -1.2102
 9958TIP3    H251290   4.127   5.322  14.830  1.6020 -0.8443  0.1714
 9959TIP3   OH251291   2.715   5.729  12.116 -0.0769  0.2497 -0.1352
 9959TIP3    H151292   2.628   5.762  12.139 -0.7040 -1.9752  0.9177
 9959TIP3    H251293   2.700   5.670  12.042  1.0339  2.1959 -2.0420
 9960TIP3   OH251294   5.972   0.536   2.194  0.2369 -0.1385  0.1625
 9960TIP3    H151295   6.000   0.578   2.275  0.6149 -0.8097  0.3907
 9960TIP3    H251296   5.942   0.449   2.221 -1.9697  0.4908 -0.0870
 9961TIP3   OH251297   5.607   2.426   5.986 -0.3264  0.0988 -0.4180
 9961TIP3    H151298   5.602   2.362   5.914 -0.3736 -0.7397  0.3197
 9961TIP3    H251299   5.597   2.374   6.065 -1.3550  1.1568  0.1688
 9962TIP3   OH251300   3.775   6.656   5.901 -0.0264 -0.4851  0.0045
 9962TIP3    H151301   3.805   6.580   5.950 -0.5680  0.9533  2.7614
 9962TIP3    H251302   3.722   6.706   5.963  0.9522  2.5660 -1.3956
 9963TIP3   OH251303   5.269   6.403   3.662  0.0038  0.1787 -0.4494
 9963TIP3    H151304   5.176   6.411   3.680  0.2839  1.0767  0.7276
 9963TIP3    H251305   5.294   6.320   3.702 -0.4201 -0.4274 -1.4150
 9964TIP3   OH251306   6.692   4.748  14.181 -0.7241 -0.2773  0.6115
 9964TIP3    H151307   6.616   4.797  14.213 -1.2290 -0.4579 -0.2835
 9964TIP3    H251308   6.654   4.677  14.129  0.0665  0.2854 -0.7812
 9965TIP3   OH251309   1.695   6.516   1.557 -0.2722 -0.2394 -0.3274
 9965TIP3    H151310   1.712   6.610   1.571  0.7361 -0.3601 -0.6213
 9965TIP3    H251311   1.776   6.484   1.518 -1.7286 -0.5790 -3.3307
 9966TIP3   OH251312   1.714   2.376   6.001 -0.2378  0.0691 -0.3125
 9966TIP3    H151313   1.748   2.424   6.076 -1.5443  0.7222 -0.1022
 9966TIP3    H251314   1.689   2.443   5.938  2.3677 -0.4975 -2.1159
 9967TIP3   OH251315   6.462   6.572   2.502  0.2019 -0.2505 -0.9710
 9967TIP3    H151316   6.429   6.569   2.412 -0.4511 -0.4528 -0.7294
 9967TIP3    H251317   6.522   6.646   2.503 -0.4746  0.3131 -1.3485
 9968TIP3   OH251318   0.979   1.257  12.992  0.2319  0.3311 -0.6291
 9968TIP3    H151319   1.039   1.202  13.043 -2.4214 -2.3647 -0.1288
 9968TIP3    H251320   0.924   1.300  13.057 -0.4632  0.2043 -1.1206
 9969TIP3   OH251321   2.933   1.582   5.652 -0.0363 -0.2405  0.2426
 9969TIP3    H151322   2.903   1.535   5.574 -0.0530  0.7461 -0.3554
 9969TIP3    H251323   3.023   1.552   5.666 -0.4243 -1.3070  0.5542
 9970TIP3   OH251324   5.793   3.221   2.021 -0.5873  0.5451  0.4462
 9970TIP3    H151325   5.801   3.315   2.032 -2.7493  1.0462 -1.5345
 9970TIP3    H251326   5.851   3.201   1.946  0.8623  0.0263  1.6527
 9971TIP3   OH251327   6.731   2.070   1.380 -0.7341 -0.2188 -0.3561
 9971TIP3    H151328   6.756   2.034   1.465  0.9167  0.9314 -0.3187
 9971TIP3    H251329   6.665   2.008   1.346 -1.8433 -0.4145  1.9594
 9972TIP3   OH251330   3.272   4.185  15.140 -0.4028 -0.2591  0.0959
 9972TIP3    H151331   3.341   4.131  15.102  0.5865  0.8543  0.2453
 9972TIP3    H251332   3.298   4.197  15.232 -1.9651 -1.6389  0.7725
 9973TIP3   OH251333   5.776   3.350  11.519  0.6842  0.3263 -0.2897
 9973TIP3    H151334   5.820   3.276  11.478  1.1657 -0.0436  0.8588
 9973TIP3    H251335   5.696   3.313  11.557 -0.1779  0.8196 -1.5567
 9974TIP3   OH251336   4.122   3.264   4.898  0.4731 -0.9040 -0.4452
 9974TIP3    H151337   4.084   3.329   4.840 -2.7954 -2.7699 -0.6630
 9974TIP3    H251338   4.191   3.222   4.846 -1.5374 -1.7055 -2.6632
 9975TIP3   OH251339   4.015   6.686   3.538  0.3042  0.3769 -0.3170
 9975TIP3    H151340   4.030   6.593   3.555  2.6467  0.9201  1.0973
 9975TIP3    H251341   3.963   6.715   3.613  1.6583  0.6556  0.5449
 9976TIP3   OH251342   1.416   5.710   5.675  0.0821 -0.1129 -0.9675
 9976TIP3    H151343   1.483   5.735   5.611  1.8299  1.3733  1.2697
 9976TIP3    H251344   1.358   5.785   5.680 -0.7525 -0.7002 -1.6309
 9977TIP3   OH251345   1.846   5.107   1.172 -0.1441  0.7283 -0.0629
 9977TIP3    H151346   1.825   5.187   1.221 -1.0922  0.7587 -0.5090
 9977TIP3    H251347   1.937   5.120   1.145 -0.5762  2.1164 -0.9838
 9978TIP3   OH251348   0.122   2.116   4.296 -0.5218  0.1285  0.4886
 9978TIP3    H151349   0.027   2.109   4.299 -0.5667  0.1097 -0.5392
 9978TIP3    H251350   0.152   2.026   4.280 -0.4522  0.3917 -1.0410
 9979TIP3   OH251351   6.720   5.220   5.716  0.2022  0.3040 -0.3255
 9979TIP3    H151352   6.792   5.274   5.682 -0.9543  1.2250 -1.3949
 9979TIP3    H251353   6.677   5.275   5.781 -0.5602  0.4261 -0.9205
 9980TIP3   OH251354   3.965   2.485  15.284  0.2748  0.4928  0.0153
 9980TIP3    H151355   4.053   2.510  15.312  0.3255  1.0488 -0.6174
 9980TIP3    H251356   3.953   2.396  15.318  0.1033  1.3099  2.3042
 9981TIP3   OH251357   4.934   2.747   2.689  0.6682  0.0470 -0.3477
 9981TIP3    H151358   4.962   2.838   2.703  1.6501 -0.3132  0.1376
 9981TIP3    H251359   5.016   2.698   2.683  0.1942 -1.1641  1.8253
 9982TIP3   OH251360   6.410   5.909   0.336 -0.3164 -0.1436 -0.1871
 9982TIP3    H151361   6.336   5.910   0.276  1.5949  0.3363 -2.7394
 9982TIP3    H251362   6.431   6.001   0.350  0.7481 -0.2696 -0.8313
 9983TIP3   OH251363   0.041   6.362  13.219 -0.2598 -0.4359 -0.2341
 9983TIP3    H151364   0.102   6.289  13.226 -0.0394 -0.1729  0.6296
 9983TIP3    H251365  -0.018   6.352  13.293  0.5430  0.9564  0.6384
 9984TIP3   OH251366   6.670   0.246   1.053 -0.2870  0.2354 -0.4851
 9984TIP3    H151367   6.691   0.291   0.971 -0.7465 -0.6978 -1.1380
 9984TIP3    H251368   6.711   0.160   1.044 -0.3173  0.1367  0.2793
 9985TIP3   OH251369   3.736   0.075   4.612 -0.1308 -1.0987  0.2393
 9985TIP3    H151370   3.746  -0.018   4.632 -0.7309 -1.3177 -0.4250
 9985TIP3    H251371   3.800   0.091   4.542  1.2675 -0.5665  1.5824
 9986TIP3   OH251372   1.727   4.520   3.496 -0.4962  0.0430 -0.1499
 9986TIP3    H151373   1.815   4.488   3.514 -0.4585 -0.5084 -1.2671
 9986TIP3    H251374   1.708   4.580   3.568  1.3048  1.1806 -0.5656
 9987TIP3   OH251375   1.612   1.379   3.468  0.6129 -0.1427 -0.0348
 9987TIP3    H151376   1.589   1.316   3.399  2.0623  0.7672 -1.4356
 9987TIP3    H251377   1.602   1.465   3.426  0.6078  0.4822  1.1976
 9988TIP3   OH251378   1.767   5.551   0.795 -0.0071 -0.3698  0.1946
 9988TIP3    H151379   1.859   5.576   0.800  0.3926 -1.7783  0.2569
 9988TIP3    H251380   1.752   5.501   0.875 -0.5652 -0.9845 -0.2876
 9989TIP3   OH251381   5.019   0.867  15.537 -0.3416  0.7155 -0.1788
 9989TIP3    H151382   4.955   0.817  15.588  0.1480 -0.2170 -0.4492
 9989TIP3    H251383   4.977   0.951  15.521 -1.3748  0.2346 -0.0806
 9990TIP3   OH251384   0.428   2.646   3.787 -0.6567  0.0530  0.2095
 9990TIP3    H151385   0.418   2.612   3.698 -1.2836 -1.1547  0.7173
 9990TIP3    H251386   0.495   2.714   3.779  2.7943 -3.1013 -0.4324
 9991TIP3   OH251387   0.789   5.352   3.478 -0.2684 -0.4733 -0.1091
 9991TIP3    H151388   0.800   5.425   3.417 -0.6793 -0.8011 -0.5841
 9991TIP3    H251389   0.878   5.326   3.501 -0.0314  2.0598  2.3864
 9992TIP3   OH251390   0.050   5.366   4.363  0.1671  0.0606  0.3021
 9992TIP3    H151391   0.017   5.453   4.384  1.0562 -0.0448  2.3251
 9992TIP3    H251392   0.121   5.351   4.426  1.9049 -1.0218 -1.7718
 9993TIP3   OH251393   0.616   4.706  12.913 -0.5923  0.3724 -0.8423
 9993TIP3    H151394   0.711   4.699  12.920 -0.7371  0.3280  2.2231
 9993TIP3    H251395   0.601   4.787  12.863  1.0505  0.8584 -0.5793
 9994TIP3   OH251396   0.649   0.778   5.197 -0.1604  0.0070  0.3485
 9994TIP3    H151397   0.728   0.803   5.245  0.2276 -1.3039  0.4528
 9994TIP3    H251398   0.603   0.719   5.256 -0.0582 -1.0397 -0.5709
 9995TIP3   OH251399   3.940   2.937   1.696  0.1629 -0.0577 -0.0544
 9995TIP3    H151400   3.998   2.967   1.767  0.2887 -0.2955 -0.0558
 9995TIP3    H251401   3.955   2.843   1.692 -1.5048 -0.4075  1.0909
 9996TIP3   OH251402   1.019   2.804   2.721  0.0930  0.4332  0.3596
 9996TIP3    H151403   0.990   2.811   2.630 -1.3170 -1.0803  0.6453
 9996TIP3    H251404   0.939   2.790   2.770  0.8860  0.7761  1.7990
 9997TIP3   OH251405   0.349   1.219  15.469  0.5320  0.2851 -0.5357
 9997TIP3    H151406   0.386   1.216  15.381  1.6126 -1.8210 -0.0756
 9997TIP3    H251407   0.425   1.234  15.526  0.4733 -2.1049  0.2789
 9998TIP3   OH251408   5.782   1.237  14.729  0.2010 -0.7764  0.1321
 9998TIP3    H151409   5.802   1.330  14.736 -1.9321 -0.2305 -0.4129
 9998TIP3    H251410   5.688   1.231  14.745 -0.3183 -2.4146 -2.8202
 9999TIP3   OH251411   4.085   5.703   0.924  0.3191 -0.3134  0.0098
 9999TIP3    H151412   4.100   5.677   0.833 -0.9439 -1.2367  0.0375
 9999TIP3    H251413   4.147   5.774   0.939  0.4331 -0.0238 -1.6261
10000TIP3   OH251414   5.048   5.899   4.098 -0.0318 -0.7836  0.7224
10000TIP3    H151415   5.020   5.809   4.111 -0.0620 -1.1414 -1.4077
10000TIP3    H251416   5.140   5.900   4.125 -0.7386 -0.7393  3.3202
10001TIP3   OH251417   5.785   1.357   1.536 -0.0799 -0.1868  0.3976
10001TIP3    H151418   5.786   1.263   1.558 -0.3888 -0.2856  0.0035
10001TIP3    H251419   5.870   1.389   1.567  0.9517 -1.0545 -1.3606
10002TIP3   OH251420   6.238   6.003  16.067  0.0317  0.0402 -0.1359
10002TIP3    H151421   6.156   6.048  16.087 -0.1109 -0.4655  0.4397
10002TIP3    H251422   6.234   5.988  15.972 -1.7302 -2.2231  0.2101
10003TIP3   OH251423   4.215   6.135  11.823 -0.0769 -0.1630 -0.0464
10003TIP3    H151424   4.141   6.085  11.857 -0.3974  0.1597 -0.2675
10003TIP3    H251425   4.192   6.226  11.839 -0.2770  0.0045 -1.1814
10004TIP3   OH251426   3.220   0.577   4.982 -0.1796  1.0961 -0.0721
10004TIP3    H151427   3.308   0.608   5.002  0.5150 -0.4101 -0.6000
10004TIP3    H251428   3.212   0.494   5.030 -1.4810  1.4185  0.3089
10005TIP3   OH251429   1.328   4.710  15.516 -0.1529 -0.0890  0.5923
10005TIP3    H151430   1.253   4.650  15.524 -1.3163  1.3991  1.3381
10005TIP3    H251431   1.297   4.778  15.455  1.8788 -1.2544 -1.9249
10006TIP3   OH251432   3.142   5.953   3.186 -0.1005  0.4570  0.5244
10006TIP3    H151433   3.180   5.922   3.104 -0.7018 -0.4196  0.5647
10006TIP3    H251434   3.133   5.875   3.240 -0.6092  0.8729  1.0649
10007TIP3   OH251435   5.263   3.116   1.746  0.4143  0.0197  0.3234
10007TIP3    H151436   5.327   3.154   1.807 -1.0981  0.4903  1.6779
10007TIP3    H251437   5.243   3.188   1.685 -0.8222  0.7678  1.5637
10008TIP3   OH251438   4.449   3.867   4.209  0.1290 -0.0520  0.1825
10008TIP3    H151439   4.384   3.934   4.188 -0.3627 -0.7756 -0.6859
10008TIP3    H251440   4.463   3.876   4.303  0.4773  1.6088  0.0153
10009TIP3   OH251441   5.088   3.948   2.036  0.0199 -0.2998  0.1068
10009TIP3    H151442   5.115   3.898   1.959 -1.4598  0.5432 -1.0123
10009TIP3    H251443   5.099   4.040   2.010  1.7536  0.0290  1.7764
10010TIP3   OH251444   1.682   2.483   4.774 -0.0365 -0.3330  0.0912
10010TIP3    H151445   1.652   2.403   4.817  0.4334 -0.9448 -0.6871
10010TIP3    H251446   1.618   2.550   4.800  0.1980 -0.6890  1.6535
10011TIP3   OH251447   0.937   0.059  13.380 -0.6475  0.3847 -0.2268
10011TIP3    H151448   1.017   0.110  13.381 -0.6048  0.4720 -2.3669
10011TIP3    H251449   0.900   0.068  13.468  0.9538  1.4866  0.3630
10012TIP3   OH251450   4.816   1.646   5.190 -0.7183  0.2100 -0.1301
10012TIP3    H151451   4.812   1.675   5.281  0.6169  0.4191 -0.1085
10012TIP3    H251452   4.792   1.553   5.193  0.9461 -0.2417  0.7128
10013TIP3   OH251453   0.789   5.516  12.489  0.2075 -0.0195 -0.3802
10013TIP3    H151454   0.807   5.490  12.399 -1.6202 -1.7344 -0.3256
10013TIP3    H251455   0.701   5.553  12.486  0.2200  0.1166  0.6576
10014TIP3   OH251456   4.082   6.097   1.265  0.0864 -0.8515  0.2871
10014TIP3    H151457   4.033   6.179   1.256 -1.2200 -1.5409  0.9200
10014TIP3    H251458   4.104   6.072   1.175 -0.0525 -0.1327  0.0483
10015TIP3   OH251459   4.726   5.398  16.799  0.4176 -0.2272 -0.2125
10015TIP3    H151460   4.792   5.352  16.851  2.4814  2.4044 -0.3214
10015TIP3    H251461   4.656   5.418  16.862  1.0418 -0.5731  0.6088
10016TIP3   OH251462   4.538   4.822   0.090 -0.4082  0.0718 -0.5625
10016TIP3    H151463   4.523   4.901   0.142  0.6514 -0.4074  0.5285
10016TIP3    H251464   4.451   4.784   0.080 -0.6249 -0.0600  1.2973
10017TIP3   OH251465   0.741   3.079   0.995 -0.6506 -0.4413 -0.1372
10017TIP3    H151466   0.749   3.172   0.973 -3.7468 -0.5485 -2.3369
10017TIP3    H251467   0.786   3.033   0.924 -3.0226 -0.5994 -1.6571
10018TIP3   OH251468   0.072   3.074   4.160 -0.4767 -0.5517  0.2610
10018TIP3    H151469  -0.015   3.113   4.159 -0.2470 -0.0171  0.7401
10018TIP3    H251470   0.056   2.979   4.157 -1.1294 -0.5076  1.7442
10019TIP3   OH251471   2.980   3.543   4.112 -0.0030 -0.6404  0.0058
10019TIP3    H151472   3.053   3.532   4.050 -0.3152 -1.1055 -0.2901
10019TIP3    H251473   2.996   3.627   4.154  0.8182 -0.8319  0.0916
10020TIP3   OH251474   4.982   5.113   1.551 -0.7399  0.3416 -0.1705
10020TIP3    H151475   4.975   5.178   1.622 -1.1154  1.4124 -1.1508
10020TIP3    H251476   5.037   5.044   1.587  0.4942  1.6598  0.5944
10021TIP3   OH251477   4.264   4.072   4.122 -1.2309  0.3398  0.1943
10021TIP3    H151478   4.172   4.096   4.113 -1.2036  0.4362  0.1715
10021TIP3    H251479   4.307   4.153   4.149 -1.4506 -0.1240  2.0963
10022TIP3   OH251480   2.506   6.062  15.632 -0.5816 -0.6046  0.0960
10022TIP3    H151481   2.554   5.996  15.682  1.1691  0.6138  0.1299
10022TIP3    H251482   2.525   6.144  15.676 -2.7215 -0.0263  0.0595
10023TIP3   OH251483   1.467   0.465  11.531  0.1617  0.3513 -0.0898
10023TIP3    H151484   1.413   0.474  11.609 -2.1873 -4.0086 -0.8704
10023TIP3    H251485   1.519   0.386  11.547  0.9802  0.3843 -2.2317
10024TIP3   OH251486   3.440   1.712  15.887 -0.3112 -0.6501 -0.2361
10024TIP3    H151487   3.532   1.686  15.882 -0.0647  0.3606 -1.9355
10024TIP3    H251488   3.397   1.660  15.819 -1.3637 -2.2859  1.5718
10025TIP3   OH251489   1.962   5.752   1.961  0.6376  0.9647 -0.0562
10025TIP3    H151490   2.026   5.704   1.909 -0.1409  1.0337 -1.1178
10025TIP3    H251491   1.990   5.740   2.051  1.0143 -0.6837 -0.3630
10026TIP3   OH251492   6.241   0.614  13.592  0.1831 -0.3820 -0.1551
10026TIP3    H151493   6.275   0.581  13.675 -0.1325 -0.3875 -0.0297
10026TIP3    H251494   6.152   0.582  13.587 -0.4160  1.0995  0.3537
10027TIP3   OH251495   5.624   1.108  11.495 -0.4875 -0.1783  0.2324
10027TIP3    H151496   5.642   1.020  11.527  1.1640 -0.4639 -1.3138
10027TIP3    H251497   5.692   1.125  11.430 -2.4562  1.1058 -1.6540
10028TIP3   OH251498   3.203   2.298  10.997  0.0350 -0.6843  0.0232
10028TIP3    H151499   3.110   2.310  11.017  0.6446  0.7549  2.2751
10028TIP3    H251500   3.212   2.204  10.983 -1.8289 -0.7977 -0.8215
10029TIP3   OH251501   3.149   4.251  17.176  0.1915 -0.0529  0.6040
10029TIP3    H151502   3.089   4.204  17.235 -2.0330  0.1006 -1.3995
10029TIP3    H251503   3.115   4.340  17.173 -0.7474 -0.4124 -2.0282
10030TIP3   OH251504   1.196   4.932  17.191 -0.0321 -0.3942 -0.1429
10030TIP3    H151505   1.139   4.877  17.244  0.1140 -0.0618  0.3688
10030TIP3    H251506   1.138   4.976  17.130 -0.1474 -1.1358 -0.5863
10031TIP3   OH251507   1.666   3.798   5.501  0.1732 -0.0197  0.6060
10031TIP3    H151508   1.600   3.852   5.546 -0.8243  0.6594 -1.5637
10031TIP3    H251509   1.615   3.730   5.457  0.8409  0.6361 -1.2680
10032TIP3   OH251510   5.327   1.004   1.734 -0.3005 -0.5059  0.7302
10032TIP3    H151511   5.287   0.932   1.685 -1.2014 -1.8684  3.2937
10032TIP3    H251512   5.421   0.989   1.726 -0.4181 -0.7557 -0.4200
10033TIP3   OH251513   3.699   2.226   5.813  0.1607 -0.3024 -0.0764
10033TIP3    H151514   3.740   2.311   5.801 -0.6606  0.1915  0.4286
10033TIP3    H251515   3.626   2.225   5.751 -0.2975 -0.3064  0.4466
10034TIP3   OH251516   4.325   0.611   3.511 -0.0781  0.4847  0.3391
10034TIP3    H151517   4.281   0.527   3.507  0.5147  0.1901 -2.5590
10034TIP3    H251518   4.257   0.675   3.489 -0.2257  0.6170  1.1730
10035TIP3   OH251519   1.812   2.111  14.759  0.0422  0.2140 -0.5659
10035TIP3    H151520   1.719   2.111  14.780 -0.1350 -0.0702 -1.3155
10035TIP3    H251521   1.821   2.049  14.687  0.5373  1.4313 -1.6039
10036TIP3   OH251522   1.389   2.522  11.261  0.2387 -0.1110  0.3756
10036TIP3    H151523   1.315   2.565  11.219 -0.7315 -1.6236  0.4500
10036TIP3    H251524   1.351   2.447  11.307  2.1183 -3.2097 -2.6196
10037TIP3   OH251525   2.342   2.786   4.690  0.1124 -0.1742  0.2314
10037TIP3    H151526   2.258   2.746   4.668 -0.0289  0.2534 -0.0096
10037TIP3    H251527   2.392   2.715   4.730 -0.1184 -0.6106 -0.2396
10038TIP3   OH251528   4.788   0.866  13.358  0.3635 -0.4405  0.5030
10038TIP3    H151529   4.769   0.776  13.333 -0.6563  0.3870 -2.0119
10038TIP3    H251530   4.877   0.882  13.326  0.4542 -0.4805  0.7344
10039TIP3   OH251531   1.996   5.061   4.319 -0.4078  0.3767  0.3262
10039TIP3    H151532   1.919   5.048   4.262  0.1867  0.3192 -0.4808
10039TIP3    H251533   2.025   4.973   4.340 -0.7519  0.3973  0.8992
10040TIP3   OH251534   5.038   5.593  11.264  0.3335 -0.2820 -0.0127
10040TIP3    H151535   5.092   5.542  11.325 -0.9277 -2.1475 -0.3566
10040TIP3    H251536   4.954   5.603  11.309 -0.5263 -1.4464 -1.2741
10041TIP3   OH251537   3.946   0.361  14.816 -0.5769  0.0829  0.2066
10041TIP3    H151538   3.979   0.322  14.736 -1.2276 -0.6650  0.2947
10041TIP3    H251539   3.867   0.312  14.837  0.0171 -0.2939  1.7537
10042TIP3   OH251540   4.961   1.836  12.089  0.4414 -0.2193  0.3390
10042TIP3    H151541   4.893   1.838  12.023  0.5240  2.8623  0.2017
10042TIP3    H251542   4.914   1.834  12.172 -0.0078  2.8595  0.2774
10043TIP3   OH251543   5.661   0.538  11.484  0.5894  1.0572 -0.2345
10043TIP3    H151544   5.729   0.482  11.446  2.0914  2.5961  0.0321
10043TIP3    H251545   5.655   0.613  11.425 -0.7588  1.0451 -0.1393
10044TIP3   OH251546   5.831   1.296  13.500 -0.0345 -0.3229 -0.0654
10044TIP3    H151547   5.754   1.337  13.540 -0.2880  0.2509 -1.0919
10044TIP3    H251548   5.902   1.313  13.562 -0.0889  1.8758 -0.4938
10045TIP3   OH251549   1.632   0.371  14.889  0.5698  0.0453  0.1839
10045TIP3    H151550   1.537   0.384  14.898 -0.1183 -2.6158 -1.9617
10045TIP3    H251551   1.662   0.446  14.837 -0.8414 -0.2733 -1.1708
10046TIP3   OH251552   0.103   2.127   0.193  0.0539 -0.2241  0.4985
10046TIP3    H151553   0.157   2.071   0.248  1.2376  0.8828  0.5146
10046TIP3    H251554   0.140   2.118   0.105  1.2677  1.6644  0.7633
10047TIP3   OH251555   3.054   5.966  13.545  0.3031 -0.0693  0.1317
10047TIP3    H151556   3.015   5.992  13.629  0.4921 -0.3910  0.3200
10047TIP3    H251557   3.047   6.044  13.490 -0.4518 -0.0672  0.2193
10048TIP3   OH251558   0.777   2.349  14.043  1.0423 -0.0113 -0.3032
10048TIP3    H151559   0.730   2.355  13.960 -0.9937  0.5223  0.8440
10048TIP3    H251560   0.743   2.270  14.085  0.9146  0.5480  0.6886
10049TIP3   OH251561   3.585   0.607   4.434  0.0979 -0.4225 -0.8084
10049TIP3    H151562   3.579   0.630   4.342 -1.3253  0.1134 -0.6038
10049TIP3    H251563   3.678   0.590   4.449  0.6604  1.5226 -1.8489
10050TIP3   OH251564   6.221   3.832  13.965 -0.0229 -0.6715  0.3763
10050TIP3    H151565   6.170   3.887  13.906  0.3446 -0.8134 -0.0870
10050TIP3    H251566   6.312   3.855  13.946  0.1008 -0.7623  0.8500
10051TIP3   OH251567   0.518   0.577   1.286 -0.0038  0.6970  0.4159
10051TIP3    H151568   0.588   0.526   1.326 -0.0707  0.5631  0.3655
10051TIP3    H251569   0.540   0.668   1.305 -0.9293  0.5982  2.2762
10052TIP3   OH251570   4.887   6.764  11.510 -0.4391 -0.3271  0.6017
10052TIP3    H151571   4.856   6.687  11.462  1.1424 -0.7495  0.1754
10052TIP3    H251572   4.974   6.738  11.541  1.0956  2.0039 -1.4146
10053TIP3   OH251573   4.917   0.083   3.156 -0.1476 -0.2335 -0.2733
10053TIP3    H151574   4.912   0.063   3.063  1.2997 -1.8637 -0.0515
10053TIP3    H251575   4.862   0.016   3.198 -2.2798  1.5558  0.0064
10054TIP3   OH251576   0.231   6.275  13.564 -0.3472 -0.0362  0.0234
10054TIP3    H151577   0.232   6.288  13.469  0.8732 -1.8204 -0.2645
10054TIP3    H251578   0.143   6.242  13.583 -0.6301  0.4262 -0.4590
10055TIP3   OH251579   3.900   2.759   4.891  0.4638 -0.0704  0.7416
10055TIP3    H151580   3.866   2.831   4.837 -0.3610  1.0739  2.6730
10055TIP3    H251581   3.917   2.688   4.829 -0.6002  1.1084 -0.9834
10056TIP3   OH251582   6.344   4.884  11.092  0.4163  0.2310 -0.2746
10056TIP3    H151583   6.434   4.915  11.081  0.8313 -0.5878  0.6506
10056TIP3    H251584   6.299   4.955  11.137  1.0380  0.0240  0.7105
10057TIP3   OH251585   2.581   1.060   3.715 -0.1968 -0.1083 -0.4540
10057TIP3    H151586   2.487   1.075   3.721 -0.2082 -0.6079  0.9903
10057TIP3    H251587   2.590   0.992   3.648 -0.9842 -0.9450  0.2594
10058TIP3   OH251588   1.697   1.242  13.467  0.1321  0.4349 -0.5708
10058TIP3    H151589   1.708   1.293  13.547  0.4704 -2.6240  1.4792
10058TIP3    H251590   1.786   1.217  13.442 -0.1160 -0.3921 -0.6548
10059TIP3   OH251591   4.427   3.125   4.279 -0.2519  0.2102 -0.8242
10059TIP3    H151592   4.433   3.099   4.371  0.9981  0.5613 -0.7833
10059TIP3    H251593   4.398   3.046   4.233 -3.4834  0.6864  0.1354
10060TIP3   OH251594   5.219   5.757   2.151 -0.4270  0.7368  0.1323
10060TIP3    H151595   5.304   5.729   2.184 -0.0611  0.7240 -0.8027
10060TIP3    H251596   5.188   5.821   2.216 -0.3128 -0.2189  1.1629
10061TIP3   OH251597   3.324   2.660   4.460 -0.1358  0.2391 -0.2953
10061TIP3    H151598   3.386   2.650   4.388  0.0211 -0.7549 -0.0451
10061TIP3    H251599   3.264   2.586   4.450 -0.8199  0.7572 -0.0880
10062TIP3   OH251600   4.100   0.911  11.472 -0.4114 -0.0192 -0.2971
10062TIP3    H151601   4.029   0.974  11.480 -0.3574  0.2874 -1.8384
10062TIP3    H251602   4.110   0.899  11.378  0.0843 -1.7683 -0.0494
10063TIP3   OH251603   2.253   4.939  12.084  0.4310  0.0335  0.4034
10063TIP3    H151604   2.241   4.844  12.083 -0.7874  0.1690  0.9605
10063TIP3    H251605   2.165   4.975  12.097 -0.0157  1.3991 -4.2974
10064TIP3   OH251606   0.040   3.516  11.091  0.0112 -0.5188  0.0078
10064TIP3    H151607   0.003   3.431  11.067 -0.3719 -0.6639  1.0489
10064TIP3    H251608   0.042   3.566  11.010  0.2466 -1.5253 -0.6225
10065TIP3   OH251609   0.742   4.114  14.241 -0.0035  0.2391 -0.1248
10065TIP3    H151610   0.752   4.054  14.315  0.5721 -0.9689 -1.1389
10065TIP3    H251611   0.690   4.187  14.275 -0.3509 -0.6297  1.2621
10066TIP3   OH251612   5.257   6.283  16.567 -0.6178  0.4165  0.0459
10066TIP3    H151613   5.317   6.210  16.551 -1.6791 -0.3567 -0.5019
10066TIP3    H251614   5.207   6.291  16.486  0.0958  2.3770 -0.2575
10067TIP3   OH251615   3.113   2.009  10.980 -0.8680  0.2193  0.5363
10067TIP3    H151616   3.061   1.982  10.904  2.0305 -0.2319 -1.4420
10067TIP3    H251617   3.148   1.927  11.015  1.6050  0.6883 -0.6356
10068TIP3   OH251618   2.687   0.854   3.088 -0.3969 -0.3936 -0.5867
10068TIP3    H151619   2.729   0.885   3.168 -0.1725 -0.0504 -0.8395
10068TIP3    H251620   2.594   0.870   3.102 -0.4640 -1.2403  0.0123
10069TIP3   OH251621   3.041   2.747  12.018  0.6820  0.1055  0.1523
10069TIP3    H151622   3.047   2.834  12.056  0.0850 -0.1937  0.9566
10069TIP3    H251623   3.105   2.695  12.066 -0.1833 -0.3113  0.8847
10070TIP3   OH251624   2.034   1.031  11.352 -0.2242  0.2370  0.1136
10070TIP3    H151625   2.032   0.940  11.380 -4.0882 -0.0598 -0.6243
10070TIP3    H251626   2.029   1.081  11.434  0.1177 -0.2157  0.4219
10071TIP3   OH251627   2.380   6.679   2.971 -0.5640  0.0850  0.0060
10071TIP3    H151628   2.372   6.765   3.013 -1.1143 -0.4522  1.0266
10071TIP3    H251629   2.296   6.667   2.927 -0.8588 -0.3328  0.6659
10072TIP3   OH251630   5.311   4.630  13.366  0.5997 -0.4916 -0.0206
10072TIP3    H151631   5.317   4.607  13.459 -0.2550 -1.2918 -0.1502
10072TIP3    H251632   5.355   4.715  13.359 -1.8406  1.0032  1.6212
10073TIP3   OH251633   4.258   4.554   1.264  0.3710 -0.6452 -0.2189
10073TIP3    H151634   4.263   4.642   1.227  2.3312 -1.3999 -1.9820
10073TIP3    H251635   4.260   4.567   1.359  0.1011  1.2014 -0.4325
10074TIP3   OH251636   5.835   1.652   4.534  0.3603  0.0083 -0.1179
10074TIP3    H151637   5.856   1.606   4.615 -0.1713 -1.5767 -0.8485
10074TIP3    H251638   5.851   1.588   4.465 -0.2666  0.9704 -1.1908
10075TIP3   OH251639   6.617   3.650  17.148  0.1062 -0.9223  0.4277
10075TIP3    H151640   6.561   3.648  17.071  0.2018  0.6765  0.2855
10075TIP3    H251641   6.575   3.590  17.210 -1.8382  0.2819  0.3451
10076TIP3   OH251642   4.248   1.771  14.704 -0.1638  0.1250  0.5485
10076TIP3    H151643   4.191   1.847  14.692 -0.8504  0.0112  2.6056
10076TIP3    H251644   4.334   1.808  14.721  0.2395  0.3206 -1.7005
10077TIP3   OH251645   5.167   5.183   6.135 -0.7201  0.4590  0.2494
10077TIP3    H151646   5.103   5.187   6.206 -1.4408  3.3058 -0.4784
10077TIP3    H251647   5.217   5.264   6.142  0.7566 -0.2600 -1.1236
10078TIP3   OH251648   5.250   0.237   5.012  0.1375 -0.2353 -0.2140
10078TIP3    H151649   5.336   0.274   5.032  1.3383 -2.6679 -0.5326
10078TIP3    H251650   5.195   0.313   4.991  1.4832  1.6286  2.4037
10079TIP3   OH251651   5.260   5.880   3.199  0.3852 -0.0036  0.1432
10079TIP3    H151652   5.252   5.813   3.267  0.8673  2.4249  2.7587
10079TIP3    H251653   5.170   5.903   3.178  0.2179  0.5222  1.3640
10080TIP3   OH251654   4.444   3.603  11.739  0.2674  0.4536 -0.2255
10080TIP3    H151655   4.539   3.599  11.727  0.4576 -0.0262  1.2103
10080TIP3    H251656   4.432   3.631  11.830 -0.9366 -0.7397  0.0191
10081TIP3   OH251657   4.916   6.567   2.126 -0.1674  0.3157 -0.3022
10081TIP3    H151658   4.893   6.482   2.163  0.7293  0.2874  0.2150
10081TIP3    H251659   4.834   6.601   2.091 -0.4638 -0.9344 -0.8685
10082TIP3   OH251660   0.427   6.329   2.362  0.0093 -0.5927  0.4922
10082TIP3    H151661   0.335   6.349   2.383 -0.1041 -2.9255  2.5927
10082TIP3    H251662   0.425   6.302   2.270 -0.8893  1.9049 -0.3260
10083TIP3   OH251663   1.851   3.677   3.399 -0.1064 -0.1895 -0.4569
10083TIP3    H151664   1.891   3.709   3.318 -0.5499 -0.3692 -0.7457
10083TIP3    H251665   1.926   3.664   3.458  0.0694  1.7206 -0.1950
10084TIP3   OH251666   1.747   1.551   0.385  0.6232 -0.2122  0.2025
10084TIP3    H151667   1.791   1.508   0.312 -0.9849 -1.7740  0.0978
10084TIP3    H251668   1.788   1.513   0.463  0.4292 -0.6141  0.1094
10085TIP3   OH251669   0.665   6.353   0.361  0.2725 -0.0674  0.0121
10085TIP3    H151670   0.638   6.330   0.272 -3.2017 -0.8879  1.1343
10085TIP3    H251671   0.730   6.288   0.384 -0.4130 -1.2202 -1.1821
10086TIP3   OH251672   0.243   0.261   2.152 -0.2039 -0.2164 -0.0472
10086TIP3    H151673   0.257   0.343   2.199 -2.1076 -0.3348  0.7793
10086TIP3    H251674   0.182   0.283   2.082  0.3226 -0.6652 -0.6652
10087TIP3   OH251675   2.704   0.085  16.988 -0.1101 -0.0513 -0.2035
10087TIP3    H151676   2.695  -0.001  17.027 -0.7099  0.4247  0.7394
10087TIP3    H251677   2.798   0.103  16.989  0.1811 -1.2332 -1.6625
10088TIP3   OH251678   5.756   4.404  16.423 -0.1731  0.1556  0.3509
10088TIP3    H151679   5.748   4.363  16.509 -0.7316  2.4275  1.4404
10088TIP3    H251680   5.691   4.474  16.423 -0.1975  0.2286 -1.9491
10089TIP3   OH251681   2.477   1.478  11.681  0.4414 -0.3604 -0.5789
10089TIP3    H151682   2.445   1.391  11.703  0.8845 -0.3677  0.0609
10089TIP3    H251683   2.561   1.463  11.638  0.3838 -0.2590 -0.7300
10090TIP3   OH251684   4.712   3.219  15.071  0.0579 -0.2750 -0.2760
10090TIP3    H151685   4.645   3.284  15.089 -1.8302 -2.3351  0.4833
10090TIP3    H251686   4.733   3.181  15.156 -0.1946 -1.8681 -0.8970
10091TIP3   OH251687   4.088   4.348   1.143  0.1851 -0.0540  0.2403
10091TIP3    H151688   3.999   4.375   1.119 -0.3151  0.3560  2.3772
10091TIP3    H251689   4.120   4.417   1.200  2.1781  0.1320 -0.9834
10092TIP3   OH251690   1.270   0.056   4.635 -0.1270  0.0895 -0.1958
10092TIP3    H151691   1.205   0.021   4.574 -1.1301  0.4451  0.6317
10092TIP3    H251692   1.269   0.151   4.618 -1.4112  0.3771  1.2489
10093TIP3   OH251693   0.581   2.424  11.424  0.2821  0.6080  0.2744
10093TIP3    H151694   0.554   2.343  11.381 -0.9474 -0.4163  2.8199
10093TIP3    H251695   0.676   2.426  11.415  0.3105 -1.0061  0.0245
10094TIP3   OH251696   1.375   1.825   5.800 -0.0125  0.3580  0.1695
10094TIP3    H151697   1.334   1.762   5.859  2.1835  1.0795  2.6400
10094TIP3    H251698   1.400   1.898   5.857  2.5693  0.9612 -1.5753
10095TIP3   OH251699   2.551   4.737  12.147  0.3809 -0.1455  0.0381
10095TIP3    H151700   2.547   4.794  12.071 -1.5019  0.8870  0.8444
10095TIP3    H251701   2.599   4.787  12.213  0.3960 -0.2803  0.1302
10096TIP3   OH251702   5.375   2.385   3.578 -0.3972  0.0868 -0.6436
10096TIP3    H151703   5.425   2.346   3.507 -1.0558  1.0219 -1.6460
10096TIP3    H251704   5.284   2.365   3.557 -0.6117  0.4760 -0.1211
10097TIP3   OH251705   3.565   1.325   0.790 -0.0585  0.1149 -0.3182
10097TIP3    H151706   3.549   1.250   0.733  0.3005  1.2187 -1.9393
10097TIP3    H251707   3.658   1.319   0.813 -0.4480 -0.9541  1.1527
10098TIP3   OH251708   5.717   6.505   1.192  0.2137  0.2103 -0.0975
10098TIP3    H151709   5.806   6.482   1.164  0.0264  0.5108 -0.9813
10098TIP3    H251710   5.662   6.435   1.158 -0.1002  0.9060 -1.0803
10099TIP3   OH251711   0.054   3.307   1.979 -0.4626 -0.4170  0.3886
10099TIP3    H151712   0.015   3.266   2.056 -0.1904 -1.5359 -0.0538
10099TIP3    H251713   0.141   3.336   2.008 -0.5685 -0.3461  0.6377
10100TIP3   OH251714   0.909   0.111  15.779 -0.4279 -0.1055 -0.1624
10100TIP3    H151715   0.881   0.203  15.773 -0.7070 -0.1033  0.9482
10100TIP3    H251716   0.905   0.079  15.689 -1.4451  0.6514 -0.4062
10101TIP3   OH251717   4.414   1.576   1.251 -0.2284 -0.1002 -0.4233
10101TIP3    H151718   4.318   1.570   1.245 -0.2694 -1.0492  0.8362
10101TIP3    H251719   4.431   1.629   1.328  0.2651 -0.2821 -0.4008
10102TIP3   OH251720   0.415   2.943  11.486 -0.1593  0.0263  0.0264
10102TIP3    H151721   0.461   2.917  11.406 -0.2992 -0.5160  0.1164
10102TIP3    H251722   0.400   2.861  11.532  0.5339  0.4034  0.9490
10103TIP3   OH251723   5.385   3.305   5.711  0.7930  0.1707 -0.0623
10103TIP3    H151724   5.312   3.281   5.768  0.6013  0.5273 -0.1562
10103TIP3    H251725   5.384   3.240   5.641  1.2181 -0.4549  0.4996
10104TIP3   OH251726   0.719   3.876  16.595 -0.4552 -0.0151  0.5871
10104TIP3    H151727   0.792   3.815  16.587  0.0518  0.7057 -0.3714
10104TIP3    H251728   0.641   3.819  16.598 -0.2833 -0.7165 -3.2923
10105TIP3   OH251729   6.769   4.182  15.375 -0.3831 -0.2915 -0.9820
10105TIP3    H151730   6.819   4.100  15.377  0.1733  0.0306  0.6042
10105TIP3    H251731   6.685   4.159  15.414 -0.0451 -0.0320 -0.0647
10106TIP3   OH251732   3.207   2.576  12.475  0.0277  0.4606  0.6392
10106TIP3    H151733   3.293   2.541  12.499 -0.5493 -0.5903  1.2634
10106TIP3    H251734   3.181   2.524  12.399 -0.8372 -0.5177  1.5733
10107TIP3   OH251735   3.730   1.604   3.366 -0.1792  0.1653  0.4132
10107TIP3    H151736   3.780   1.672   3.410 -1.2520  0.3173  1.4494
10107TIP3    H251737   3.680   1.562   3.435 -0.1507 -1.1564 -0.3368
10108TIP3   OH251738   4.736   1.788  11.631  0.5427 -0.3275  0.5521
10108TIP3    H151739   4.676   1.861  11.612 -1.0933 -1.1843  2.1794
10108TIP3    H251740   4.706   1.717  11.574  2.0604  0.1411 -0.9393
10109TIP3   OH251741   0.467   4.065  13.478 -0.4871 -0.0197  0.6562
10109TIP3    H151742   0.457   4.013  13.557 -2.3354 -1.1500 -0.2432
10109TIP3    H251743   0.396   4.130  13.482  0.2667  0.8373  0.5711
10110TIP3   OH251744   4.512   3.671   0.884 -0.3993 -0.6469  0.0688
10110TIP3    H151745   4.550   3.632   0.962 -0.4024 -0.9388 -0.0750
10110TIP3    H251746   4.473   3.753   0.914 -0.5709 -0.8539  0.4037
10111TIP3   OH251747   3.246   5.079  16.382 -0.0468 -0.1777 -0.1873
10111TIP3    H151748   3.299   5.007  16.416 -1.2289 -0.9182  0.1579
10111TIP3    H251749   3.269   5.154  16.436  0.1821 -0.6417  0.3616
10112TIP3   OH251750   1.873   2.725   6.446  0.0718 -0.0854 -0.3952
10112TIP3    H151751   1.805   2.787   6.419 -1.5352 -0.8394  1.7110
10112TIP3    H251752   1.825   2.649   6.479  1.9826 -1.4200 -0.5383
10113TIP3   OH251753   3.190   5.163  15.831 -0.3780 -0.5487 -0.7541
10113TIP3    H151754   3.224   5.212  15.906 -4.5873  2.8870 -0.6816
10113TIP3    H251755   3.248   5.187  15.759 -0.5098  2.2632 -0.0433
10114TIP3   OH251756   3.045   6.257  15.081 -0.4360 -0.1127 -0.0151
10114TIP3    H151757   3.017   6.336  15.128  1.6583  1.3122 -0.9737
10114TIP3    H251758   2.969   6.232  15.029 -0.4093  3.0198 -1.8220
10115TIP3   OH251759   4.539   2.196   3.353  0.4765  0.2727  0.0764
10115TIP3    H151760   4.621   2.171   3.311 -0.0058 -0.9933 -0.1524
10115TIP3    H251761   4.537   2.292   3.348  2.4252  0.4121  1.0253
10116TIP3   OH251762   3.380   3.552  14.715 -0.1171  0.0058  0.0947
10116TIP3    H151763   3.416   3.485  14.656 -1.1261  0.5854 -1.2272
10116TIP3    H251764   3.288   3.561  14.688  0.0432  2.0617  0.0933
10117TIP3   OH251765   6.065   5.501   2.849  0.4341  0.3494  0.7653
10117TIP3    H151766   6.019   5.562   2.908 -0.1553 -0.2314  0.9095
10117TIP3    H251767   6.084   5.425   2.904  1.4353  0.5093  0.6630
10118TIP3   OH251768   0.875   3.867   1.204 -0.0022 -0.4625  0.4809
10118TIP3    H151769   0.946   3.803   1.207  0.1868 -0.2632  0.1705
10118TIP3    H251770   0.800   3.820   1.243  0.8172 -0.0002  2.7451
10119TIP3   OH251771   4.461   0.055  15.239  0.3231  0.1988  0.0993
10119TIP3    H151772   4.370   0.066  15.212 -0.7097 -1.9765  2.3168
10119TIP3    H251773   4.511   0.062  15.158 -1.6775  2.4123 -1.0448
10120TIP3   OH251774   2.110   1.246   4.575  0.0698  0.0459  0.3838
10120TIP3    H151775   2.031   1.209   4.536  1.1422  0.5306 -2.5285
10120TIP3    H251776   2.171   1.173   4.582 -0.5627 -0.3266  2.6215
10121TIP3   OH251777   6.148   1.289  14.989 -0.2375  0.0272  0.3253
10121TIP3    H151778   6.150   1.326  14.901 -0.5762 -0.8802 -0.0710
10121TIP3    H251779   6.059   1.257  15.000  0.4263 -2.0356  0.0780
10122TIP3   OH251780   4.697   0.554  16.364 -0.2206 -0.2351  0.2202
10122TIP3    H151781   4.784   0.538  16.401  0.7144  1.4457 -1.1233
10122TIP3    H251782   4.709   0.548  16.269 -1.7974 -0.9288  0.0218
10123TIP3   OH251783   5.645   4.227  14.915 -0.0228  1.0179  0.0713
10123TIP3    H151784   5.681   4.177  14.988 -1.2185 -0.8378 -0.5533
10123TIP3    H251785   5.693   4.197  14.838 -1.7096 -0.3140 -0.5241
10124TIP3   OH251786   3.752   3.731  13.933 -0.2103  0.0440 -0.1505
10124TIP3    H151787   3.664   3.711  13.965 -0.4765  1.0398 -0.2059
10124TIP3    H251788   3.770   3.665  13.866 -1.1333  0.1455 -0.5110
10125TIP3   OH251789   3.717   3.782  12.171  0.0926 -0.3175  0.1449
10125TIP3    H151790   3.764   3.699  12.157  2.4378  0.8673  0.5567
10125TIP3    H251791   3.738   3.834  12.094  1.9097  1.2683  1.6110
10126TIP3   OH251792   3.847   1.642  13.390  0.2638  0.5353  0.5963
10126TIP3    H151793   3.821   1.551  13.376 -0.4355  0.9551 -1.0344
10126TIP3    H251794   3.814   1.663  13.478  0.0037 -0.6220  0.7930
10127TIP3   OH251795   0.900   4.475  13.461  0.3239 -0.6344 -0.2712
10127TIP3    H151796   0.873   4.550  13.408 -0.4692 -0.6560  0.0875
10127TIP3    H251797   0.980   4.503  13.505 -1.0602  0.7939  1.4962
10128TIP3   OH251798   3.704   1.621  15.328 -0.1107 -0.0227  0.4171
10128TIP3    H151799   3.707   1.613  15.233  0.1662  1.8253  0.2255
10128TIP3    H251800   3.708   1.531  15.360 -0.3928 -0.6872 -1.3142
10129TIP3   OH251801   3.108   6.600   5.272  0.0640 -0.6804  0.5893
10129TIP3    H151802   3.156   6.676   5.238 -0.4209 -1.0709 -1.0857
10129TIP3    H251803   3.176   6.536   5.292  0.3332 -0.8041 -0.6562
10130TIP3   OH251804   4.546   0.003   4.769  0.4688  0.3534  0.1993
10130TIP3    H151805   4.537  -0.007   4.864 -0.1957  1.2087  0.2355
10130TIP3    H251806   4.475  -0.049   4.732  0.1208  0.8110  0.2132
10131TIP3   OH251807   6.506   5.401  14.003  0.3163 -0.7497 -0.1469
10131TIP3    H151808   6.515   5.317  13.958 -0.4685  0.5225 -2.9214
10131TIP3    H251809   6.443   5.450  13.950  1.1414  1.7948  1.0313
10132TIP3   OH251810   2.272   6.701   2.112 -0.9356  0.1713 -0.7517
10132TIP3    H151811   2.182   6.709   2.142 -1.1658 -0.3032 -1.2964
10132TIP3    H251812   2.265   6.667   2.023 -0.1764 -1.0995 -0.3415
10133TIP3   OH251813   0.001   4.985   5.852  0.3269  0.2584  0.1288
10133TIP3    H151814  -0.039   5.043   5.787  0.2336 -1.3192 -1.2878
10133TIP3    H251815   0.094   5.004   5.848  0.3989 -0.2881 -0.9610
10134TIP3   OH251816   5.536   0.544   2.970 -0.3766  0.6686  0.2746
10134TIP3    H151817   5.489   0.622   2.939 -1.7070 -0.1562  0.1549
10134TIP3    H251818   5.498   0.526   3.056 -0.0110  0.1943  0.3365
10135TIP3   OH251819   2.348   0.646   5.083 -0.2946  0.2414  0.3562
10135TIP3    H151820   2.416   0.584   5.110 -0.5917  0.7835  2.5742
10135TIP3    H251821   2.396   0.726   5.060 -0.0576 -0.0539 -0.1830
10136TIP3   OH251822   4.962   4.567  13.874 -0.1625  0.2992  0.2268
10136TIP3    H151823   4.906   4.573  13.951 -1.6223  2.8350 -0.9081
10136TIP3    H251824   4.945   4.480  13.838 -0.7619 -0.2533  1.7764
10137TIP3   OH251825   5.951   6.449  14.726 -0.2183 -0.5117 -0.4622
10137TIP3    H151826   6.007   6.372  14.736 -0.5471 -0.9447 -1.8040
10137TIP3    H251827   5.870   6.416  14.687 -0.6571  0.4069 -0.3651
10138TIP3   OH251828   3.047   3.511   2.834 -0.5369 -0.0964 -0.2398
10138TIP3    H151829   3.097   3.590   2.854  1.3180 -1.3273  0.2359
10138TIP3    H251830   2.975   3.512   2.897 -0.2696  0.9767  0.0653
10139TIP3   OH251831   2.704   4.494   2.450 -0.1266 -0.4882 -0.1122
10139TIP3    H151832   2.689   4.453   2.534 -0.1177 -1.8944 -0.7736
10139TIP3    H251833   2.619   4.529   2.424 -0.1155 -0.0035  0.4842
10140TIP3   OH251834   4.332   1.842  11.502 -0.3205 -0.1569  0.0824
10140TIP3    H151835   4.309   1.829  11.410  1.6282  0.3432 -0.5290
10140TIP3    H251836   4.271   1.909  11.533 -0.6189  0.1108 -1.0390
10141TIP3   OH251837   2.516   6.476  13.792  0.0507  0.1283 -0.3426
10141TIP3    H151838   2.536   6.454  13.883  0.7145 -0.8471 -0.7101
10141TIP3    H251839   2.593   6.448  13.743  0.9324  3.1225 -0.9200
10142TIP3   OH251840   0.117   2.519   3.695  0.1055  0.6446  0.2473
10142TIP3    H151841   0.067   2.497   3.617 -1.1419  1.6293  0.7271
10142TIP3    H251842   0.134   2.613   3.687  2.0545  0.3238  0.0350
10143TIP3   OH251843   3.713   4.593  16.785 -0.0119  0.1393 -0.6602
10143TIP3    H151844   3.618   4.590  16.773 -0.0192  0.6567 -0.7615
10143TIP3    H251845   3.743   4.506  16.760 -0.5087 -0.1798 -0.1699
10144TIP3   OH251846   1.196   6.666  11.367 -0.2448 -0.8138  1.2186
10144TIP3    H151847   1.152   6.602  11.424 -2.1145 -0.5463  0.1552
10144TIP3    H251848   1.275   6.621  11.337 -0.8405 -2.1367  1.5534
10145TIP3   OH251849   1.666   4.373  14.777 -0.0864  0.2137  0.0510
10145TIP3    H151850   1.755   4.371  14.743 -0.6022  0.7570 -1.4151
10145TIP3    H251851   1.654   4.464  14.806 -0.9679  0.8749 -2.1649
10146TIP3   OH251852   3.452   4.533  14.502 -0.1251 -0.0803  0.2219
10146TIP3    H151853   3.457   4.629  14.499  0.5654 -0.0692  1.0141
10146TIP3    H251854   3.436   4.507  14.412  0.9025  0.7354 -0.2323
10147TIP3   OH251855   1.193   3.059   2.222 -0.0282  0.1005 -0.1404
10147TIP3    H151856   1.221   3.019   2.139  0.4533  0.9510 -0.3930
10147TIP3    H251857   1.240   3.142   2.226  1.4358 -0.7461  1.9043
10148TIP3   OH251858   3.558   3.602  16.875 -0.5160  0.1463  0.0447
10148TIP3    H151859   3.496   3.589  16.946 -1.3725 -0.3654 -0.7800
10148TIP3    H251860   3.504   3.607  16.796  0.4871 -0.3716 -0.7003
10149TIP3   OH251861   1.362   6.561   6.645 -0.0421 -0.3034 -0.3157
10149TIP3    H151862   1.330   6.651   6.634  0.8700  0.2023  0.9356
10149TIP3    H251863   1.337   6.517   6.564 -1.3016  0.8325 -0.5804
10150TIP3   OH251864   1.683   3.541   6.325  0.5260 -0.4877  0.1610
10150TIP3    H151865   1.766   3.587   6.308  0.6579 -0.5059  0.7230
10150TIP3    H251866   1.709   3.451   6.341  0.5019 -0.3088  1.2771
10151TIP3   OH251867   4.049   2.215  14.371  0.2531 -0.1104  0.3153
10151TIP3    H151868   3.961   2.193  14.339 -0.5220  0.4752  1.9440
10151TIP3    H251869   4.040   2.215  14.466  1.9258  0.3897  0.4955
10152TIP3   OH251870   2.414   2.770  15.610 -0.3831  0.0403 -0.3770
10152TIP3    H151871   2.422   2.837  15.678 -0.2423 -0.2632 -0.0913
10152TIP3    H251872   2.389   2.818  15.532  0.4130  0.5148 -0.3421
10153TIP3   OH251873   5.303   0.759  16.447  0.3760 -0.7342 -0.0969
10153TIP3    H151874   5.359   0.778  16.372  0.8033  0.1283  0.4214
10153TIP3    H251875   5.214   0.767  16.413  0.5402  0.8864 -0.2605
10154TIP3   OH251876   5.743   3.897  11.440 -0.0877  0.7796  0.0347
10154TIP3    H151877   5.711   3.987  11.433  0.2058  0.7691 -1.7896
10154TIP3    H251878   5.664   3.843  11.445 -0.3241  1.2172  3.8304
10155TIP3   OH251879   4.741   1.114   0.186  0.1126  0.0651  0.8400
10155TIP3    H151880   4.782   1.174   0.124 -1.6590 -0.8398 -1.3438
10155TIP3    H251881   4.684   1.170   0.238 -1.0856  0.4335 -0.7841
10156TIP3   OH251882   4.504   2.387  13.696  0.5226 -0.2680  0.2389
10156TIP3    H151883   4.471   2.298  13.680  1.0629 -0.3149 -0.6903
10156TIP3    H251884   4.585   2.392  13.644  0.3461  0.8618  0.0479
10157TIP3   OH251885   1.689   4.856  13.552 -0.0716  0.3322  0.0170
10157TIP3    H151886   1.762   4.803  13.584 -0.6320  0.0788  0.9425
10157TIP3    H251887   1.727   4.942  13.534  0.3680  0.3742  1.0373
10158TIP3   OH251888   6.717   2.666   0.656  0.5212  0.2433  0.5947
10158TIP3    H151889   6.765   2.749   0.648  0.6990  0.2948  2.0378
10158TIP3    H251890   6.785   2.599   0.653  0.3484  0.1025 -0.9203
10159TIP3   OH251891   4.398   0.115   4.095 -0.0980 -0.0348 -0.5561
10159TIP3    H151892   4.448   0.152   4.023  1.6992 -1.6280 -0.1900
10159TIP3    H251893   4.370   0.191   4.146  1.1525  0.9514 -1.2903
10160TIP3   OH251894   4.864   0.929  12.567 -0.2595 -0.1094  0.4326
10160TIP3    H151895   4.809   0.851  12.560 -0.5043  0.1014 -0.1021
10160TIP3    H251896   4.943   0.908  12.517 -1.2353  0.7407 -1.5869
10161TIP3   OH251897   4.065   4.753   1.951 -0.3390 -0.1794 -0.0415
10161TIP3    H151898   4.045   4.847   1.961 -0.1425 -0.2342  0.9643
10161TIP3    H251899   4.086   4.724   2.040  2.5598 -0.5120 -0.7520
10162TIP3   OH251900   1.404   0.025  12.072 -0.9783 -0.3689  0.9133
10162TIP3    H151901   1.357   0.100  12.036  1.4107  0.6107 -0.3861
10162TIP3    H251902   1.390  -0.045  12.009  2.5455  1.1186 -1.8503
10163TIP3   OH251903   1.772   4.005  15.930  0.1410  0.4681 -0.1543
10163TIP3    H151904   1.812   3.981  16.014  0.3129 -1.3787 -0.7317
10163TIP3    H251905   1.716   3.931  15.907  1.1067  0.3082 -2.2899
10164TIP3   OH251906   2.524   5.327  12.359  0.2049 -0.9293  0.8511
10164TIP3    H151907   2.516   5.421  12.347 -0.5756 -0.9844  0.8885
10164TIP3    H251908   2.559   5.295  12.276 -0.5442 -0.7264  0.4444
10165TIP3   OH251909   0.642   6.045  12.947  0.8072 -0.4646  0.1191
10165TIP3    H151910   0.567   6.047  13.006  0.6964  0.3095 -0.0393
10165TIP3    H251911   0.626   5.970  12.890 -0.1773  0.0757 -0.3357
10166TIP3   OH251912   3.880   2.902  15.228  0.1053  0.0094 -0.5830
10166TIP3    H151913   3.850   2.974  15.283 -1.2051  0.5459 -1.9196
10166TIP3    H251914   3.925   2.843  15.288  1.9288  2.2836  0.4094
10167TIP3   OH251915   1.991   1.354   5.471 -0.2634  0.2932 -0.2609
10167TIP3    H151916   2.062   1.410   5.502 -1.3755  0.8794  1.4300
10167TIP3    H251917   2.032   1.271   5.450  0.7384  0.0019  2.4265
10168TIP3   OH251918   5.420   4.962  16.649 -0.0985  0.5127 -0.2628
10168TIP3    H151919   5.347   4.902  16.634 -1.8740  1.9101  2.0833
10168TIP3    H251920   5.418   5.022  16.575 -0.4582 -0.2510 -0.8839
10169TIP3   OH251921   3.586   4.685   3.919  0.0428 -0.2192  0.3827
10169TIP3    H151922   3.520   4.616   3.911  0.5455 -0.5857 -0.8599
10169TIP3    H251923   3.661   4.652   3.870 -0.3751  2.0083 -1.9749
10170TIP3   OH251924   6.535   0.595   3.711 -0.2052 -0.0454  0.5729
10170TIP3    H151925   6.506   0.508   3.682 -0.8218  0.2274  0.3600
10170TIP3    H251926   6.630   0.585   3.724 -0.1562 -0.5620 -0.1235
10171TIP3   OH251927   0.337   4.592  17.173 -0.0827 -0.5496  0.2260
10171TIP3    H151928   0.410   4.641  17.135  0.1007 -1.3096 -0.4190
10171TIP3    H251929   0.362   4.580  17.265 -1.0415  2.2643  0.9408
10172TIP3   OH251930   2.687   0.796   4.954 -0.2379  0.2307  0.2940
10172TIP3    H151931   2.645   0.787   4.869  2.9873  1.8829 -1.6912
10172TIP3    H251932   2.717   0.708   4.976 -1.7446 -0.3502  0.1621
10173TIP3   OH251933   4.223   5.701   5.062  0.1368 -0.6847  0.5483
10173TIP3    H151934   4.282   5.663   4.997  0.3602 -0.0379  0.3670
10173TIP3    H251935   4.185   5.777   5.019  2.9976  1.9359  2.3018
10174TIP3   OH251936   3.727   6.451   2.797  0.5929  0.4802  0.2367
10174TIP3    H151937   3.729   6.357   2.781  0.6120  0.6036 -0.5232
10174TIP3    H251938   3.808   6.484   2.759  0.6705  0.7818  0.6579
10175TIP3   OH251939   6.207   5.078   0.161 -0.0336  0.7050 -0.6329
10175TIP3    H151940   6.270   5.020   0.203  1.7373  1.4399 -2.1160
10175TIP3    H251941   6.158   5.022   0.101 -0.3792  0.2416  0.0694
10176TIP3   OH251942   6.697   0.905  13.057  0.4375 -0.0669 -0.7496
10176TIP3    H151943   6.779   0.875  13.096 -0.2437 -2.0687 -0.7399
10176TIP3    H251944   6.662   0.828  13.013 -0.5408  1.2184 -2.3751
10177TIP3   OH251945   2.209   6.155  12.322  0.5938  0.2227  0.7255
10177TIP3    H151946   2.234   6.233  12.274  0.0320 -0.4461 -0.7093
10177TIP3    H251947   2.291   6.106  12.334  0.7070  0.2864  0.2280
10178TIP3   OH251948   1.582   4.748   4.438  0.3475 -0.2893 -0.3892
10178TIP3    H151949   1.599   4.842   4.435  2.7643 -0.6196  0.6621
10178TIP3    H251950   1.500   4.737   4.389 -0.8430  2.5215  0.7245
10179TIP3   OH251951   3.366   2.426   1.717  0.5510  0.0576  0.3364
10179TIP3    H151952   3.333   2.341   1.687 -1.1363  1.1051 -1.0210
10179TIP3    H251953   3.367   2.480   1.637 -1.2461  2.1299  1.5971
10180TIP3   OH251954   0.980   2.175  15.780 -0.4596 -0.1362 -0.1673
10180TIP3    H151955   1.010   2.219  15.700  0.5634 -0.3012  0.1095
10180TIP3    H251956   0.939   2.245  15.832  0.4177  0.3327 -0.0911
10181TIP3   OH251957   0.018   1.672  13.981 -0.2006 -0.0659 -0.2413
10181TIP3    H151958  -0.014   1.706  13.898  0.3633  0.5918 -0.2032
10181TIP3    H251959  -0.035   1.594  13.998 -1.7062  0.9126 -0.2311
10182TIP3   OH251960   2.855   2.688   2.256  0.4666 -0.3162 -0.2356
10182TIP3    H151961   2.822   2.774   2.231  0.4903 -0.0253  0.7025
10182TIP3    H251962   2.781   2.629   2.243  0.6345 -0.2800 -1.4894
10183TIP3   OH251963   6.688   1.647   4.002 -0.6579  0.0113 -0.7064
10183TIP3    H151964   6.707   1.585   4.072 -2.5065  1.1836  0.9444
10183TIP3    H251965   6.609   1.612   3.960 -1.3973  0.9152 -0.1129
10184TIP3   OH251966   1.607   4.993   0.934  0.3185 -0.1506  0.0378
10184TIP3    H151967   1.533   4.960   0.883 -1.4531 -1.1073  2.9359
10184TIP3    H251968   1.566   5.034   1.011  2.7602  2.3050  0.1610
10185TIP3   OH251969   0.491   6.221  11.430  0.5430 -0.4052  0.1163
10185TIP3    H151970   0.406   6.180  11.441  0.7308 -0.3397  2.1277
10185TIP3    H251971   0.536   6.166  11.366 -0.3137 -1.5351  0.4589
10186TIP3   OH251972   3.893   3.039  13.704 -0.0624 -0.2227 -0.9058
10186TIP3    H151973   3.916   3.122  13.746  0.6058 -0.4194 -0.8670
10186TIP3    H251974   3.969   2.983  13.719 -1.1351 -1.3860  0.4426
10187TIP3   OH251975   6.396   0.778   3.856 -0.2933 -0.6073  0.3963
10187TIP3    H151976   6.468   0.841   3.856 -2.2170  1.7511  1.2580
10187TIP3    H251977   6.423   0.712   3.793  1.8375  1.1131 -0.6493
10188TIP3   OH251978   5.319   1.666  12.532 -0.5595  0.1072 -0.8127
10188TIP3    H151979   5.381   1.739  12.530 -0.9315  0.5105  0.6828
10188TIP3    H251980   5.235   1.705  12.510 -0.8921  0.3109  0.7270
10189TIP3   OH251981   4.259   1.453  11.837  0.1292  0.4112  0.3370
10189TIP3    H151982   4.339   1.461  11.785 -0.0526 -0.1897 -0.0546
10189TIP3    H251983   4.284   1.482  11.924  1.0571 -0.7068  0.4754
10190TIP3   OH251984   5.607   4.087   3.167  0.0635 -0.1447 -0.4279
10190TIP3    H151985   5.534   4.141   3.137  0.7433  0.7853 -0.4364
10190TIP3    H251986   5.634   4.127   3.249  0.6504 -0.4141 -0.4875
10191TIP3   OH251987   2.407   3.703   3.803  0.0716 -0.4620 -0.5680
10191TIP3    H151988   2.401   3.631   3.866  1.7547  0.2984  0.5326
10191TIP3    H251989   2.485   3.682   3.751  0.0866  0.1587 -0.8007
10192TIP3   OH251990   3.433   4.570  15.572  0.4067 -0.1750  0.2050
10192TIP3    H151991   3.357   4.547  15.626  0.6252 -1.4040  0.0151
10192TIP3    H251992   3.492   4.495  15.580  1.3910  0.5501 -0.0469
10193TIP3   OH251993   0.150   1.244  12.153 -0.0043  0.3069  0.1352
10193TIP3    H151994   0.080   1.193  12.193  2.1279 -1.7608  1.5540
10193TIP3    H251995   0.200   1.278  12.228  0.6771  1.4763 -0.8173
10194TIP3   OH251996   3.776   6.288   3.552 -0.5575 -0.3114  0.2248
10194TIP3    H151997   3.723   6.368   3.550 -0.0654  0.0122 -0.2810
10194TIP3    H251998   3.835   6.297   3.477 -1.0012 -1.5055 -0.2914
10195TIP3   OH251999   0.637   4.178  12.747 -0.7510  0.3905 -0.8347
10195TIP3    H152000   0.657   4.118  12.675 -0.5914 -0.3080 -0.2165
10195TIP3    H252001   0.567   4.234  12.712  1.0822  1.8313 -2.4687
10196TIP3   OH252002   2.634   3.654   1.426 -1.3503 -0.1035 -0.3424
10196TIP3    H152003   2.638   3.747   1.449 -3.1720 -0.5036  1.9640
10196TIP3    H252004   2.542   3.638   1.406 -0.9846 -1.3310 -1.1523
10197TIP3   OH252005   0.955   5.227   2.714  0.2083 -0.1397  0.1136
10197TIP3    H152006   1.013   5.302   2.728  0.4488 -0.6341  2.1239
10197TIP3    H252007   0.869   5.258   2.741  0.2928 -0.5354  0.8669
10198TIP3   OH252008   5.114   1.704   4.821 -0.3674 -0.1606 -0.4657
10198TIP3    H152009   5.021   1.708   4.797 -0.2859  0.6999 -0.6814
10198TIP3    H252010   5.114   1.668   4.910 -0.8330 -1.1414 -0.8522
10199TIP3   OH252011   5.319   1.248   3.390  0.3147  0.3988  0.0395
10199TIP3    H152012   5.372   1.180   3.434 -1.2492 -0.4423  0.6922
10199TIP3    H252013   5.384   1.310   3.357  2.0651 -2.4495 -2.5069
10200TIP3   OH252014   2.942   3.492   0.645  0.2277  0.2579  0.2131
10200TIP3    H152015   2.883   3.565   0.626  1.1558  0.9013 -0.2910
10200TIP3    H252016   2.889   3.432   0.698 -1.4969 -0.1409 -1.8375
10201TIP3   OH252017   0.393   6.215  17.031  0.6231 -0.3070 -0.4801
10201TIP3    H152018   0.387   6.131  16.984 -2.2099  0.0866 -0.9789
10201TIP3    H252019   0.317   6.216  17.089  0.2742  2.1235 -0.8638
10202TIP3   OH252020   6.562   1.166   1.746 -0.2242 -0.7713  0.4713
10202TIP3    H152021   6.651   1.185   1.716 -0.7591 -0.1804 -0.7963
10202TIP3    H252022   6.516   1.135   1.668 -1.7746  1.2193  0.5232
10203TIP3   OH252023   1.357   5.129   3.315  0.3163  0.0370 -0.4968
10203TIP3    H152024   1.424   5.065   3.291  0.9192  0.3321  0.3211
10203TIP3    H252025   1.274   5.090   3.288  0.5172 -1.7940  1.3453
10204TIP3   OH252026   2.667   6.399  14.386 -0.3651 -0.3435  0.0525
10204TIP3    H152027   2.650   6.312  14.350 -1.3743 -0.0483 -0.2199
10204TIP3    H252028   2.611   6.405  14.463 -0.9829  0.3744 -0.4310
10205TIP3   OH252029   6.359   4.058  16.742  0.2698  0.1450 -0.4945
10205TIP3    H152030   6.344   4.106  16.823  0.4755 -0.2391 -0.2255
10205TIP3    H252031   6.273   4.057  16.699  0.5747  2.0077 -1.2140
10206TIP3   OH252032   2.609   4.107   5.326 -0.0725 -0.1470 -0.0735
10206TIP3    H152033   2.569   4.028   5.362  0.5182 -0.3037  0.2562
10206TIP3    H252034   2.633   4.159   5.403 -1.1247  0.6958 -0.3028
10207TIP3   OH252035   6.148   3.843  14.759 -0.0614 -0.4216 -0.3028
10207TIP3    H152036   6.103   3.808  14.682 -3.2351  1.1334  0.6445
10207TIP3    H252037   6.157   3.768  14.818  1.0320 -1.3098 -1.5645
10208TIP3   OH252038   3.217   2.299  14.640 -0.3370 -0.6041 -0.7978
10208TIP3    H152039   3.233   2.346  14.722  0.0246 -0.3344 -1.0206
10208TIP3    H252040   3.192   2.367  14.578 -0.3236 -0.7707 -0.9886
10209TIP3   OH252041   5.965   3.805   3.394  0.0520  0.2668  0.1104
10209TIP3    H152042   6.046   3.853   3.374  0.6849 -1.2019 -1.0692
10209TIP3    H252043   5.980   3.768   3.481  0.5335  0.2876  0.0419
10210TIP3   OH252044   3.854   3.462   2.372  0.1367  0.8803 -0.0732
10210TIP3    H152045   3.880   3.549   2.340 -1.1338  1.0471 -0.6899
10210TIP3    H252046   3.761   3.456   2.353  0.2215 -0.6666 -0.1165
10211TIP3   OH252047   4.894   6.756  14.632 -0.5662  0.7045 -0.0127
10211TIP3    H152048   4.865   6.815  14.563 -2.1115  0.5371  0.4635
10211TIP3    H252049   4.835   6.681  14.625 -0.4087  0.4562  1.1580
10212TIP3   OH252050   3.292   2.329   5.064  0.1181  0.0700 -0.2070
10212TIP3    H152051   3.229   2.259   5.053  0.7971 -0.2709 -2.6343
10212TIP3    H252052   3.377   2.287   5.050  0.6762  1.0148  0.2529
10213TIP3   OH252053   3.008   1.411  11.608  0.2855 -0.2046 -0.2116
10213TIP3    H152054   3.044   1.326  11.585  1.2778  0.1881 -0.1728
10213TIP3    H252055   2.976   1.400  11.698  0.2503 -0.5783 -0.2684
10214TIP3   OH252056   2.221   5.615  11.667  0.2967 -0.2169 -0.0876
10214TIP3    H152057   2.205   5.696  11.618  2.0863  0.6402  0.6577
10214TIP3    H252058   2.176   5.628  11.750  0.8267  0.1742  0.1490
10215TIP3   OH252059   0.910   1.237   4.655 -0.4911  0.3316  0.3236
10215TIP3    H152060   0.960   1.171   4.607  0.8958  1.1988  0.5112
10215TIP3    H252061   0.977   1.295   4.691 -1.4081 -0.6196  3.8713
10216TIP3   OH252062   5.455   6.550   2.830  0.1045 -0.2300  0.6697
10216TIP3    H152063   5.468   6.591   2.744 -0.2860  0.3668  0.8822
10216TIP3    H252064   5.536   6.503   2.847 -0.3662 -1.6299 -0.6975
10217TIP3   OH252065   6.123   4.765   6.559 -0.3450  0.2040  0.3110
10217TIP3    H152066   6.145   4.756   6.466  0.5832  0.6895  0.4757
10217TIP3    H252067   6.042   4.815   6.560 -0.4019  0.1306 -0.2374
10218TIP3   OH252068   2.270   3.673   0.045  0.5856 -0.0233  0.3884
10218TIP3    H152069   2.234   3.722   0.119  0.2504 -0.7291  0.6929
10218TIP3    H252070   2.365   3.682   0.055  0.5686 -0.8039  1.3829
10219TIP3   OH252071   3.368   4.567   3.668  0.0292 -0.1390 -0.4790
10219TIP3    H152072   3.288   4.598   3.627  0.3002  1.1710 -0.0741
10219TIP3    H252073   3.357   4.587   3.761 -0.2512 -2.3351  0.0270
10220TIP3   OH252074   1.053   4.545   3.288  0.0483  0.0607  0.2787
10220TIP3    H152075   0.975   4.561   3.235  0.0145  0.6251  0.4871
10220TIP3    H252076   1.060   4.450   3.293  1.0038 -0.0587 -2.1109
10221TIP3   OH252077   0.781   0.145  12.087  0.1666  0.3654  0.4540
10221TIP3    H152078   0.873   0.129  12.106  0.2789  0.2964 -0.1323
10221TIP3    H252079   0.748   0.059  12.059  0.5680  0.9280 -1.8951
10222TIP3   OH252080   2.477   4.030  11.979  1.1996  0.1336 -0.8176
10222TIP3    H152081   2.419   4.102  11.955  1.6238  1.1072  0.8510
10222TIP3    H252082   2.503   4.051  12.069  3.0362 -0.9946 -1.0493
10223TIP3   OH252083   1.148   2.239  15.191 -0.1927 -0.0176 -0.5731
10223TIP3    H152084   1.156   2.211  15.283  0.1198  2.1026  0.1055
10223TIP3    H252085   1.233   2.217  15.153 -0.2864 -0.8239 -0.3482
10224TIP3   OH252086   6.394   0.024  11.277 -0.7265  0.2538 -0.5341
10224TIP3    H152087   6.328   0.092  11.273  0.5697  1.5217 -1.6542
10224TIP3    H252088   6.424   0.014  11.186 -1.3580 -2.3508 -0.5578
10225TIP3   OH252089   6.069   5.260  11.581 -0.1180 -0.0623 -0.2318
10225TIP3    H152090   6.096   5.350  11.597 -0.8573  0.3619 -1.3084
10225TIP3    H252091   5.973   5.263  11.578 -0.2153 -1.0859  0.8512
10226TIP3   OH252092   0.048   5.863   1.029 -0.7749  0.4184 -0.4667
10226TIP3    H152093   0.100   5.833   0.954 -2.3830  0.5960 -1.6982
10226TIP3    H252094   0.036   5.957   1.013  0.7528  0.9634  1.2203
10227TIP3   OH252095   3.173   5.493   5.543  0.6596  0.9674 -0.1714
10227TIP3    H152096   3.262   5.465   5.566  1.1828  3.3061  1.0255
10227TIP3    H252097   3.187   5.571   5.489 -0.6564  1.3074 -0.0406
10228TIP3   OH252098   0.596   5.768  14.406  0.2264  0.1637  0.5273
10228TIP3    H152099   0.662   5.736  14.467  0.7782  3.5861  1.9534
10228TIP3    H252100   0.644   5.784  14.325  1.1806  2.2445  1.4321
10229TIP3   OH252101   3.780   2.708  15.599  0.2063 -0.5816  0.3114
10229TIP3    H152102   3.762   2.666  15.683  0.3899 -0.4765  0.4069
10229TIP3    H252103   3.810   2.796  15.623 -2.2918  0.4049  0.0455
10230TIP3   OH252104   1.956   5.324  16.082  0.0028 -0.0403 -0.0647
10230TIP3    H152105   1.961   5.229  16.092  0.2049  0.1122  1.5485
10230TIP3    H252106   1.996   5.342  15.998  0.1295 -1.3706 -0.3016
10231TIP3   OH252107   4.546   5.587  14.194  0.0076  0.0698 -0.3122
10231TIP3    H152108   4.537   5.679  14.221  2.2823  0.0754  0.6025
10231TIP3    H252109   4.626   5.586  14.142 -1.2137 -1.0279 -2.3137
10232TIP3   OH252110   0.720   5.427   6.235  0.1341  0.0914 -0.1429
10232TIP3    H152111   0.776   5.396   6.306  0.8893  1.3311 -0.1697
10232TIP3    H252112   0.698   5.517   6.258  0.6252  0.6160 -1.5995
10233TIP3   OH252113   2.426   1.140  12.487 -0.1857 -0.0307 -0.1933
10233TIP3    H152114   2.486   1.205  12.524  0.8080 -0.7156 -0.5436
10233TIP3    H252115   2.344   1.187  12.475 -0.0126  0.6690  1.2203
10234TIP3   OH252116   4.427   4.431  12.951 -0.0424  0.3076 -0.1463
10234TIP3    H152117   4.452   4.373  12.878  0.8603  0.2097  0.2241
10234TIP3    H252118   4.481   4.509  12.939  0.1531  0.2684  0.4473
10235TIP3   OH252119   2.335   4.615   3.594  0.0563  0.3389  0.5049
10235TIP3    H152120   2.416   4.592   3.640  0.0660 -0.9575 -0.1216
10235TIP3    H252121   2.359   4.692   3.541  0.4692  0.8523  1.4082
10236TIP3   OH252122   1.179   0.059   0.889  0.3264 -0.3864 -0.7024
10236TIP3    H152123   1.096   0.022   0.857  0.1736  0.7135 -1.6589
10236TIP3    H252124   1.189   0.140   0.840  0.5797  0.9306  1.3988
10237TIP3   OH252125   6.679   6.185  12.693  0.5806 -0.5147  0.2638
10237TIP3    H152126   6.644   6.112  12.643 -0.3237 -0.1394  0.3333
10237TIP3    H252127   6.715   6.145  12.772  2.3788 -1.1650 -0.8103
10238TIP3   OH252128   0.905   2.044   0.506  0.2295  0.2227 -0.4577
10238TIP3    H152129   0.854   2.106   0.454 -1.9005 -1.9236 -1.0918
10238TIP3    H252130   0.840   1.992   0.553  1.9092 -1.5495  0.0311
10239TIP3   OH252131   2.076   0.239  12.551  0.1686  0.3506  0.2304
10239TIP3    H152132   2.153   0.296  12.558 -0.3544  0.9724  1.1496
10239TIP3    H252133   2.048   0.226  12.642 -1.1226  0.5798 -0.1231
10240TIP3   OH252134   6.543   0.872   2.518  0.3213 -0.3262  0.0120
10240TIP3    H152135   6.632   0.881   2.553  0.8692 -1.3923 -1.0129
10240TIP3    H252136   6.543   0.786   2.475 -0.3257  0.8289 -2.4702
10241TIP3   OH252137   6.674   4.334  14.378  0.0858  0.2013 -0.2202
10241TIP3    H152138   6.580   4.325  14.394  0.0760  0.3769 -0.1773
10241TIP3    H252139   6.702   4.401  14.439  0.3833 -0.3813  0.2848
10242TIP3   OH252140   2.601   5.314   3.097  0.2127 -0.1119  0.3903
10242TIP3    H152141   2.542   5.247   3.131 -0.7292  0.5242  0.0594
10242TIP3    H252142   2.554   5.396   3.110  1.2608  0.4766  0.5997
10243TIP3   OH252143   0.091   6.123   4.592  0.3766  0.2706 -0.2004
10243TIP3    H152144   0.073   6.052   4.530 -0.8426 -0.1492  0.5824
10243TIP3    H252145   0.011   6.129   4.644  1.5185  0.2770  1.6480
10244TIP3   OH252146   3.907   1.868   4.669 -0.9128 -0.1344  0.6403
10244TIP3    H152147   3.890   1.918   4.748  0.3549  1.3333  0.0192
10244TIP3    H252148   3.822   1.865   4.624 -0.9834  1.6634  0.5933
10245TIP3   OH252149   1.277   0.979   5.020 -0.1207  0.1882  0.3163
10245TIP3    H152150   1.329   0.899   5.025  0.8544  0.8435  1.1569
10245TIP3    H252151   1.259   1.003   5.111 -2.8439 -0.5611  0.0643
10246TIP3   OH252152   6.307   0.099  12.763 -0.0625 -0.1632 -0.4488
10246TIP3    H152153   6.283   0.156  12.690  0.6642 -0.1883 -0.7221
10246TIP3    H252154   6.339   0.019  12.722 -1.2782 -0.8671 -0.0605
10247TIP3   OH252155   6.393   5.153   4.334  0.0058  0.2677 -0.0539
10247TIP3    H152156   6.452   5.172   4.407  0.1287  1.6073 -0.4693
10247TIP3    H252157   6.447   5.103   4.272 -0.5247 -2.2479  1.3801
10248TIP3   OH252158   4.348   2.896  14.709 -0.0342 -0.6858 -0.3527
10248TIP3    H152159   4.333   2.819  14.763 -0.3417 -0.1597  0.3283
10248TIP3    H252160   4.260   2.924  14.683  0.1071 -0.9220 -1.1243
10249TIP3   OH252161   5.173   3.715  15.224 -0.7952 -0.1932 -0.4936
10249TIP3    H152162   5.088   3.729  15.265 -0.3750  0.7029  0.0964
10249TIP3    H252163   5.169   3.766  15.143  0.0216  1.8423  0.6970
10250TIP3   OH252164   0.022   0.330  16.247  0.2573 -0.2347 -0.0540
10250TIP3    H152165   0.022   0.270  16.321  1.0136 -1.9767 -1.3689
10250TIP3    H252166  -0.068   0.328  16.214  0.4084 -1.1296 -0.4342
10251TIP3   OH252167   1.410   0.799  13.446 -0.0736  0.2152  0.6032
10251TIP3    H152168   1.341   0.824  13.508 -0.4102  1.8854 -0.3801
10251TIP3    H252169   1.485   0.854  13.470 -0.0097  0.4284 -0.0536
10252TIP3   OH252170   5.459   3.314  12.719 -0.0197  0.3304  0.2490
10252TIP3    H152171   5.363   3.314  12.722 -0.2363  0.5595 -2.9726
10252TIP3    H252172   5.481   3.223  12.698  0.1966  0.8144 -1.8598
10253TIP3   OH252173   0.441   6.276  14.011 -0.3851  0.6905 -0.1508
10253TIP3    H152174   0.444   6.332  13.934 -0.4499  1.6963  0.5614
10253TIP3    H252175   0.530   6.278  14.046 -1.2815  4.0113  2.3885
10254TIP3   OH252176   1.136   6.523  11.047 -0.4934  0.0644  0.3970
10254TIP3    H152177   1.099   6.447  11.003  0.5257 -0.8544  1.0620
10254TIP3    H252178   1.182   6.570  10.978 -1.8347  0.5649 -0.1865
10255TIP3   OH252179   2.637   0.932  10.521 -0.2860  0.1901 -0.0980
10255TIP3    H152180   2.693   0.938  10.599  1.1018  1.2563 -1.1212
10255TIP3    H252181   2.665   0.851  10.478 -0.3418  0.1261 -0.0142
10256TIP3   OH252182   6.115   2.104  15.811 -0.7268 -0.0059 -0.1730
10256TIP3    H152183   6.120   2.053  15.730 -0.7305 -0.5079  0.1428
10256TIP3    H252184   6.202   2.142  15.820 -0.4183 -0.7602  0.1115
10257TIP3   OH252185   6.245   4.041   2.058  0.7207  0.5336  0.3082
10257TIP3    H152186   6.304   4.115   2.046  0.3511  0.5382 -1.7446
10257TIP3    H252187   6.166   4.080   2.096  1.1389  0.9108  0.8032
10258TIP3   OH252188   2.258   1.938   1.648 -0.2541 -0.4118  0.1651
10258TIP3    H152189   2.317   2.012   1.634  0.5642 -0.9853  0.5012
10258TIP3    H252190   2.170   1.975   1.639  0.1650  0.2314 -1.4656
10259TIP3   OH252191   0.597   4.543  15.276  0.2069 -0.4959 -0.2555
10259TIP3    H152192   0.628   4.523  15.187 -0.9102  0.5656 -0.8957
10259TIP3    H252193   0.539   4.470  15.298 -0.5874 -0.0878 -0.9504
10260TIP3   OH252194   4.834   0.736  13.713 -0.0587 -0.0496 -0.0154
10260TIP3    H152195   4.813   0.692  13.796 -0.6630  0.3222  0.0284
10260TIP3    H252196   4.751   0.768  13.680  0.0594 -0.8750 -1.1760
10261TIP3   OH252197   0.644   5.257  13.741  0.3862  0.1409  0.3592
10261TIP3    H152198   0.679   5.339  13.706  0.6735 -0.3338 -0.4820
10261TIP3    H252199   0.690   5.188  13.693  0.6269 -0.5395  1.5038
10262TIP3   OH252200   4.511   1.319   0.247  0.5266  0.2340  0.2180
10262TIP3    H152201   4.498   1.402   0.293  1.1409  0.9389 -0.8318
10262TIP3    H252202   4.479   1.253   0.308 -3.0648  1.4035 -0.1314
10263TIP3   OH252203   2.160   5.011  14.862  0.3822  0.2577 -0.4965
10263TIP3    H152204   2.158   5.052  14.776  0.9284  0.8904 -0.2178
10263TIP3    H252205   2.100   5.063  14.916  1.8646  1.3824  0.1375
10264TIP3   OH252206   1.687   6.169   3.890  0.0857 -0.4495  0.0100
10264TIP3    H152207   1.645   6.149   3.974 -0.7792 -2.1702 -0.7809
10264TIP3    H252208   1.776   6.194   3.912 -0.5870  0.7484  1.5463
10265TIP3   OH252209   5.430   5.548  13.390 -0.2580 -0.2380 -0.0019
10265TIP3    H152210   5.480   5.482  13.342  0.2138 -0.3480  0.6355
10265TIP3    H252211   5.432   5.519  13.481 -0.3044  0.4966  0.2413
10266TIP3   OH252212   1.328   5.396  12.026  0.9016 -0.0365 -0.2241
10266TIP3    H152213   1.320   5.389  11.931  0.3444  0.2731 -0.2027
10266TIP3    H252214   1.238   5.391  12.058  0.9790  1.0840  0.2085
10267TIP3   OH252215   0.128   4.270  16.254  0.5400  0.1976  0.3400
10267TIP3    H152216   0.081   4.349  16.229 -0.4238 -0.0963  1.1733
10267TIP3    H252217   0.098   4.250  16.342  2.3134  0.0403  0.9583
10268TIP3   OH252218   0.771   1.093   0.296 -0.3608  0.3391  0.3571
10268TIP3    H152219   0.719   1.095   0.215  0.3327 -1.4201 -0.1746
10268TIP3    H252220   0.845   1.036   0.276 -0.6390 -0.8927  2.5120
10269TIP3   OH252221   3.181   5.921   0.565 -0.2570 -0.1235  0.3960
10269TIP3    H152222   3.178   6.012   0.595 -0.6267 -0.8895  2.9304
10269TIP3    H252223   3.267   5.889   0.593 -0.1014 -0.5487 -0.5344
10270TIP3   OH252224   4.114   4.523   3.766  0.3241  0.3797 -0.0992
10270TIP3    H152225   4.072   4.443   3.798  1.3365 -0.4578 -0.8217
10270TIP3    H252226   4.207   4.509   3.781  0.3806  2.7709  2.7510
10271TIP3   OH252227   5.331   0.667  13.039 -0.1479  0.0102 -0.2213
10271TIP3    H152228   5.313   0.631  13.126  0.7042  0.1973  0.0365
10271TIP3    H252229   5.276   0.745  13.034 -0.8355 -0.4527 -0.1859
10272TIP3   OH252230   6.676   1.430  12.498  0.2604  0.2898  0.1924
10272TIP3    H152231   6.751   1.374  12.518  0.3529  0.4665  0.3426
10272TIP3    H252232   6.612   1.412  12.567  0.3803  0.5324  0.3692
10273TIP3   OH252233   4.801   3.601   3.729 -0.0857 -0.5764 -0.0749
10273TIP3    H152234   4.776   3.515   3.762 -1.8917 -0.1283 -0.1323
10273TIP3    H252235   4.809   3.588   3.634  0.1522 -0.7920 -0.0261
10274TIP3   OH252236   6.567   2.291  10.477  0.0747 -0.1779  0.4619
10274TIP3    H152237   6.621   2.270  10.401  0.5537  0.3255  0.6586
10274TIP3    H252238   6.500   2.351  10.444  0.4654  0.2789  0.5006
10275TIP3   OH252239   1.872   3.824   3.860  0.1719 -0.2130 -0.7053
10275TIP3    H152240   1.955   3.777   3.858 -0.9171 -2.4177  0.9333
10275TIP3    H252241   1.810   3.765   3.817 -0.8322  0.7676 -0.6530
10276TIP3   OH252242   0.105   2.049   1.897  0.8293 -0.1600 -0.0383
10276TIP3    H152243   0.075   1.976   1.951 -0.9407 -0.6149 -1.5366
10276TIP3    H252244   0.102   2.125   1.955  0.6976 -0.9266  0.9778
10277TIP3   OH252245   6.502   4.554   4.474  0.0193  0.1436  0.0656
10277TIP3    H152246   6.591   4.529   4.450 -0.4390  0.1541 -1.8080
10277TIP3    H252247   6.510   4.645   4.502  0.8907 -0.4767  1.9530
10278TIP3   OH252248   0.863   4.783  13.820  0.2315 -0.1298 -0.5748
10278TIP3    H152249   0.944   4.808  13.777  0.5472 -1.5078 -0.8344
10278TIP3    H252250   0.879   4.797  13.913  1.2338 -1.5416 -0.5079
10279TIP3   OH252251   0.797   3.652  12.319  0.3146  0.0058 -0.4387
10279TIP3    H152252   0.825   3.609  12.239  1.5092  1.5306 -0.8709
10279TIP3    H252253   0.863   3.629  12.384  0.7067  0.7976 -0.5516
10280TIP3   OH252254   1.484   5.378  11.204  0.2853 -0.7455 -0.0798
10280TIP3    H152255   1.408   5.337  11.162 -0.0490  0.1951 -0.4101
10280TIP3    H252256   1.530   5.420  11.132  0.2867 -0.0121  0.3456
10281TIP3   OH252257   6.535   0.787   3.306  0.3082  0.2455 -0.3041
10281TIP3    H152258   6.528   0.772   3.211 -1.8292  1.0308 -0.3223
10281TIP3    H252259   6.457   0.746   3.342  0.8118  0.4668  1.0798
10282TIP3   OH252260   3.783   5.356   4.006  0.6404 -0.1088 -0.6990
10282TIP3    H152261   3.876   5.343   3.986  0.7585  1.4916 -1.3818
10282TIP3    H252262   3.772   5.451   4.004 -1.3309 -0.3235 -2.1023
10283TIP3   OH252263   2.660   5.699  15.540  0.6679  0.1532  0.6331
10283TIP3    H152264   2.607   5.778  15.537  1.0679  0.4196  0.4472
10283TIP3    H252265   2.641   5.660  15.625  0.8081  0.6911  0.9160
10284TIP3   OH252266   3.730   5.943  16.549 -0.3806  0.3305  0.6083
10284TIP3    H152267   3.817   5.933  16.511  0.4456  2.1710  1.8827
10284TIP3    H252268   3.677   5.876  16.505  1.7446 -1.1222  0.1122
10285TIP3   OH252269   1.201   6.360  14.821 -0.1334 -0.1736  0.6005
10285TIP3    H152270   1.167   6.436  14.868 -1.4353 -1.2648  1.4978
10285TIP3    H252271   1.265   6.322  14.880  1.6535  1.0389 -0.4787
10286TIP3   OH252272   4.263   0.102  13.277 -0.3811 -0.0489 -0.1731
10286TIP3    H152273   4.258   0.195  13.300 -1.7884 -0.9026  3.7765
10286TIP3    H252274   4.350   0.075  13.307 -0.5532 -0.2930  0.1131
10287TIP3   OH252275   3.779   3.415  16.941 -0.0722  0.4070 -0.4717
10287TIP3    H152276   3.761   3.343  17.002 -1.2167  1.7043  0.8076
10287TIP3    H252277   3.697   3.428  16.894  0.2349  0.6400 -0.9480
10288TIP3   OH252278   2.027   2.401  15.063 -0.7268 -0.0520  0.0599
10288TIP3    H152279   2.075   2.348  15.000 -0.8534  2.1797 -2.0789
10288TIP3    H252280   1.946   2.353  15.079 -0.5766 -0.7879 -1.2951
10289TIP3   OH252281   4.685   2.786   1.333 -0.2473 -0.0550  0.1157
10289TIP3    H152282   4.724   2.710   1.289 -0.7769 -0.2682  0.0139
10289TIP3    H252283   4.607   2.751   1.376 -0.8703  0.5657 -0.4953
10290TIP3   OH252284   4.629   3.001   3.791 -0.0488 -0.0946 -0.4787
10290TIP3    H152285   4.632   3.031   3.881  1.6734 -2.3803  0.3023
10290TIP3    H252286   4.720   2.994   3.764 -0.4841 -1.0791 -1.8125
10291TIP3   OH252287   0.268   5.056   5.900 -0.8634  0.0634 -0.2737
10291TIP3    H152288   0.348   5.009   5.879  0.5074  2.5665 -1.1138
10291TIP3    H252289   0.284   5.092   5.988 -1.7499 -0.6973  0.2214
10292TIP3   OH252290   6.271   1.217   1.994 -0.5281 -0.1086  0.1107
10292TIP3    H152291   6.336   1.251   1.932 -0.6711 -3.2304 -2.0020
10292TIP3    H252292   6.319   1.153   2.046 -1.3356 -0.6430  0.2216
10293TIP3   OH252293   0.535   1.015  12.368 -0.0080  0.0927 -0.3751
10293TIP3    H152294   0.621   1.057  12.373 -0.3179  0.6314  0.6037
10293TIP3    H252295   0.550   0.937  12.314  0.5684  1.4388 -2.2876
10294TIP3   OH252296   3.120   0.235   0.994 -0.2099  0.0233 -0.1567
10294TIP3    H152297   3.054   0.298   1.023 -1.0963 -0.4656 -1.0287
10294TIP3    H252298   3.158   0.274   0.915  1.4583  0.8731  1.0132
10295TIP3   OH252299   1.737   2.497   0.885  0.1281 -0.3808  0.1119
10295TIP3    H152300   1.727   2.402   0.880  0.5007 -0.4340  0.3132
10295TIP3    H252301   1.652   2.532   0.858 -0.1659 -0.7783  0.5037
10296TIP3   OH252302   5.020   1.754   3.266  0.6957  0.4299 -0.0828
10296TIP3    H152303   4.928   1.733   3.247  0.1949  0.1409  2.2737
10296TIP3    H252304   5.028   1.846   3.245  0.6578 -0.1326 -2.8738
10297TIP3   OH252305   3.450   4.249  14.242  0.0764  0.2551  0.3165
10297TIP3    H152306   3.421   4.333  14.278 -0.4249  0.5376 -0.7125
10297TIP3    H252307   3.493   4.206  14.315 -0.0633  1.2164  0.9913
10298TIP3   OH252308   4.987   0.472   0.633  0.4764 -0.4862 -0.2126
10298TIP3    H152309   5.061   0.472   0.573  1.2613 -0.0298  0.7343
10298TIP3    H252310   4.933   0.546   0.605  0.3010 -0.8941 -0.9805
10299TIP3   OH252311   1.136   3.584  13.277  0.0693  0.0203  0.3381
10299TIP3    H152312   1.203   3.582  13.208 -2.0604  1.8995 -2.0045
10299TIP3    H252313   1.109   3.493  13.287  1.5071 -0.4864 -0.1636
10300TIP3   OH252314   2.748   1.197   1.468 -0.0417  0.1194 -0.3820
10300TIP3    H152315   2.749   1.103   1.451  0.3626  0.3544 -1.8721
10300TIP3    H252316   2.721   1.235   1.384  1.3490  1.4039 -0.2810
10301TIP3   OH252317   0.687   3.363   5.608  0.3222 -0.7688  0.1637
10301TIP3    H152318   0.641   3.305   5.670  0.7774 -0.4684  0.7960
10301TIP3    H252319   0.777   3.330   5.607  1.2628  1.4205  2.4956
10302TIP3   OH252320   0.757   5.643  14.626 -0.0430  0.5298  0.5104
10302TIP3    H152321   0.818   5.591  14.573  0.2936  0.1555  1.2563
10302TIP3    H252322   0.683   5.584  14.641 -0.5381  0.9321 -0.2626
10303TIP3   OH252323   0.007   3.443  11.528 -0.1324  0.6276 -0.4749
10303TIP3    H152324  -0.068   3.416  11.581  0.5815 -2.9030 -1.0031
10303TIP3    H252325   0.077   3.459  11.592  0.2391 -1.8994 -0.1683
10304TIP3   OH252326   6.630   5.412   2.728 -0.0280  0.2119  0.7985
10304TIP3    H152327   6.582   5.447   2.653  0.4408  0.3076  0.5432
10304TIP3    H252328   6.708   5.372   2.691  0.3482  0.5101  1.2640
10305TIP3   OH252329   1.026   4.497   0.265  0.1077 -0.2968  0.5872
10305TIP3    H152330   1.078   4.576   0.269 -1.3621  1.0752 -3.0677
10305TIP3    H252331   0.962   4.506   0.336  0.6210  1.2873  0.8767
10306TIP3   OH252332   5.917   5.586   0.439 -0.2298 -0.9387 -0.7179
10306TIP3    H152333   6.002   5.622   0.414 -0.5954 -0.8565 -1.8943
10306TIP3    H252334   5.863   5.662   0.459 -0.0386 -0.9912  0.0478
10307TIP3   OH252335   0.763   6.375   3.029  0.0992  0.0787 -0.2562
10307TIP3    H152336   0.686   6.325   3.054 -0.5673  0.3883 -1.5734
10307TIP3    H252337   0.796   6.412   3.111 -1.6800  0.6811  0.2371
10308TIP3   OH252338   5.684   0.002  13.251 -0.1789 -0.8239 -0.0242
10308TIP3    H152339   5.770   0.022  13.287  0.7148 -1.1835 -1.8762
10308TIP3    H252340   5.634   0.083  13.262  1.8907  1.0741 -3.1498
10309TIP3   OH252341   3.654   2.081   3.385  0.2984 -1.0152  0.1139
10309TIP3    H152342   3.610   2.001   3.415  2.2784 -2.4382 -0.5538
10309TIP3    H252343   3.642   2.081   3.290 -0.9434  0.3152  0.2414
10310TIP3   OH252344   0.960   0.970   0.981 -0.3281  0.3079 -0.6247
10310TIP3    H152345   0.970   0.888   0.933  0.6193  1.2148 -2.0551
10310TIP3    H252346   0.973   1.038   0.915  0.5670  1.6290  0.8439
10311TIP3   OH252347   5.297   0.113  12.108 -0.2204 -0.0106  0.2135
10311TIP3    H152348   5.282   0.151  12.021  1.3115 -2.4736 -1.2740
10311TIP3    H252349   5.237   0.039  12.113  0.1068 -0.2378  0.9988
10312TIP3   OH252350   2.909   3.423   4.751 -0.7904  0.0672  0.1050
10312TIP3    H152351   2.930   3.516   4.756 -0.0549 -0.0447 -0.7108
10312TIP3    H252352   2.822   3.416   4.789 -0.7182  1.0425  0.4707
10313TIP3   OH252353   5.467   0.828  11.404  0.3822 -0.3020 -0.6834
10313TIP3    H152354   5.383   0.785  11.390  0.6906 -1.1205 -0.1213
10313TIP3    H252355   5.482   0.822  11.499 -0.8321  3.4949 -0.0933
10314TIP3   OH252356   5.183   3.597  11.784  0.0207 -0.1541  0.4309
10314TIP3    H152357   5.106   3.630  11.830  1.1973  1.5373  1.2534
10314TIP3    H252358   5.208   3.519  11.833 -2.0270 -1.6881 -0.7747
10315TIP3   OH252359   1.092   5.802   5.711 -0.5335  1.0425 -0.0065
10315TIP3    H152360   1.113   5.855   5.787  1.0621 -1.5738  1.5473
10315TIP3    H252361   1.062   5.718   5.748  1.5253 -0.7974 -2.1578
10316TIP3   OH252362   4.935   0.727   0.120 -0.2158 -0.5543 -0.2002
10316TIP3    H152363   4.971   0.685   0.198 -2.2690 -1.3919  0.3694
10316TIP3    H252364   4.951   0.821   0.134 -1.0066 -0.6283  1.5332
10317TIP3   OH252365   5.559   0.434  12.306  0.1681 -0.3442 -0.6356
10317TIP3    H152366   5.520   0.350  12.329  1.5286 -1.4118 -2.0119
10317TIP3    H252367   5.585   0.424  12.214 -0.7361  2.0211 -1.2207
10318TIP3   OH252368   3.474   2.031   4.246 -0.0565 -0.2462 -0.2692
10318TIP3    H152369   3.448   2.123   4.251  1.3440  0.1461  0.1562
10318TIP3    H252370   3.538   2.028   4.175 -0.0747 -0.8802 -0.2630
10319TIP3   OH252371   2.202   2.616   1.761 -0.7136  0.1169  0.2651
10319TIP3    H152372   2.264   2.685   1.784 -2.3231  1.4642  0.7653
10319TIP3    H252373   2.231   2.539   1.811  0.3982  0.7669  0.6527
10320TIP3   OH252374   3.504   4.952   5.105 -0.3404  0.4357 -0.4492
10320TIP3    H152375   3.555   5.007   5.045  2.4048 -0.3209  1.0022
10320TIP3    H252376   3.570   4.909   5.159 -2.4169 -2.8815 -0.2718
10321TIP3   OH252377   0.367   5.976   4.890  0.0356  0.2188 -0.0006
10321TIP3    H152378   0.453   5.933   4.886  0.3481  0.5935  1.6972
10321TIP3    H252379   0.305   5.904   4.901  0.2870  0.0304  0.1965
10322TIP3   OH252380   1.782   1.582  14.067  0.2333 -1.0520 -0.4231
10322TIP3    H152381   1.758   1.642  14.137  0.1539 -2.5906  0.9412
10322TIP3    H252382   1.700   1.538  14.043  0.6421 -2.2088  0.2032
10323TIP3   OH252383   0.040   0.266   0.072 -0.4260  0.4407 -0.6987
10323TIP3    H152384   0.085   0.242   0.153  0.0899  1.5159 -0.6495
10323TIP3    H252385   0.016   0.358   0.083  0.7677  0.9912 -2.2503
10324TIP3   OH252386   3.060   3.127   6.702 -0.6040 -0.2318 -0.2130
10324TIP3    H152387   3.139   3.181   6.692  0.3249 -1.7773 -1.7986
10324TIP3    H252388   3.049   3.086   6.617 -2.6621 -0.7227  0.2530
10325TIP3   OH252389   6.716   6.782  16.765  0.3414 -0.1954  0.4501
10325TIP3    H152390   6.710   6.712  16.700  1.6132  0.1176 -0.0362
10325TIP3    H252391   6.809   6.803  16.770  0.0034  1.4606  0.5869
10326TIP3   OH252392   2.558   0.585   3.515  0.4145  0.0934 -0.1754
10326TIP3    H152393   2.470   0.606   3.481  0.3775  0.0802 -0.0866
10326TIP3    H252394   2.599   0.534   3.445 -0.3565 -1.6301  0.5777
10327TIP3   OH252395   5.630   6.732   0.908  0.1204 -0.1847 -0.0106
10327TIP3    H152396   5.590   6.722   0.994 -0.1948 -1.7774 -0.3114
10327TIP3    H252397   5.594   6.814   0.874 -1.4392 -0.6030  0.5201
10328TIP3   OH252398   0.205   6.525  16.100  0.3131  0.4257 -0.0835
10328TIP3    H152399   0.242   6.592  16.157 -0.7284  0.8514  0.1262
10328TIP3    H252400   0.116   6.513  16.133 -0.4190  0.8931 -1.7747
10329TIP3   OH252401   0.626   0.498  13.376 -0.1020  0.2244 -0.0386
10329TIP3    H152402   0.597   0.428  13.435  0.6711 -2.3865 -2.4765
10329TIP3    H252403   0.546   0.526  13.332 -0.1990 -0.4083 -0.2783
10330TIP3   OH252404   4.008   3.919   5.673 -0.2376 -0.0889 -0.4335
10330TIP3    H152405   3.975   3.951   5.757  0.1888  1.8054 -0.9289
10330TIP3    H252406   4.090   3.876   5.694 -0.2652  0.1417  0.1622
10331TIP3   OH252407   0.069   2.733  16.975 -0.5350 -0.2855 -0.0267
10331TIP3    H152408   0.031   2.646  16.985 -1.2846  0.2125  2.0847
10331TIP3    H252409   0.140   2.736  17.039 -1.6824  1.2139  1.2622
10332TIP3   OH252410   1.989   1.567  11.669 -0.0761 -0.1746  0.5356
10332TIP3    H152411   1.905   1.587  11.628  0.7475  0.2216 -1.0119
10332TIP3    H252412   2.007   1.476  11.642 -1.1134 -1.1675  2.8809
10333TIP3   OH252413   6.220   0.226  14.339 -0.1173  0.4296 -0.1373
10333TIP3    H152414   6.149   0.164  14.355  0.7675 -0.6339 -0.1665
10333TIP3    H252415   6.177   0.310  14.327 -1.3384 -0.1258  0.2002
10334TIP3   OH252416   1.338   5.331   2.632 -0.6251 -0.3602  0.0477
10334TIP3    H152417   1.431   5.353   2.629 -0.8868  1.1151  1.3877
10334TIP3    H252418   1.335   5.247   2.677  0.0181  0.0923  0.9844
10335TIP3   OH252419   4.182   1.086   0.882 -0.3496 -0.0230 -0.1490
10335TIP3    H152420   4.112   1.029   0.849 -0.5745 -0.8967  1.7400
10335TIP3    H252421   4.149   1.175   0.868 -0.2907 -0.3164 -2.5026
10336TIP3   OH252422   3.926   3.095  15.021  0.6127  0.7745 -0.0349
10336TIP3    H152423   3.934   3.016  15.075  0.1726  0.5635 -0.2635
10336TIP3    H252424   3.948   3.167  15.079  2.3107  0.3996 -0.1673
10337TIP3   OH252425   5.389   5.320  13.003  0.2975  0.0224  0.4188
10337TIP3    H152426   5.339   5.374  13.065  0.1221  1.8266 -1.1935
10337TIP3    H252427   5.382   5.231  13.037 -3.8232  0.1782  0.4795
10338TIP3   OH252428   0.893   5.834  15.813 -0.6202  0.4717  0.0786
10338TIP3    H152429   0.859   5.756  15.857 -1.7812  0.1073 -1.3944
10338TIP3    H252430   0.968   5.802  15.762 -0.6228  0.4562  0.0844
10339TIP3   OH252431   1.890   2.190   3.020  0.5019  0.1319 -0.3277
10339TIP3    H152432   1.928   2.277   3.033  2.3011 -0.5612 -0.7775
10339TIP3    H252433   1.861   2.190   2.929 -2.1540  1.1883  0.3945
10340TIP3   OH252434   6.491   4.504  12.982 -0.3517  0.1244  0.2900
10340TIP3    H152435   6.494   4.414  13.015  0.0242 -0.3280 -0.9081
10340TIP3    H252436   6.399   4.528  12.987 -0.7339 -0.9570 -0.9227
10341TIP3   OH252437   3.789   6.640   4.826 -0.4849  0.0928  0.2482
10341TIP3    H152438   3.696   6.621   4.839 -0.7582 -0.1428 -1.7340
10341TIP3    H252439   3.803   6.722   4.873 -2.0061  0.7752 -0.4015
10342TIP3   OH252440   3.655   6.576  10.984 -0.0031 -0.0950 -0.2270
10342TIP3    H152441   3.564   6.564  11.011  0.5492 -3.2954  0.5296
10342TIP3    H252442   3.658   6.666  10.950 -3.1198  0.5290  0.8518
10343TIP3   OH252443   1.588   0.789   6.563  0.1353  0.0075 -0.5711
10343TIP3    H152444   1.527   0.749   6.501  1.7085  0.5218 -2.5712
10343TIP3    H252445   1.535   0.853   6.610 -1.1267 -0.3637 -1.4071
10344TIP3   OH252446   3.110   6.173   3.332 -0.1738  0.0333 -0.0739
10344TIP3    H152447   3.111   6.093   3.279  2.6303 -0.2832  0.2981
10344TIP3    H252448   3.129   6.242   3.269 -0.4275  0.1421 -0.0332
10345TIP3   OH252449   1.765   6.695   2.087 -0.3027  0.0504 -0.0234
10345TIP3    H152450   1.699   6.626   2.077 -0.7870  0.4753  0.1509
10345TIP3    H252451   1.820   6.687   2.009 -0.7474 -0.1163 -0.3272
10346TIP3   OH252452   2.709   1.246  10.697  0.1840  0.3946  0.1444
10346TIP3    H152453   2.687   1.280  10.784 -0.1448  0.7319 -0.0703
10346TIP3    H252454   2.632   1.264  10.644  0.3914  0.2000 -0.2230
10347TIP3   OH252455   3.141   1.744  15.038  0.0953 -0.4818  0.4554
10347TIP3    H152456   3.186   1.662  15.018 -0.1269 -0.2066 -1.3104
10347TIP3    H252457   3.105   1.773  14.954  1.7187  2.3712  0.6045
10348TIP3   OH252458   5.010   4.898  13.871 -0.0075 -0.6022  0.1797
10348TIP3    H152459   4.956   4.912  13.793 -0.6434  0.1478  0.7322
10348TIP3    H252460   4.972   4.820  13.911 -1.4572  0.5295  1.1488
10349TIP3   OH252461   1.715   2.015   6.018  0.1599  0.8865  0.3671
10349TIP3    H152462   1.699   2.019   6.112  0.8356 -2.1751  0.7015
10349TIP3    H252463   1.628   2.013   5.979 -0.2613 -1.3605  1.2397
10350TIP3   OH252464   1.046   5.363  14.232  0.6372 -0.5909  0.1480
10350TIP3    H152465   1.019   5.384  14.322  1.7488  0.7019  0.2041
10350TIP3    H252466   1.122   5.306  14.242  1.7100  0.7873  0.0693
10351TIP3   OH252467   1.979   5.339   3.323  0.3963  0.2453 -0.1877
10351TIP3    H152468   1.966   5.387   3.405  0.0984  1.0490 -0.6960
10351TIP3    H252469   1.922   5.262   3.331 -0.6848  1.0279 -0.2025
10352TIP3   OH252470   3.793   4.120   5.678 -0.0918 -0.1309  0.0842
10352TIP3    H152471   3.716   4.073   5.647 -0.2930 -0.1409  0.5867
10352TIP3    H252472   3.867   4.081   5.631 -0.1842 -1.3525  0.9198
10353TIP3   OH252473   5.570   2.858   2.219 -0.3145  0.1173 -0.5724
10353TIP3    H152474   5.504   2.811   2.269 -0.4149  0.7017 -0.1501
10353TIP3    H252475   5.609   2.791   2.162 -1.7293 -0.1133 -1.3280
10354TIP3   OH252476   6.695   3.318   5.563  0.1477 -0.0106 -0.2057
10354TIP3    H152477   6.693   3.317   5.659 -2.0637  0.5490 -0.1758
10354TIP3    H252478   6.699   3.411   5.541  2.6054 -0.1771 -0.7314
10355TIP3   OH252479   2.860   6.645   4.992  0.0801 -0.6921 -0.1847
10355TIP3    H152480   2.884   6.567   5.042  0.5735 -1.7175 -1.9632
10355TIP3    H252481   2.941   6.669   4.946 -0.1947  0.6067 -0.0310
10356TIP3   OH252482   5.930   1.280  16.127  0.0625 -0.1119  0.2109
10356TIP3    H152483   5.894   1.295  16.039  0.0295 -0.6958  0.1215
10356TIP3    H252484   5.853   1.264  16.181  0.1352 -0.6561  0.1603
10357TIP3   OH252485   1.192   4.664   5.749 -0.3972 -0.6181 -0.1128
10357TIP3    H152486   1.191   4.681   5.655  0.3704 -0.3632 -0.0761
10357TIP3    H252487   1.219   4.747   5.788  1.0688 -1.2296  0.2161
10358TIP3   OH252488   3.371   2.894   0.995  0.1580 -0.4973  0.6834
10358TIP3    H152489   3.418   2.863   1.072  2.4552 -0.3655 -0.5983
10358TIP3    H252490   3.382   2.989   0.997 -1.3416 -0.2965  1.1102
10359TIP3   OH252491   4.752   1.592   5.467  0.4489  0.0438 -0.4596
10359TIP3    H152492   4.739   1.683   5.493 -0.2668 -0.2459  0.2355
10359TIP3    H252493   4.669   1.549   5.488  0.6749 -0.7081 -1.0578
10360TIP3   OH252494   1.395   0.491  15.445 -0.1067 -0.3364  0.3260
10360TIP3    H152495   1.319   0.446  15.407 -0.7257  0.8725  0.0709
10360TIP3    H252496   1.392   0.579  15.407  1.7649 -0.4278 -0.1363
10361TIP3   OH252497   1.443   6.394   6.069  0.3029 -0.1177 -0.4112
10361TIP3    H152498   1.419   6.338   5.995 -0.0559  0.8992 -1.0886
10361TIP3    H252499   1.360   6.434   6.096 -0.0165 -2.1430  2.0264
10362TIP3   OH252500   2.444   6.126  16.444 -0.3975 -0.0604  0.6430
10362TIP3    H152501   2.352   6.151  16.436 -0.3988 -0.1610  0.3484
10362TIP3    H252502   2.492   6.204  16.415 -0.3993 -0.2861  0.0090
10363TIP3   OH252503   4.605   2.133  11.870  0.3800  0.2353 -0.4946
10363TIP3    H152504   4.529   2.086  11.903  0.3909  0.5165 -0.0667
10363TIP3    H252505   4.569   2.194  11.805  0.3396 -0.2002 -0.8864
10364TIP3   OH252506   0.397   3.528   0.594 -0.4188  0.1312  0.6745
10364TIP3    H152507   0.429   3.595   0.655  0.0438  2.2014 -1.6774
10364TIP3    H252508   0.366   3.578   0.518 -2.7239 -2.2079 -0.0746
10365TIP3   OH252509   1.153   4.797   5.496 -0.6093 -0.0308 -0.3709
10365TIP3    H152510   1.089   4.853   5.540  0.3759  1.4403 -0.7584
10365TIP3    H252511   1.178   4.846   5.418  1.7626 -0.0737  0.2898
10366TIP3   OH252512   6.013   1.801  12.250 -0.4358  0.5638  0.5572
10366TIP3    H152513   6.102   1.773  12.230 -1.5246 -1.8980 -1.4353
10366TIP3    H252514   6.002   1.883  12.202  0.3836  0.2004 -0.2898
10367TIP3   OH252515   3.949   0.595  11.367  0.2187 -0.0917 -0.3806
10367TIP3    H152516   3.964   0.542  11.289  0.4999 -0.7127  0.0814
10367TIP3    H252517   3.953   0.686  11.337  0.7668 -0.3178 -1.0053
10368TIP3   OH252518   4.387   5.289   5.045  0.4134 -0.1813 -0.2166
10368TIP3    H152519   4.291   5.288   5.041  0.4227  0.0825 -0.5009
10368TIP3    H252520   4.409   5.378   5.071  0.6890  0.7416 -3.2775
10369TIP3   OH252521   5.058   5.689   6.451  0.2132 -0.4965  0.2558
10369TIP3    H152522   5.143   5.681   6.407 -0.1337 -0.5974 -0.4050
10369TIP3    H252523   5.010   5.610   6.426 -0.4630  0.0549 -0.2337
10370TIP3   OH252524   1.866   0.442   5.732 -0.5728 -0.4506  0.2791
10370TIP3    H152525   1.886   0.486   5.650 -1.4843  0.4006  0.5027
10370TIP3    H252526   1.774   0.462   5.749  0.1925  1.5020  2.7471
10371TIP3   OH252527   6.126   6.519  11.820 -0.0492 -0.3316 -0.1329
10371TIP3    H152528   6.186   6.444  11.820  1.0720  0.5189  0.7624
10371TIP3    H252529   6.178   6.591  11.857 -1.1224  0.8647 -0.8659
10372TIP3   OH252530   0.732   1.366  15.773  0.9839 -0.3475 -0.2575
10372TIP3    H152531   0.655   1.410  15.736  1.3132  1.1888  0.7620
10372TIP3    H252532   0.752   1.296  15.711 -0.6201 -0.1473 -1.0639
10373TIP3   OH252533   2.519   6.676   5.836 -0.1189  0.0069  0.0683
10373TIP3    H152534   2.511   6.587   5.801 -0.1917 -0.0255  0.1666
10373TIP3    H252535   2.527   6.665   5.931 -0.8002  0.1341  0.1457
10374TIP3   OH252536   5.488   2.156   3.375 -0.4874 -0.3326  0.0921
10374TIP3    H152537   5.500   2.088   3.441 -2.5563 -0.5494  0.3104
10374TIP3    H252538   5.538   2.230   3.408  1.4812 -1.5737  0.0485
10375TIP3   OH252539   2.655   4.489   0.723  0.4063 -0.4291  0.1688
10375TIP3    H152540   2.725   4.445   0.772 -0.7328 -2.4811  0.0734
10375TIP3    H252541   2.634   4.428   0.652  0.8375  1.6912 -1.9046
10376TIP3   OH252542   5.697   2.409  15.723  0.8218 -0.4168  0.2825
10376TIP3    H152543   5.654   2.377  15.802  1.7537 -0.5466  0.7493
10376TIP3    H252544   5.773   2.457  15.755  0.5786  0.5075 -0.4954
10377TIP3   OH252545   4.840   1.785   4.414  0.0148  0.2431  0.5944
10377TIP3    H152546   4.901   1.712   4.422  0.6497  0.8925  2.2769
10377TIP3    H252547   4.816   1.787   4.322  0.6633 -1.5296  0.3533
10378TIP3   OH252548   0.614   0.050   4.925 -0.2048 -0.6103 -0.1164
10378TIP3    H152549   0.604  -0.043   4.945  0.8830 -0.4094  1.5529
10378TIP3    H252550   0.566   0.095   4.995  0.6141  0.0898  0.0098
10379TIP3   OH252551   0.609   1.618   0.655 -0.2879 -0.0972  0.2663
10379TIP3    H152552   0.643   1.689   0.710 -0.4796  0.2033 -0.0054
10379TIP3    H252553   0.657   1.540   0.684 -0.3453  0.0717  0.8198
10380TIP3   OH252554   4.032   1.735   2.621  0.1459 -0.0661  0.0010
10380TIP3    H152555   4.054   1.733   2.528 -0.3773 -1.4868 -0.1122
10380TIP3    H252556   3.943   1.772   2.624 -1.2873 -3.1081 -0.4506
10381TIP3   OH252557   4.405   1.154   6.352 -0.5838 -0.2444  0.3286
10381TIP3    H152558   4.476   1.169   6.414 -0.1867 -1.6310  0.2503
10381TIP3    H252559   4.340   1.103   6.401 -0.5334 -0.8452 -0.2051
10382TIP3   OH252560   4.240   3.628   1.929  0.0670  0.3700  0.0550
10382TIP3    H152561   4.223   3.707   1.980  0.0512 -0.9183  2.1442
10382TIP3    H252562   4.259   3.660   1.841 -3.0733  2.5268 -0.0027
10383TIP3   OH252563   0.709   2.258   0.024  0.3176 -0.1073  0.0051
10383TIP3    H152564   0.770   2.196  -0.016  0.5736  0.4036 -0.4075
10383TIP3    H252565   0.622   2.221   0.008  0.4106  0.1329 -1.1032
10384TIP3   OH252566   4.159   3.248   4.121  0.6775  0.3881  0.5198
10384TIP3    H152567   4.159   3.159   4.157  0.6076  0.1603 -0.0378
10384TIP3    H252568   4.252   3.265   4.102  0.9142  1.0430  2.0853
10385TIP3   OH252569   2.512   0.632  11.082  0.2934 -0.3402  0.8315
10385TIP3    H152570   2.440   0.676  11.038  1.3573 -1.5714 -2.4642
10385TIP3    H252571   2.509   0.664  11.172 -2.5801  1.7693  0.1184
10386TIP3   OH252572   5.954   4.250  16.820 -0.1161 -0.0194  0.8116
10386TIP3    H152573   5.908   4.309  16.760  1.6840  0.8037  0.1918
10386TIP3    H252574   6.001   4.309  16.880 -0.2962 -0.8410  1.7844
10387TIP3   OH252575   3.563   1.164   3.755  0.7788 -0.0280 -0.3916
10387TIP3    H152576   3.533   1.086   3.802  2.1960  0.4443  1.4249
10387TIP3    H252577   3.601   1.130   3.674  2.1603 -1.3454  0.7564
10388TIP3   OH252578   0.881   0.222  11.292 -0.6661  0.8046 -0.3922
10388TIP3    H152579   0.801   0.218  11.240 -1.2262  0.7879  0.4634
10388TIP3    H252580   0.854   0.257  11.376 -0.1657 -1.2331  0.6605
10389TIP3   OH252581   6.568   6.646   5.541  0.4673  0.4737 -0.3697
10389TIP3    H152582   6.520   6.728   5.548 -2.5564 -1.2152  0.7814
10389TIP3    H252583   6.559   6.619   5.450  0.7465  0.9970 -0.5527
10390TIP3   OH252584   3.338   6.043   3.967  0.3147  0.3875 -0.5882
10390TIP3    H152585   3.339   6.114   3.902  0.1905 -0.0197 -1.0425
10390TIP3    H252586   3.347   5.963   3.915  0.2777  0.0590 -0.0936
10391TIP3   OH252587   3.466   0.062  12.183  0.3197 -0.2197 -0.5565
10391TIP3    H152588   3.445   0.155  12.192 -0.2307 -0.0818 -2.8240
10391TIP3    H252589   3.545   0.050  12.235  0.4501  1.5196 -0.3022
10392TIP3   OH252590   4.682   1.956   3.460  0.0233 -0.7930 -0.2317
10392TIP3    H152591   4.738   2.023   3.421  0.9088 -0.8647  0.8569
10392TIP3    H252592   4.593   1.986   3.444  0.3967  0.3896 -0.1832
10393TIP3   OH252593   3.587   0.175   5.735 -0.3229 -0.0269  0.1581
10393TIP3    H152594   3.520   0.120   5.775 -1.1105  0.3482 -0.6064
10393TIP3    H252595   3.661   0.116   5.722 -1.0828 -0.8816 -0.4537
10394TIP3   OH252596   4.694   3.539   0.174  0.1534 -0.2107  0.5599
10394TIP3    H152597   4.646   3.614   0.209 -2.7526 -2.1584  1.1342
10394TIP3    H252598   4.745   3.506   0.248  1.0565  0.8377  0.4332
10395TIP3   OH252599   3.946   0.874   0.322  0.6791 -1.1886  0.4543
10395TIP3    H152600   3.935   0.841   0.412 -0.1882 -0.0119  0.7946
10395TIP3    H252601   3.858   0.877   0.286  0.9966 -1.4055 -0.3724
10396TIP3   OH252602   5.360   0.193  15.696  0.3845  0.4823 -0.0663
10396TIP3    H152603   5.311   0.268  15.729 -0.2412  0.6034 -1.2378
10396TIP3    H252604   5.450   0.209  15.724  0.0205  0.9706  0.8653
10397TIP3   OH252605   4.691   1.410   5.918  0.0103  0.2557 -0.4234
10397TIP3    H152606   4.611   1.448   5.881 -0.1213 -0.7597 -1.2144
10397TIP3    H252607   4.660   1.332   5.965  0.3030  0.9609  1.0057
10398TIP3   OH252608   2.968   4.022  13.487 -0.5821  0.0717  0.1755
10398TIP3    H152609   3.036   3.956  13.487 -1.4539 -0.8785 -1.2496
10398TIP3    H252610   3.015   4.105  13.493  0.5937 -0.6167  0.7922
10399TIP3   OH252611   1.862   4.247   3.962 -0.2431 -0.1119 -0.2840
10399TIP3    H152612   1.824   4.281   3.880  0.4668  0.8044 -0.2607
10399TIP3    H252613   1.919   4.176   3.934 -1.4176 -1.0409 -0.3858
10400TIP3   OH252614   3.332   6.771   1.857 -0.1107  0.5384 -0.3191
10400TIP3    H152615   3.286   6.776   1.941  0.3735  0.3489 -0.0335
10400TIP3    H252616   3.287   6.702   1.809  0.4546 -0.3096  0.3323
10401TIP3   OH252617   3.789   2.510  14.316 -0.4255  0.0086  0.5781
10401TIP3    H152618   3.780   2.558  14.234 -1.4056 -0.1861  0.5684
10401TIP3    H252619   3.757   2.570  14.383 -0.3443 -0.1203  0.7343
10402TIP3   OH252620   2.264   0.967  12.587  0.1100 -0.3088  0.5852
10402TIP3    H152621   2.343   1.003  12.547  0.2835 -1.0299  0.2559
10402TIP3    H252622   2.192   1.009  12.540  0.2972  0.0819  0.6429
10403TIP3   OH252623   4.508   4.669  11.770  0.6749 -0.4849  0.1245
10403TIP3    H152624   4.453   4.742  11.799  0.0744  0.4348 -2.9227
10403TIP3    H252625   4.593   4.709  11.752  1.4618 -1.2994  1.8294
10404TIP3   OH252626   6.531   3.023   4.913  0.2887  0.4578  0.0821
10404TIP3    H152627   6.566   2.942   4.875 -0.8749  0.9672 -2.2472
10404TIP3    H252628   6.485   3.065   4.840 -2.0314  1.5842  2.0792
10405TIP3   OH252629   0.364   1.551   4.062 -0.5164  0.3982 -0.4257
10405TIP3    H152630   0.426   1.520   4.128 -2.0353 -1.0954  0.3734
10405TIP3    H252631   0.308   1.613   4.108 -2.1522 -1.3167  0.0234
10406TIP3   OH252632   4.274   3.618  13.518 -0.1513 -0.6754  0.1428
10406TIP3    H152633   4.269   3.535  13.471  1.8804 -1.2590  0.8331
10406TIP3    H252634   4.286   3.593  13.610 -3.0547  0.4403  0.9145
10407TIP3   OH252635   2.215   2.750  11.460 -0.1964  0.3137  0.2272
10407TIP3    H152636   2.236   2.803  11.537 -1.0968 -0.1970  0.8440
10407TIP3    H252637   2.268   2.787  11.390  1.5862  0.0060  1.3686
10408TIP3   OH252638   4.687   2.970  16.308  0.3488 -0.0975  0.8719
10408TIP3    H152639   4.701   2.884  16.348 -0.3191 -0.0627  1.1852
10408TIP3    H252640   4.648   2.950  16.223  0.2489 -0.1080  0.9201
10409TIP3   OH252641   5.394   4.744  11.592  0.5984 -0.0885  0.6972
10409TIP3    H152642   5.468   4.740  11.653  0.4229 -0.5952  0.8813
10409TIP3    H252643   5.330   4.683  11.628 -0.0637  0.6109  0.7340
10410TIP3   OH252644   5.641   1.812   4.556  0.2764 -0.4273  0.4363
10410TIP3    H152645   5.727   1.773   4.540 -0.1570 -0.4371 -2.2417
10410TIP3    H252646   5.602   1.755   4.623  0.8165 -2.8812 -1.2031
10411TIP3   OH252647   6.779   0.635  11.444  0.3471  0.4095 -0.2688
10411TIP3    H152648   6.814   0.723  11.458 -0.3430  0.7232 -0.5007
10411TIP3    H252649   6.718   0.622  11.516  0.7141 -0.0286 -0.0274
10412TIP3   OH252650   3.088   4.074  12.341  0.4429 -0.0830 -0.0738
10412TIP3    H152651   3.120   4.056  12.430 -0.9110 -0.6158  0.3322
10412TIP3    H252652   3.084   4.169  12.336  0.4850 -0.0489  0.4558
10413TIP3   OH252653   1.119   3.380   0.502 -0.4812  0.3560 -0.0287
10413TIP3    H152654   1.202   3.368   0.457 -0.2027 -2.1201  0.9766
10413TIP3    H252655   1.077   3.454   0.457  0.3901 -0.9925 -3.3346
10414TIP3   OH252656   5.900   1.097   4.159  0.2329  0.3292 -0.2681
10414TIP3    H152657   5.921   1.004   4.170  0.3103  0.4214  0.3891
10414TIP3    H252658   5.843   1.118   4.233 -0.5461  0.5857 -0.9230
10415TIP3   OH252659   6.697   1.657   1.829  0.4488 -0.1781 -0.1176
10415TIP3    H152660   6.637   1.586   1.848  0.8679 -0.2406  1.0168
10415TIP3    H252661   6.643   1.723   1.785 -1.0685  0.7846  2.9293
10416TIP3   OH252662   2.424   1.018  10.352  0.2088  0.5638 -0.0705
10416TIP3    H152663   2.510   1.025  10.394 -0.8309 -0.7075  2.5395
10416TIP3    H252664   2.416   0.925  10.330 -0.4895  0.6663 -0.2772
10417TIP3   OH252665   1.103   0.116  10.838  0.0312 -0.4654 -0.0710
10417TIP3    H152666   1.117   0.147  10.749 -0.2888 -2.2635 -0.7976
10417TIP3    H252667   1.140   0.028  10.839 -0.4535 -0.6805  1.4180
10418TIP3   OH252668   5.272   5.321  14.274  0.0894  0.3473  0.1094
10418TIP3    H152669   5.196   5.369  14.306  0.8430  1.0420  0.8951
10418TIP3    H252670   5.240   5.231  14.263 -0.5956  0.4104  1.3675
10419TIP3   OH252671   1.717   0.750  13.846  0.3678 -0.4213  0.3652
10419TIP3    H152672   1.735   0.671  13.795 -0.6987  0.7350 -1.9979
10419TIP3    H252673   1.650   0.725  13.908  0.4400 -1.4981  0.0249
10420TIP3   OH252674   3.788   4.965  15.380  0.4505  0.2398  0.5066
10420TIP3    H152675   3.772   4.878  15.416  2.8726  0.2247  1.7824
10420TIP3    H252676   3.705   5.012  15.393 -0.3702 -1.3576  1.3591
10421TIP3   OH252677   0.798   5.279   0.811  0.6371 -0.2122  0.4639
10421TIP3    H152678   0.852   5.312   0.739 -3.0182  1.6855 -1.6942
10421TIP3    H252679   0.778   5.189   0.787 -0.5527  0.4070 -0.9804
10422TIP3   OH252680   4.980   4.471  10.978 -0.0764  0.4229 -0.1819
10422TIP3    H152681   4.944   4.410  11.042  1.5786  0.1005  0.4922
10422TIP3    H252682   5.038   4.418  10.923  0.2233  1.1098 -0.5520
10423TIP3   OH252683   3.512   4.043  13.682  0.0879  0.2585  0.1569
10423TIP3    H152684   3.586   4.091  13.644  0.3488  1.2090  1.7691
10423TIP3    H252685   3.485   3.983  13.613  1.8266  0.4715 -0.7812
10424TIP3   OH252686   1.361   2.515  15.603  0.3447 -0.4945 -0.3319
10424TIP3    H152687   1.318   2.437  15.639 -0.5432 -0.5261 -1.3974
10424TIP3    H252688   1.329   2.587  15.657 -0.7613 -0.5744 -0.8429
10425TIP3   OH252689   6.033   3.626   1.604 -0.2996  0.1989  0.0290
10425TIP3    H152690   6.098   3.657   1.541  0.3197  0.6750  0.8857
10425TIP3    H252691   5.978   3.565   1.554  0.4033  0.2838 -0.8676
10426TIP3   OH252692   3.105   1.509  13.778 -0.1140 -0.0338  0.4994
10426TIP3    H152693   3.119   1.602  13.793  1.9257 -0.0451 -1.0477
10426TIP3    H252694   3.064   1.504  13.692  0.7374 -0.5934  0.1147
10427TIP3   OH252695   5.043   2.403   0.583  0.0542 -0.1898 -0.5378
10427TIP3    H152696   5.107   2.448   0.638 -1.0974 -0.8104  1.4324
10427TIP3    H252697   5.033   2.317   0.623 -1.0635 -0.5720 -1.5741
10428TIP3   OH252698   0.219   2.885   2.367  0.2320  0.3513  0.2433
10428TIP3    H152699   0.166   2.944   2.420 -0.1349  0.4157 -0.1878
10428TIP3    H252700   0.227   2.929   2.282 -0.6590 -0.5385 -0.3258
10429TIP3   OH252701   2.520   6.103   0.506 -0.0386  0.1111 -0.3246
10429TIP3    H152702   2.567   6.057   0.436  0.8790 -2.3689  1.8037
10429TIP3    H252703   2.585   6.116   0.575 -1.5425  0.0582  1.1701
10430TIP3   OH252704   4.735   1.016  14.714  0.1635 -0.6553  0.0174
10430TIP3    H152705   4.793   1.026  14.790 -1.0371 -1.1575  1.0431
10430TIP3    H252706   4.706   0.925  14.718  1.3403 -1.1740 -2.0232
10431TIP3   OH252707   0.136   3.159   0.960 -0.0771  0.6517 -0.1909
10431TIP3    H152708   0.184   3.106   0.897  0.9664  0.3144  0.8523
10431TIP3    H252709   0.113   3.239   0.912 -0.4207 -0.1258 -1.3504
10432TIP3   OH252710   5.451   3.953  16.889 -0.0298  0.3506 -0.6512
10432TIP3    H152711   5.371   3.901  16.887  0.5469 -0.5526 -0.9270
10432TIP3    H252712   5.424   4.037  16.926 -0.8443 -0.3892  0.5110
10433TIP3   OH252713   0.327   6.591  14.871 -0.8392  0.7380 -0.2204
10433TIP3    H152714   0.302   6.595  14.963 -0.3505 -2.6519  0.1861
10433TIP3    H252715   0.400   6.529  14.868 -1.2169  0.2845 -2.9624
10434TIP3   OH252716   6.705   2.374   2.140 -0.9697  0.5916 -0.1643
10434TIP3    H152717   6.708   2.395   2.046 -0.3419 -0.9111 -0.5118
10434TIP3    H252718   6.797   2.367   2.166 -0.9712 -3.2245 -0.5255
10435TIP3   OH252719   0.496   6.263   4.964  0.1971  0.3692 -0.7463
10435TIP3    H152720   0.427   6.264   4.897  0.3333  1.6902 -0.9050
10435TIP3    H252721   0.463   6.204   5.031 -1.5468  1.6270 -0.4061
10436TIP3   OH252722   4.183   2.567  12.584 -0.1817  0.2756 -0.1339
10436TIP3    H152723   4.122   2.641  12.580  0.2608  0.6050 -3.9160
10436TIP3    H252724   4.128   2.493  12.609 -0.8286  1.5377  2.7204
10437TIP3   OH252725   1.779   5.576   6.515  0.4570  0.3007  0.0838
10437TIP3    H152726   1.719   5.513   6.554 -0.6589  1.2899  0.0033
10437TIP3    H252727   1.862   5.527   6.506  0.1907 -0.5637  1.8006
10438TIP3   OH252728   4.161   3.724   1.452  0.4930  0.4950  0.2536
10438TIP3    H152729   4.197   3.789   1.392 -1.2271 -0.2776 -1.7668
10438TIP3    H252730   4.235   3.667   1.473  1.5414  1.8561  0.3635
10439TIP3   OH252731   5.702   0.238  11.759  0.2486 -0.0807  0.3947
10439TIP3    H152732   5.701   0.162  11.700  1.2128 -1.2485  1.7912
10439TIP3    H252733   5.633   0.219  11.823  1.2145 -0.3467  1.3842
10440TIP3   OH252734   3.509   6.560   4.806 -0.1772  0.2682 -0.0934
10440TIP3    H152735   3.509   6.509   4.725 -0.1279 -1.8192  1.1360
10440TIP3    H252736   3.421   6.546   4.843 -0.3913  1.6419 -0.0169
10441TIP3   OH252737   1.160   5.526   3.019  0.4384 -0.0713  0.0436
10441TIP3    H152738   1.072   5.493   3.037  0.4175 -0.2136 -0.3157
10441TIP3    H252739   1.219   5.460   3.055  0.4038 -0.9247 -1.3791
10442TIP3   OH252740   4.360   1.954   1.814 -0.1292 -0.0524 -0.2342
10442TIP3    H152741   4.349   1.859   1.820 -0.6758  0.0099 -0.1564
10442TIP3    H252742   4.334   1.987   1.900 -1.4578  0.2887 -0.7341
10443TIP3   OH252743   4.131   0.616  16.699 -0.3489 -0.3045 -0.0297
10443TIP3    H152744   4.108   0.674  16.626 -0.7853 -0.7621 -0.2693
10443TIP3    H252745   4.172   0.673  16.764  3.8460 -0.4433 -2.2144
10444TIP3   OH252746   1.475   0.278   2.978 -0.3049  0.2427  0.3982
10444TIP3    H152747   1.422   0.247   3.051  0.8326  1.3939  1.7874
10444TIP3    H252748   1.453   0.371   2.970  0.9851  0.5772  0.5547
10445TIP3   OH252749   4.911   1.516  12.513  0.3182 -0.8742  0.1274
10445TIP3    H152750   5.001   1.507  12.482  0.2542 -0.0027 -0.3317
10445TIP3    H252751   4.858   1.479  12.443  0.1971  0.7543 -0.6987
10446TIP3   OH252752   2.605   6.087  13.443  0.1771 -0.5229 -0.1427
10446TIP3    H152753   2.553   6.017  13.403  0.2647 -1.2172  0.9097
10446TIP3    H252754   2.602   6.068  13.536  0.7111  0.5510  0.1055
10447TIP3   OH252755   6.558   5.207  13.020  0.3519 -0.0933  0.2520
10447TIP3    H152756   6.573   5.131  12.963 -0.5703  0.1173 -0.2925
10447TIP3    H252757   6.517   5.170  13.099  0.5972 -0.2482  0.3076
10448TIP3   OH252758   3.474   0.138   3.978 -0.0920 -0.0015 -0.3678
10448TIP3    H152759   3.477   0.143   3.882  0.2976  0.6140 -0.3310
10448TIP3    H252760   3.417   0.063   3.996 -0.1089 -0.1727 -1.0802
10449TIP3   OH252761   0.804   4.036  13.553 -0.4488 -0.5890  0.2760
10449TIP3    H152762   0.843   4.100  13.613  3.7860 -1.9887 -0.6418
10449TIP3    H252763   0.765   3.970  13.610 -0.6768  0.4123  1.3262
10450TIP3   OH252764   5.494   2.744  16.069 -0.2853 -0.1195  0.0041
10450TIP3    H152765   5.587   2.723  16.063 -0.1276  0.5098  0.2319
10450TIP3    H252766   5.486   2.797  16.148 -0.8023  0.0143 -0.1336
10451TIP3   OH252767   3.788   5.134   0.035  0.3848  0.3899  0.1849
10451TIP3    H152768   3.867   5.091   0.002  0.4234 -0.4092  1.2633
10451TIP3    H252769   3.737   5.154  -0.044  1.8482  1.3479 -0.5661
10452TIP3   OH252770   2.935   2.605  12.684  0.0137  0.4716 -0.7112
10452TIP3    H152771   2.924   2.577  12.775 -0.0233  1.3124 -0.4533
10452TIP3    H252772   2.945   2.523  12.635 -0.9830 -0.0438 -0.0909
10453TIP3   OH252773   4.367   5.412  13.473 -0.0845 -0.1629  0.2552
10453TIP3    H152774   4.442   5.412  13.533  0.5621  0.6996 -0.5174
10453TIP3    H252775   4.386   5.341  13.412 -0.3400 -0.5104  0.5729
10454TIP3   OH252776   2.683   0.418  13.731  0.7676  0.3061 -0.0739
10454TIP3    H152777   2.657   0.495  13.680 -0.8823  0.3077  0.7039
10454TIP3    H252778   2.672   0.344  13.671 -0.8243  0.3475  0.1187
10455TIP3   OH252779   1.180   2.466   4.400 -0.0970  0.4510 -0.2742
10455TIP3    H152780   1.266   2.443   4.435 -0.5274 -2.5832 -0.8706
10455TIP3    H252781   1.120   2.449   4.472 -0.2710  2.4988  0.1165
10456TIP3   OH252782   1.554   0.610   1.756 -0.1711  0.2058 -0.0939
10456TIP3    H152783   1.625   0.655   1.802  0.3924  2.4321 -2.7842
10456TIP3    H252784   1.520   0.547   1.818  2.1820  1.1658  2.3566
10457TIP3   OH252785   0.636   2.011   3.441  0.3194 -0.2913  0.0556
10457TIP3    H152786   0.608   1.961   3.518  0.5363 -0.4907  0.0067
10457TIP3    H252787   0.708   2.064   3.472 -0.6475  0.8635  0.3931
10458TIP3   OH252788   4.062   5.850   3.326  0.3590 -0.5569  0.5091
10458TIP3    H152789   4.027   5.865   3.413  0.3152 -0.3123  0.4509
10458TIP3    H252790   4.155   5.870   3.333  0.1707  0.4693  0.2620
10459TIP3   OH252791   5.652   0.718  11.918  0.0020 -0.0980 -0.2923
10459TIP3    H152792   5.659   0.688  12.009 -1.4371 -0.5678 -0.3097
10459TIP3    H252793   5.675   0.641  11.866  0.7538  0.1502 -0.3414
10460TIP3   OH252794   1.127   6.631  12.275  0.1242  0.3114 -0.1157
10460TIP3    H152795   1.203   6.594  12.229 -0.4001 -0.2447 -0.5399
10460TIP3    H252796   1.121   6.579  12.356  0.8333  1.0602  0.4363
10461TIP3   OH252797   3.906   5.682   2.124 -0.4141 -0.2031 -0.1029
10461TIP3    H152798   3.869   5.628   2.055  0.0590 -0.0738 -0.4597
10461TIP3    H252799   3.934   5.619   2.191  1.7986 -0.5757 -1.2989
10462TIP3   OH252800   1.373   6.132   5.133 -0.1115  0.1499  0.1686
10462TIP3    H152801   1.384   6.218   5.171 -1.0977  1.1397 -1.6343
10462TIP3    H252802   1.282   6.129   5.104 -0.5438 -2.0933  1.4896
10463TIP3   OH252803   1.250   1.632   5.944  0.4467  0.4598  0.0920
10463TIP3    H152804   1.316   1.562   5.945  0.6473  0.6535  0.4088
10463TIP3    H252805   1.204   1.622   6.027 -0.8605 -0.5568 -0.7042
10464TIP3   OH252806   4.501   5.344  11.406 -0.1822 -0.4272  0.1885
10464TIP3    H152807   4.438   5.387  11.348 -1.0928 -2.0365 -0.0708
10464TIP3    H252808   4.518   5.409  11.475 -1.6355  0.2917 -0.0808
10465TIP3   OH252809   4.132   1.020  12.601 -0.2395  0.1555 -0.7656
10465TIP3    H152810   4.104   1.045  12.689 -0.0633  1.1316 -0.9763
10465TIP3    H252811   4.056   1.041  12.546 -0.1314  0.1046 -0.9335
10466TIP3   OH252812   1.694   2.128  13.425 -0.2465 -0.3675  0.2306
10466TIP3    H152813   1.713   2.042  13.386  1.3116  0.5550 -1.2125
10466TIP3    H252814   1.779   2.172  13.427 -1.2530  1.7624 -0.6384
10467TIP3   OH252815   4.378   2.134  12.326  0.4880 -0.4073  0.1097
10467TIP3    H152816   4.338   2.106  12.243 -2.2795  0.4566  1.0399
10467TIP3    H252817   4.404   2.225  12.310  1.2769 -0.6762 -0.2041
10468TIP3   OH252818   6.724   3.334  14.748 -0.1650 -0.0091  0.1710
10468TIP3    H152819   6.682   3.416  14.723  0.1978  0.2883  0.5071
10468TIP3    H252820   6.815   3.344  14.718 -0.5793 -1.1003 -1.5732
10469TIP3   OH252821   0.196   5.301  12.588  0.0458 -0.1844  0.0113
10469TIP3    H152822   0.214   5.325  12.497  1.5984  1.5778  0.7197
10469TIP3    H252823   0.110   5.337  12.606  0.5176  1.1179 -0.2442
10470TIP3   OH252824   1.089   6.409   3.876 -0.3790 -0.0895 -0.6123
10470TIP3    H152825   1.021   6.354   3.836 -0.9855 -0.0775  0.3716
10470TIP3    H252826   1.166   6.352   3.880 -0.5373 -0.3420 -1.0770
10471TIP3   OH252827   1.971   3.949   5.748  0.3095  0.2783  0.4069
10471TIP3    H152828   1.933   3.966   5.662 -0.7176  0.8365  0.9475
10471TIP3    H252829   1.912   3.993   5.809 -0.3978 -2.1591  1.6114
10472TIP3   OH252830   1.112   0.792  16.263 -0.3405 -0.0340 -0.0758
10472TIP3    H152831   1.039   0.791  16.202  1.7882  0.3485 -2.8254
10472TIP3    H252832   1.126   0.884  16.284 -1.1728 -0.1738  1.2400
10473TIP3   OH252833   4.440   2.160   1.628 -0.3537  0.4178  0.2336
10473TIP3    H152834   4.418   2.086   1.685  0.8827 -0.2113 -0.0868
10473TIP3    H252835   4.519   2.198   1.666 -1.0032  1.6482  0.4295
10474TIP3   OH252836   6.566   3.528  14.970 -0.1493  0.8003 -0.2755
10474TIP3    H152837   6.582   3.435  14.986 -0.7466  0.6044 -0.7588
10474TIP3    H252838   6.578   3.539  14.876  2.7109  1.8078  0.1210
10475TIP3   OH252839   1.812   3.679   4.923 -0.7907  0.8076 -0.6457
10475TIP3    H152840   1.888   3.738   4.928 -1.5361  1.9312 -2.0964
10475TIP3    H252841   1.791   3.673   4.830 -0.4288 -2.2383 -0.6578
10476TIP3   OH252842   6.303   2.920   2.472 -0.1222 -0.4404 -0.3618
10476TIP3    H152843   6.295   3.007   2.513 -1.3233 -0.9982  0.6644
10476TIP3    H252844   6.227   2.872   2.504  0.4161 -1.8192 -1.0858
10477TIP3   OH252845   5.934   6.551  14.252  0.0417 -0.2382  0.6080
10477TIP3    H152846   5.849   6.596  14.246 -1.4806 -2.9124  0.4115
10477TIP3    H252847   5.969   6.555  14.163  0.2404  1.0324  0.7271
10478TIP3   OH252848   5.446   0.362  11.592 -0.1170 -0.0804  0.2219
10478TIP3    H152849   5.482   0.280  11.558 -1.8003 -1.4066  1.4596
10478TIP3    H252850   5.496   0.430  11.548  0.6934 -1.7485 -1.5858
10479TIP3   OH252851   4.065   0.848   5.744 -0.7136  0.4538 -0.5271
10479TIP3    H152852   3.995   0.804   5.698 -0.3055  1.4264 -2.1526
10479TIP3    H252853   4.027   0.932   5.772 -0.0344  1.3272 -2.0979
10480TIP3   OH252854   3.013   3.793  14.229  0.0937 -0.3401 -0.3164
10480TIP3    H152855   2.920   3.785  14.245  0.4373 -3.0908  0.8249
10480TIP3    H252856   3.022   3.785  14.134 -0.7525 -1.9868 -0.2977
10481TIP3   OH252857   4.709   0.356   5.336  0.0501 -0.4739  0.3015
10481TIP3    H152858   4.801   0.331   5.331 -0.3041 -1.7472 -0.2500
10481TIP3    H252859   4.711   0.449   5.358  1.4624 -0.4610  0.2390
10482TIP3   OH252860   0.491   2.273   1.263  0.2713 -0.4815 -0.1291
10482TIP3    H152861   0.542   2.253   1.342 -0.1807 -3.5411 -0.4876
10482TIP3    H252862   0.417   2.325   1.294  2.0197  1.6187  0.8151
10483TIP3   OH252863   2.670   2.690   1.577 -0.0554  0.1299  0.2612
10483TIP3    H152864   2.677   2.675   1.483 -1.6627 -2.6858  0.4704
10483TIP3    H252865   2.575   2.694   1.594  0.1376 -0.9303  1.8812
10484TIP3   OH252866   0.366   2.018   6.118 -0.3784 -0.0659  0.3695
10484TIP3    H152867   0.278   2.041   6.087 -0.4985 -1.6922 -0.6008
10484TIP3    H252868   0.378   2.073   6.196 -1.2795  1.9335 -0.8064
10485TIP3   OH252869   5.993   4.471   1.777 -0.0194  0.5319 -0.6127
10485TIP3    H152870   5.911   4.448   1.821 -0.1517  0.2974 -0.9844
10485TIP3    H252871   5.969   4.538   1.713  0.3370  1.6151  0.3530
10486TIP3   OH252872   6.344   6.335  13.226 -0.0421 -0.3133 -0.2449
10486TIP3    H152873   6.361   6.428  13.242  1.1402 -0.3689 -1.0840
10486TIP3    H252874   6.366   6.292  13.309 -0.6829  0.1573  0.1755
10487TIP3   OH252875   1.209   5.963  12.902 -0.1432 -0.2870 -0.1845
10487TIP3    H152876   1.121   5.956  12.940 -0.2462 -0.8489 -0.5245
10487TIP3    H252877   1.265   5.917  12.964 -0.2425 -0.8047 -0.4749
10488TIP3   OH252878   1.047   4.502  16.756 -0.2119  0.0545  0.2887
10488TIP3    H152879   1.066   4.481  16.664 -0.0779 -0.4402  0.4306
10488TIP3    H252880   0.988   4.577  16.751 -1.2806 -0.7938 -0.2343
10489TIP3   OH252881   2.478   1.701   0.833 -0.0269 -0.6098  0.5241
10489TIP3    H152882   2.481   1.704   0.928 -3.6366  0.9559  0.7343
10489TIP3    H252883   2.480   1.608   0.812  2.3072 -0.9622  1.9422
10490TIP3   OH252884   4.416   4.179   2.757  0.8695 -0.2456 -0.0665
10490TIP3    H152885   4.480   4.127   2.804  2.3097 -0.6556 -2.3081
10490TIP3    H252886   4.403   4.133   2.674  2.5027  3.0066 -2.3650
10491TIP3   OH252887   6.196   6.389   1.975 -0.3703 -0.2466 -0.3396
10491TIP3    H152888   6.123   6.387   1.913 -1.7176 -1.7109  1.1941
10491TIP3    H252889   6.251   6.314   1.949 -1.3015 -1.2884  0.5968
10492TIP3   OH252890   1.970   5.978   4.496 -0.7725 -0.1113 -0.4671
10492TIP3    H152891   1.961   6.050   4.559 -1.3402 -0.3665 -0.2547
10492TIP3    H252892   2.020   6.016   4.424 -0.5018  0.3137 -0.0641
10493TIP3   OH252893   2.149   6.125  13.467  0.3746  0.0430 -0.9481
10493TIP3    H152894   2.196   6.139  13.549 -0.6911  0.8067 -0.4427
10493TIP3    H252895   2.082   6.194  13.465 -0.9374 -1.1857 -1.4698
10494TIP3   OH252896   5.131   1.947  11.399 -0.3920  0.0679 -0.3672
10494TIP3    H152897   5.124   2.040  11.420 -0.8951 -0.2055  0.7550
10494TIP3    H252898   5.043   1.912  11.414  0.3771 -1.1120  2.0030
10495TIP3   OH252899   6.182   0.463   3.148  0.4356 -0.1000  0.4077
10495TIP3    H152900   6.136   0.541   3.116 -1.8259 -1.1488  0.9145
10495TIP3    H252901   6.160   0.458   3.241  0.5292 -1.3558  0.3741
10496TIP3   OH252902   5.775   1.193  15.647  0.2878  0.1950 -0.3593
10496TIP3    H152903   5.760   1.098  15.655 -0.4268  0.1241 -1.9937
10496TIP3    H252904   5.860   1.200  15.602  1.4903  0.4220  1.8335
10497TIP3   OH252905   3.916   4.265  12.902 -0.5612  0.5148 -0.3162
10497TIP3    H152906   3.941   4.181  12.865 -0.5527  0.7146 -0.7633
10497TIP3    H252907   3.860   4.306  12.836 -0.7620  0.7600 -0.0037
10498TIP3   OH252908   4.713   1.529  15.023 -0.0586 -0.1178  0.1181
10498TIP3    H152909   4.710   1.591  14.949 -0.0208  0.5923  0.6952
10498TIP3    H252910   4.650   1.461  15.000  1.0973 -0.7678 -1.3064
10499TIP3   OH252911   2.363   0.969  14.004 -0.3362 -0.5409 -0.4518
10499TIP3    H152912   2.345   0.903  14.071 -0.0560 -1.1676 -0.9770
10499TIP3    H252913   2.343   1.052  14.046  0.8987 -0.8291  0.7969
10500TIP3   OH252914   5.527   2.410  16.029  0.0435  0.5483 -0.3114
10500TIP3    H152915   5.555   2.491  15.986  0.4535  0.4125 -0.3039
10500TIP3    H252916   5.528   2.431  16.122  2.5438 -0.1787 -0.1288
10501TIP3   OH252917   3.787   5.225  12.554  0.0850 -0.1476  0.4105
10501TIP3    H152918   3.756   5.308  12.518 -0.5652 -0.9962 -1.1250
10501TIP3    H252919   3.760   5.226  12.645 -1.9697  0.3950 -0.1490
10502TIP3   OH252920   4.068   1.293   6.401 -0.8062  0.4128  0.3463
10502TIP3    H152921   4.108   1.337   6.326 -1.8400  1.7891  0.5632
10502TIP3    H252922   4.134   1.229   6.429 -0.7714 -0.8511 -2.3129
10503TIP3   OH252923   3.902   0.698   4.953  0.2581  0.2225 -0.0357
10503TIP3    H152924   3.976   0.709   4.894 -0.3225  1.0247 -0.6430
10503TIP3    H252925   3.839   0.764   4.925  0.0634  0.8096  1.6559
10504TIP3   OH252926   2.977   5.547   0.243 -0.0731 -0.1302  0.2293
10504TIP3    H152927   3.031   5.473   0.270 -0.3046 -0.6680 -0.7206
10504TIP3    H252928   2.900   5.544   0.299  0.6184  0.3337  1.2449
10505TIP3   OH252929   2.452   0.799  15.212  0.9939  0.1957  0.1605
10505TIP3    H152930   2.381   0.862  15.217  0.9451  0.3017 -1.4124
10505TIP3    H252931   2.410   0.715  15.194  1.1589 -0.0618  0.9169
10506TIP3   OH252932   0.229   3.301   2.600  0.3796 -0.2607  0.0045
10506TIP3    H152933   0.207   3.207   2.601 -1.7184  0.1689  1.6810
10506TIP3    H252934   0.144   3.345   2.595  1.1263  1.5628  1.9745
10507TIP3   OH252935   5.768   5.761   4.153 -0.8707 -0.1077 -0.8933
10507TIP3    H152936   5.767   5.856   4.149 -1.3902 -0.1372 -1.9603
10507TIP3    H252937   5.855   5.736   4.122 -0.0141  0.0499  1.2523
10508TIP3   OH252938   0.013   5.095   0.650  0.2547 -0.1385 -0.0447
10508TIP3    H152939   0.075   5.064   0.584 -1.1962 -1.6297 -0.7550
10508TIP3    H252940  -0.036   5.165   0.606 -1.3840 -1.7849 -0.9765
10509TIP3   OH252941   1.966   4.797   0.057  0.1276  0.2320 -0.2191
10509TIP3    H152942   1.999   4.807  -0.032  0.9069 -1.2571 -0.1307
10509TIP3    H252943   1.874   4.824   0.052  0.0490 -0.2300 -1.5731
10510TIP3   OH252944   6.363   2.606   2.244  0.6622  0.1830 -0.5343
10510TIP3    H152945   6.432   2.559   2.290 -0.7390 -2.3120 -0.8070
10510TIP3    H252946   6.397   2.618   2.155  0.8538 -0.9135 -0.6300
10511TIP3   OH252947   4.586   3.974   5.972 -0.2894  0.6836 -0.0404
10511TIP3    H152948   4.533   4.052   5.990 -0.7216  0.8065 -1.7162
10511TIP3    H252949   4.524   3.902   5.971 -0.0622  0.4783  0.3294
10512TIP3   OH252950   1.917   0.189   3.769 -0.1010 -0.5297 -0.0013
10512TIP3    H152951   1.879   0.277   3.772 -1.5400 -1.1267  0.3124
10512TIP3    H252952   1.843   0.132   3.750  1.0244 -1.5666 -1.5342
10513TIP3   OH252953   1.181   5.793   1.959  0.3088  0.1878 -0.0941
10513TIP3    H152954   1.128   5.784   2.038 -0.6856 -1.6000 -0.8888
10513TIP3    H252955   1.125   5.844   1.899  0.0255 -0.5439 -0.4651
10514TIP3   OH252956   2.195   5.726   5.265  0.0977  0.1997 -0.0635
10514TIP3    H152957   2.262   5.776   5.218 -0.0158 -0.3020 -0.7827
10514TIP3    H252958   2.165   5.660   5.201 -0.7439  0.1170  0.3997
10515TIP3   OH252959   3.083   1.770  16.322 -0.2515 -1.1348  0.1536
10515TIP3    H152960   3.120   1.712  16.255 -0.5195 -1.4969  0.3144
10515TIP3    H252961   3.133   1.752  16.401  1.1166  0.4031 -0.2943
10516TIP3   OH252962   0.769   2.767   1.993  0.1489  0.1123 -0.7050
10516TIP3    H152963   0.716   2.841   1.963 -0.8064 -0.0752  0.4202
10516TIP3    H252964   0.704   2.702   2.019  0.8933  0.1910  1.5241
10517TIP3   OH252965   0.064   4.693   5.223  0.3893 -0.1497  0.2900
10517TIP3    H152966   0.106   4.632   5.284 -0.1869 -0.6205  0.2334
10517TIP3    H252967  -0.027   4.697   5.253  0.0934 -0.4057 -0.5403
10518TIP3   OH252968   6.482   2.064  17.075  0.4628 -0.3629  0.2045
10518TIP3    H152969   6.526   1.989  17.033 -1.3791 -1.6776  0.5067
10518TIP3    H252970   6.394   2.062  17.039 -0.2207  0.4282  1.7807
10519TIP3   OH252971   5.096   0.858   6.681 -0.2081 -0.0929 -0.2117
10519TIP3    H152972   5.054   0.941   6.655 -0.2685 -0.1547 -0.3124
10519TIP3    H252973   5.169   0.885   6.736 -1.1406 -0.0285  1.0488
10520TIP3   OH252974   0.892   3.182   5.682 -0.1040 -0.2852  0.2934
10520TIP3    H152975   0.820   3.187   5.745 -1.1084 -0.6737 -0.8039
10520TIP3    H252976   0.925   3.092   5.692  0.5636  0.0389  1.1343
10521TIP3   OH252977   3.827   2.128  12.901  0.4037 -0.1902  0.2125
10521TIP3    H152978   3.908   2.098  12.943 -0.3173  0.3843  2.1072
10521TIP3    H252979   3.845   2.218  12.877 -0.0345  0.3358  1.7483
10522TIP3   OH252980   4.657   6.529   2.320  0.4302  0.3983  0.4247
10522TIP3    H152981   4.727   6.543   2.384  1.0544 -0.6212 -0.0126
10522TIP3    H252982   4.581   6.573   2.358  1.0780  0.7979  1.3135
10523TIP3   OH252983   1.771   4.162  15.483  0.2537  0.1836 -0.1398
10523TIP3    H152984   1.755   4.128  15.395  1.7139  0.2848 -0.4694
10523TIP3    H252985   1.845   4.221  15.473 -1.5343  2.7100  0.6147
10524TIP3   OH252986   4.142   6.715  10.485  0.5015 -0.2892  0.2593
10524TIP3    H152987   4.137   6.686  10.576 -0.8894  1.3768  0.7700
10524TIP3    H252988   4.096   6.647  10.436  0.5771 -0.8170  0.8949
10525TIP3   OH252989   1.482   2.990  16.131 -0.1079  0.8967  0.3301
10525TIP3    H152990   1.487   3.026  16.220  2.8974  3.4888 -0.6595
10525TIP3    H252991   1.549   2.922  16.128 -1.1589 -0.1652  0.3768
10526TIP3   OH252992   6.673   0.789   3.006 -0.1636 -0.3359 -0.2129
10526TIP3    H152993   6.740   0.851   2.976 -1.4131  0.2052 -2.0671
10526TIP3    H252994   6.721   0.724   3.058  1.6090  0.6183 -0.6001
10527TIP3   OH252995   2.236   6.252   4.435  0.2328 -0.1293  0.2942
10527TIP3    H152996   2.229   6.161   4.409  0.8831 -0.6397  1.8052
10527TIP3    H252997   2.330   6.267   4.447  0.0228  0.2627  1.6216
10528TIP3   OH252998   3.758   6.750  14.014  0.0627 -0.3774  0.2381
10528TIP3    H152999   3.809   6.752  14.095 -0.0463  1.4247  0.2977
10528TIP3    H253000   3.735   6.658  14.002  3.1966 -1.2786  0.2768
10529TIP3   OH253001   1.461   5.389  14.282  0.0327 -0.5000  0.2744
10529TIP3    H153002   1.477   5.368  14.190 -0.9601  1.1182 -0.3048
10529TIP3    H253003   1.371   5.360  14.298  0.0783 -0.4450  0.6389
10530TIP3   OH253004   0.311   0.471  13.265  0.6388  0.2343  0.5057
10530TIP3    H153005   0.280   0.432  13.347 -1.0523 -0.5266 -0.4368
10530TIP3    H253006   0.278   0.413  13.197  1.8498  0.9510 -0.7398
10531TIP3   OH253007   4.915   4.430  12.377 -0.2667  0.4672  0.5408
10531TIP3    H153008   4.943   4.459  12.290  0.2786  0.8412  0.8364
10531TIP3    H253009   4.856   4.499  12.407  1.8382  1.8626  1.6771
10532TIP3   OH253010   2.109   2.471  12.270 -0.0431  0.0008  0.4562
10532TIP3    H153011   2.040   2.405  12.273 -0.6440  0.5670 -0.4658
10532TIP3    H253012   2.188   2.422  12.248 -0.0204 -0.7335  2.0098
10533TIP3   OH253013   6.669   1.006   5.290  0.5178  0.5566 -0.0134
10533TIP3    H153014   6.740   1.067   5.309  1.5195 -0.0933 -1.4695
10533TIP3    H253015   6.706   0.944   5.228 -1.0429 -0.4064 -0.0537
10534TIP3   OH253016   1.726   6.000  17.148 -0.2240 -0.3025  0.2510
10534TIP3    H153017   1.801   6.005  17.208  1.8659  2.1303 -2.2914
10534TIP3    H253018   1.650   6.021  17.203  1.4627  1.0603  2.2210
10535TIP3   OH253019   0.577   4.821  15.436 -0.1258 -0.3082  0.1270
10535TIP3    H153020   0.567   4.741  15.384  0.4387  0.0225 -0.4950
10535TIP3    H253021   0.547   4.795  15.524 -1.9540 -0.6112 -0.5444
10536TIP3   OH253022   1.918   3.102   0.640  0.4511  0.5190  0.9404
10536TIP3    H153023   2.001   3.142   0.616 -1.1143  3.4391 -0.0474
10536TIP3    H253024   1.923   3.091   0.735  2.0064  0.4869  0.8714
10537TIP3   OH253025   3.481   2.710   2.177  0.0187 -0.0998  0.2127
10537TIP3    H153026   3.398   2.663   2.172 -0.0799 -0.1317  1.7470
10537TIP3    H253027   3.522   2.697   2.091 -2.1577  1.0789 -1.0901
10538TIP3   OH253028   2.977   6.548  14.572  0.0493 -0.1219 -0.4885
10538TIP3    H153029   2.979   6.464  14.526  0.0390  0.1508 -0.9983
10538TIP3    H253030   2.963   6.613  14.503  0.5662  0.3445 -0.1708
10539TIP3   OH253031   5.166   6.580   2.458  0.2684  0.3580 -0.2767
10539TIP3    H153032   5.111   6.533   2.521  0.5288 -0.8875 -0.9459
10539TIP3    H253033   5.130   6.669   2.457 -2.1565 -0.5366 -1.1221
10540TIP3   OH253034   4.413   4.069  14.696 -0.3465  0.6362 -0.4918
10540TIP3    H153035   4.387   4.135  14.631 -0.6864  0.1703 -0.8396
10540TIP3    H253036   4.508   4.064  14.687 -0.4435  0.1861 -1.3450
10541TIP3   OH253037   1.606   4.639  11.983  0.3921  0.5692  0.3148
10541TIP3    H153038   1.607   4.598  12.069 -0.7342 -0.6776 -0.2302
10541TIP3    H253039   1.635   4.570  11.923 -3.1269 -0.1080 -0.8424
10542TIP3   OH253040   0.094   6.563  13.532 -0.4275  0.4888 -0.4415
10542TIP3    H153041   0.057   6.512  13.604 -1.2775  1.0329 -0.4756
10542TIP3    H253042   0.159   6.619  13.573 -1.0115  0.9025 -0.0604
10543TIP3   OH253043   0.283   5.649   3.103 -0.1296 -0.0165 -0.2679
10543TIP3    H153044   0.353   5.701   3.141  1.0847 -1.1700 -0.8406
10543TIP3    H253045   0.234   5.615   3.178 -1.7804  2.8827  0.1374
10544TIP3   OH253046   5.237   6.261   4.772  0.1984  0.2485  0.2102
10544TIP3    H153047   5.177   6.320   4.818 -0.1881 -0.0580  0.1012
10544TIP3    H253048   5.243   6.299   4.684  2.8531  2.2536  1.1484
10545TIP3   OH253049   5.612   1.675   1.189 -0.1842 -0.1530 -0.4884
10545TIP3    H153050   5.564   1.593   1.179 -0.2711 -0.0974 -0.5252
10545TIP3    H253051   5.544   1.742   1.201 -0.1473  0.0588 -1.4216
10546TIP3   OH253052   5.790   2.883  16.859 -0.6586  0.2557 -0.0561
10546TIP3    H153053   5.799   2.975  16.882 -0.5993 -0.2360  2.1209
10546TIP3    H253054   5.701   2.860  16.888 -0.0084 -0.7956  1.2199
10547TIP3   OH253055   2.386   5.429  14.778 -0.1782 -0.2172  0.0591
10547TIP3    H153056   2.416   5.364  14.714  0.3263 -0.8020  0.8689
10547TIP3    H253057   2.457   5.434  14.842 -0.3611  0.8847  0.1982
10548TIP3   OH253058   1.166   3.014  11.981 -0.0381  0.1655 -0.0060
10548TIP3    H153059   1.167   3.048  12.071  1.1726 -2.0071  0.8849
10548TIP3    H253060   1.144   3.090  11.927 -1.0379  1.4950  2.1251
10549TIP3   OH253061   3.895   2.363   6.060  0.1411 -0.5290 -0.1285
10549TIP3    H153062   3.933   2.330   5.979 -0.5730 -1.2900 -0.1619
10549TIP3    H253063   3.955   2.331   6.129 -1.2485 -3.1842 -0.0158
10550TIP3   OH253064   6.544   3.091  13.351  0.2201  0.2605  0.0087
10550TIP3    H153065   6.610   3.022  13.344  0.0579 -0.0763  1.5754
10550TIP3    H253066   6.460   3.046  13.347  0.1104  0.4109  0.5479
10551TIP3   OH253067   3.647   3.606  12.416  0.0343 -0.0306 -0.2244
10551TIP3    H153068   3.592   3.670  12.372  0.5664 -0.5458 -1.6830
10551TIP3    H253069   3.586   3.554  12.468 -0.6126  0.5595 -0.3856
10552TIP3   OH253070   6.724   0.392  12.552 -0.1879  0.2744  0.0026
10552TIP3    H153071   6.645   0.343  12.573  0.3175 -0.8966 -0.7643
10552TIP3    H253072   6.713   0.417  12.460 -0.4562  1.6587  0.3878
10553TIP3   OH253073   2.826   1.710   2.358  0.3900 -0.1468 -0.0484
10553TIP3    H153074   2.825   1.745   2.269  1.9199 -1.7004 -0.7289
10553TIP3    H253075   2.895   1.760   2.403  0.5198 -0.2469 -0.1345
10554TIP3   OH253076   5.534   1.712  16.356 -0.2200  0.3988 -0.1678
10554TIP3    H153077   5.453   1.754  16.326  0.7323  2.1525 -0.4142
10554TIP3    H253078   5.508   1.622  16.376 -2.1676  0.8360 -0.4957
10555TIP3   OH253079   4.994   6.670   4.996 -0.4709  0.1954  0.1354
10555TIP3    H153080   5.002   6.752   4.948 -0.5561 -1.3324 -2.7129
10555TIP3    H253081   5.085   6.643   5.013 -0.3638 -0.2815 -1.1252
10556TIP3   OH253082   1.562   1.357  15.465 -0.3212 -0.3519  0.2724
10556TIP3    H153083   1.572   1.405  15.547  0.6211  0.1636 -0.1216
10556TIP3    H253084   1.533   1.270  15.491  1.9139 -0.8474  1.3417
10557TIP3   OH253085   4.621   3.655  11.416  0.0528 -0.3461 -0.1651
10557TIP3    H153086   4.650   3.646  11.507 -1.2836 -2.2287  0.1561
10557TIP3    H253087   4.696   3.626  11.364  0.3432 -0.6336  0.4029
10558TIP3   OH253088   5.943   4.783  10.699 -0.0701  0.3858 -0.4367
10558TIP3    H153089   5.938   4.876  10.678  0.5749  0.4742 -0.2334
10558TIP3    H253090   6.024   4.774  10.750 -1.1835  0.0683  1.3913
10559TIP3   OH253091   5.946   6.415   0.191 -0.2558 -0.5420  0.6979
10559TIP3    H153092   5.898   6.470   0.129  0.7124  0.9029  1.2050
10559TIP3    H253093   5.892   6.336   0.199 -2.0311  0.5973  0.4875
10560TIP3   OH253094   1.719   2.944   4.765 -0.3353  0.1615 -0.1427
10560TIP3    H153095   1.748   2.929   4.855 -1.4868 -0.0367  0.2121
10560TIP3    H253096   1.794   2.921   4.711  0.5383  0.7477  0.7865
10561TIP3   OH253097   1.180   3.238  16.369 -0.1622 -0.0208 -0.1084
10561TIP3    H153098   1.201   3.273  16.282 -0.7864 -1.2614 -0.7919
10561TIP3    H253099   1.170   3.144  16.355  1.2886 -0.4985  1.6162
10562TIP3   OH253100   2.922   0.798  16.274  0.2748 -0.1309  0.3505
10562TIP3    H153101   2.937   0.887  16.306  1.2482  0.2600 -1.0803
10562TIP3    H253102   2.832   0.799  16.241  0.3940  0.4148  0.0394
10563TIP3   OH253103   2.092   6.752  15.304  0.5725  0.4283  0.4683
10563TIP3    H153104   2.017   6.744  15.363 -1.1269  1.7119 -1.3945
10563TIP3    H253105   2.110   6.846  15.299 -0.1492  0.5109 -1.9355
10564TIP3   OH253106   0.172   1.972   5.317  0.0773  0.2173  0.0755
10564TIP3    H153107   0.170   1.956   5.411  1.0957 -1.2274 -0.1179
10564TIP3    H253108   0.240   1.913   5.283 -3.0610 -2.5369 -2.1297
10565TIP3   OH253109   0.940   4.916  13.450 -0.1694  0.2487  0.0353
10565TIP3    H153110   0.978   4.997  13.416 -1.2915  0.4679 -0.7778
10565TIP3    H253111   1.005   4.882  13.511  0.3720  1.7000  0.3015
10566TIP3   OH253112   1.174   5.242   2.417  0.0269 -0.2175 -0.4000
10566TIP3    H153113   1.244   5.195   2.371  0.6357 -0.2287  0.5089
10566TIP3    H253114   1.216   5.277   2.495 -0.5862  1.2675 -0.6960
10567TIP3   OH253115   3.150   1.125  13.628  0.2123  0.3361 -0.1936
10567TIP3    H153116   3.239   1.090  13.637 -0.0468 -0.2953 -0.0283
10567TIP3    H253117   3.111   1.116  13.715 -0.3019 -0.2035 -0.4715
10568TIP3   OH253118   3.588   2.118  14.335 -0.3998 -0.1392  0.4356
10568TIP3    H153119   3.552   2.188  14.389 -1.1472 -0.0515 -0.1487
10568TIP3    H253120   3.648   2.162  14.276 -1.9172  0.2690 -0.8864
10569TIP3   OH253121   6.628   6.353   5.166 -0.1107  0.6202 -0.1516
10569TIP3    H153122   6.558   6.377   5.226 -1.2209  2.2221 -1.9645
10569TIP3    H253123   6.614   6.259   5.150  0.3565  0.0966  2.1596
10570TIP3   OH253124   4.199   2.954   3.373 -0.4048 -0.3076  0.0223
10570TIP3    H153125   4.129   2.921   3.429 -1.2495 -1.9857 -1.8831
10570TIP3    H253126   4.184   3.048   3.368 -0.4995 -0.1433  2.2496
10571TIP3   OH253127   0.083   2.086   6.193  0.5499  0.1494 -0.9304
10571TIP3    H153128   0.109   2.166   6.238 -2.5729  0.3999  0.6717
10571TIP3    H253129   0.089   2.018   6.260 -0.9576 -0.1048 -1.0166
10572TIP3   OH253130   2.646   1.759  11.290 -0.1285 -0.2991 -0.1530
10572TIP3    H153131   2.587   1.686  11.306 -0.7522 -0.0517 -1.2688
10572TIP3    H253132   2.607   1.808  11.217  1.2537  0.0724 -0.6935
10573TIP3   OH253133   1.174   6.032   4.423 -0.7395 -0.6633  0.3562
10573TIP3    H153134   1.097   6.007   4.373  0.0966 -0.3403 -1.1483
10573TIP3    H253135   1.156   6.122   4.450  0.7022  1.0201 -3.5314
10574TIP3   OH253136   4.897   0.811  15.973 -0.5145  0.0608 -0.2822
10574TIP3    H153137   4.952   0.785  16.046 -1.3310  1.5282  0.9096
10574TIP3    H253138   4.949   0.876  15.925  0.6161 -1.9550 -1.9412
10575TIP3   OH253139   4.494   2.536   3.938 -0.0815 -0.5050 -0.4944
10575TIP3    H153140   4.434   2.584   3.995  1.2642  0.8852 -0.1673
10575TIP3    H253141   4.465   2.558   3.849  0.1885  0.5146 -0.3442
10576TIP3   OH253142   1.555   6.544   0.057  1.1025  0.1047 -0.1120
10576TIP3    H153143   1.648   6.562   0.072  1.1859 -2.1910  3.0412
10576TIP3    H253144   1.554   6.463   0.005  0.7886  0.8419 -1.3074
10577TIP3   OH253145   2.376   6.751   4.764 -0.2708 -0.0666 -0.3699
10577TIP3    H153146   2.288   6.775   4.793  0.1713 -0.2611  1.1711
10577TIP3    H253147   2.435   6.802   4.819  0.5990 -0.1113 -1.2388
10578TIP3   OH253148   1.059   1.949  15.923 -0.0666 -0.3073  0.1398
10578TIP3    H153149   1.042   2.031  15.878  0.4949 -0.0793  0.3308
10578TIP3    H253150   1.022   1.882  15.866 -1.5234  0.1376  0.5127
10579TIP3   OH253151   2.120   4.845   1.065  0.0536 -0.0454  0.1239
10579TIP3    H153152   2.121   4.894   1.148  0.1291 -1.2382  0.8585
10579TIP3    H253153   2.027   4.835   1.044  0.0573  1.5434 -0.7446
10580TIP3   OH253154   4.716   4.097  11.807  0.2105  0.7371 -0.0033
10580TIP3    H153155   4.799   4.092  11.855 -0.8532  0.2559  1.9154
10580TIP3    H253156   4.667   4.165  11.853 -1.6219 -1.1299  0.9394
10581TIP3   OH253157   6.492   1.347  12.676 -0.1309 -1.0179  0.3429
10581TIP3    H153158   6.469   1.257  12.700  0.4119 -1.0545  0.7486
10581TIP3    H253159   6.408   1.392  12.666 -0.3932 -1.3721  0.9114
10582TIP3   OH253160   5.792   2.532   5.467  0.3652 -0.0026 -0.3848
10582TIP3    H153161   5.740   2.606   5.435  0.4541  1.2716  2.1032
10582TIP3    H253162   5.728   2.475   5.510  0.6375  0.2353  0.3715
10583TIP3   OH253163   0.437   6.130  12.398  0.2185  0.1953  0.0032
10583TIP3    H153164   0.530   6.118  12.381  0.5399  0.8183  1.2079
10583TIP3    H253165   0.418   6.219  12.368 -0.1777 -0.1711 -0.9004
10584TIP3   OH253166   3.520   0.674   4.970 -0.3200  0.1659 -0.0451
10584TIP3    H153167   3.499   0.638   4.884 -1.5443 -2.1106  1.1319
10584TIP3    H253168   3.572   0.752   4.950  0.5076 -0.9430 -2.8079
10585TIP3   OH253169   4.754   0.088   2.247  0.7476  0.1155  0.7427
10585TIP3    H153170   4.707   0.158   2.200 -1.1983 -1.0372  0.8845
10585TIP3    H253171   4.832   0.072   2.194 -0.3914  0.2342 -1.0457
10586TIP3   OH253172   3.418   0.769   5.247  0.5037  0.3455 -0.1175
10586TIP3    H153173   3.458   0.684   5.227  0.2688  0.2447 -0.1566
10586TIP3    H253174   3.397   0.806   5.162 -2.4549 -1.0042 -0.0913
10587TIP3   OH253175   5.044   3.817   3.239  0.0454  0.1056  0.3636
10587TIP3    H153176   5.130   3.858   3.252  0.1163 -0.8714  3.8851
10587TIP3    H253177   5.062   3.740   3.185  0.9187  1.2040 -0.9914
10588TIP3   OH253178   5.432   4.634  14.776 -0.3495 -0.1451 -0.2238
10588TIP3    H153179   5.368   4.633  14.705 -0.1309 -2.1085 -0.4739
10588TIP3    H253180   5.508   4.678  14.739 -1.1463  1.2520 -0.2802
10589TIP3   OH253181   1.821   1.451   0.876  0.3560  0.0720 -0.0637
10589TIP3    H153182   1.808   1.429   0.968 -0.7212  1.5552  0.1835
10589TIP3    H253183   1.785   1.376   0.828  1.4329 -0.9659  0.6861
10590TIP3   OH253184   2.349   6.147  14.062  0.0070  0.3287  0.3438
10590TIP3    H153185   2.379   6.074  14.008 -2.0318  0.9209 -1.7447
10590TIP3    H253186   2.311   6.105  14.140  0.3355 -0.7419 -0.0564
10591TIP3   OH253187   0.591   0.331  12.525  0.6117  0.1351 -0.1746
10591TIP3    H153188   0.634   0.413  12.502  1.1937  0.0904  0.7124
10591TIP3    H253189   0.601   0.325  12.620 -0.3765 -0.4310 -0.0935
10592TIP3   OH253190   2.862   5.945   1.290  0.2012  0.0914  0.3565
10592TIP3    H153191   2.869   5.857   1.253 -1.3683  0.4149 -0.8021
10592TIP3    H253192   2.773   5.973   1.269  0.5625  1.8378  0.9858
10593TIP3   OH253193   5.771   0.366  13.642 -0.9584 -0.6179 -0.5625
10593TIP3    H153194   5.693   0.420  13.633  0.6392  2.2982  1.3770
10593TIP3    H253195   5.816   0.376  13.558 -1.4685 -0.2493 -0.7985
10594TIP3   OH253196   1.080   0.454   2.395  0.3116  0.7792 -0.1276
10594TIP3    H153197   1.143   0.490   2.332 -0.2840  1.4604 -0.3335
10594TIP3    H253198   1.051   0.372   2.354  0.6499  0.7334 -0.2846
10595TIP3   OH253199   2.848   4.083  14.429  0.6051  0.4852  0.0428
10595TIP3    H153200   2.892   4.167  14.447 -0.4248  0.9261  0.5839
10595TIP3    H253201   2.790   4.102  14.355 -1.0139  0.7828  1.3273
10596TIP3   OH253202   6.663   3.007   1.067  0.2000  0.2504  0.4809
10596TIP3    H153203   6.755   3.022   1.044 -0.1046  1.3302 -0.1154
10596TIP3    H253204   6.644   2.919   1.035  0.7912  0.3580 -0.1774
10597TIP3   OH253205   1.406   1.926   6.415  0.1412  0.1337  0.0922
10597TIP3    H153206   1.369   1.837   6.414 -0.3286  0.3184  0.6914
10597TIP3    H253207   1.432   1.939   6.506 -1.9289  1.4728  0.5580
10598TIP3   OH253208   2.125   5.567   4.821  0.1954  0.2514  0.7923
10598TIP3    H153209   2.094   5.627   4.754 -0.1158 -1.3637 -0.5729
10598TIP3    H253210   2.212   5.540   4.792 -0.4304 -1.3998  0.3402
10599TIP3   OH253211   4.358   1.930   4.587 -0.1831 -0.0156  0.6342
10599TIP3    H153212   4.325   1.910   4.675 -0.2152  1.3822  0.9550
10599TIP3    H253213   4.385   1.845   4.552 -0.5138 -0.6444  1.8520
10600TIP3   OH253214   1.364   5.122   0.671  0.2602  0.5870 -0.4251
10600TIP3    H153215   1.374   5.029   0.694  0.4747 -0.3985 -3.8914
10600TIP3    H253216   1.293   5.153   0.727 -0.2196 -1.8507  0.4528
10601TIP3   OH253217   2.488   2.438   4.977  0.3758 -0.2042 -0.8224
10601TIP3    H153218   2.420   2.464   4.915  0.1589  0.5573 -0.2881
10601TIP3    H253219   2.527   2.520   5.006  0.6143 -0.5551 -0.1136
10602TIP3   OH253220   2.964   6.154   0.276 -0.7042 -0.4447 -0.8173
10602TIP3    H153221   2.888   6.185   0.227 -0.1077  1.2071 -0.7627
10602TIP3    H253222   2.960   6.203   0.358  0.7428  0.1526 -1.0737
10603TIP3   OH253223   5.670   4.133  15.947 -0.1781  0.6562  0.5911
10603TIP3    H153224   5.589   4.174  15.915 -0.7535 -1.1620 -0.4388
10603TIP3    H253225   5.733   4.147  15.876 -0.5634 -0.7015 -0.0628
10604TIP3   OH253226   1.893   5.435   3.561  0.6550  0.2301  0.4025
10604TIP3    H153227   1.812   5.384   3.554 -0.2568  1.5515  0.9243
10604TIP3    H253228   1.954   5.376   3.606  0.1872 -0.9807 -0.4782
10605TIP3   OH253229   4.456   4.492  13.306  0.0317 -0.0746 -0.6031
10605TIP3    H153230   4.453   4.412  13.254  0.3210  0.5517 -1.6032
10605TIP3    H253231   4.364   4.518  13.314  0.0338  0.2315 -1.4595
10606TIP3   OH253232   2.970   5.818  13.803  0.0867  0.7648 -0.0701
10606TIP3    H153233   2.965   5.900  13.755 -0.3601  0.3010 -0.8261
10606TIP3    H253234   2.941   5.841  13.892  0.8261  1.5974 -0.0260
10607TIP3   OH253235   2.631   0.899  12.691  0.1476  0.3337 -0.1169
10607TIP3    H153236   2.564   0.833  12.670  0.1535  0.1756  0.3645
10607TIP3    H253237   2.618   0.919  12.783  2.1715 -1.3454  0.6108
10608TIP3   OH253238   2.462   4.020   0.323  0.0008 -0.2662 -0.4522
10608TIP3    H153239   2.426   4.080   0.258 -0.7164 -0.3328 -0.1129
10608TIP3    H253240   2.557   4.026   0.310  0.0417  1.8773  0.4000
10609TIP3   OH253241   3.253   0.710  13.710  0.3939  0.1268 -0.0807
10609TIP3    H153242   3.345   0.694  13.688  0.1342 -1.3753 -0.1615
10609TIP3    H253243   3.247   0.691  13.804  0.1830  0.2802 -0.0630
10610TIP3   OH253244   1.199   2.656  12.720  0.0025  0.0076  0.1206
10610TIP3    H153245   1.191   2.710  12.642  1.5275 -3.0632 -2.3633
10610TIP3    H253246   1.246   2.711  12.783  0.8178  1.8088 -1.9661
10611TIP3   OH253247   6.587   2.933   2.141  0.3308 -0.0844 -0.0285
10611TIP3    H153248   6.632   2.994   2.082 -1.0209 -0.8357 -1.9191
10611TIP3    H253249   6.658   2.889   2.188  1.4563  0.5384 -1.0861
10612TIP3   OH253250   4.789   1.451   3.946 -0.2661 -0.8440 -0.3241
10612TIP3    H153251   4.860   1.506   3.911 -0.9479 -0.7628 -1.6403
10612TIP3    H253252   4.804   1.365   3.907 -1.7786 -0.4339 -1.9645
10613TIP3   OH253253   5.717   4.312  16.682  0.3606  0.2782 -0.1965
10613TIP3    H153254   5.645   4.356  16.727  1.8944  2.5976  0.1630
10613TIP3    H253255   5.698   4.218  16.692 -2.1019  0.7929  0.6236
10614TIP3   OH253256   5.933   3.764  10.985 -0.2658  0.2500  0.1711
10614TIP3    H153257   5.863   3.825  11.008 -1.5222 -1.2455  0.5120
10614TIP3    H253258   6.014   3.811  11.005 -1.1525  1.9372  0.0162
10615TIP3   OH253259   4.082   2.917  15.552  0.2977  0.0745 -0.7669
10615TIP3    H153260   4.168   2.881  15.574  0.4628 -1.4416 -3.4318
10615TIP3    H253261   4.101   2.982  15.484 -0.6488 -0.5372 -1.6391
10616TIP3   OH253262   4.701   1.650  14.660 -0.3091  0.1700  0.1984
10616TIP3    H153263   4.783   1.602  14.653  0.3043  0.7809  2.3823
10616TIP3    H253264   4.646   1.597  14.717 -1.3684 -0.0942 -1.0180
10617TIP3   OH253265   3.902   5.841   1.686 -0.3942  0.1677  0.2280
10617TIP3    H153266   3.858   5.759   1.708 -0.9065 -0.2010 -1.9276
10617TIP3    H253267   3.887   5.852   1.592  2.5117  1.0061 -0.2519
10618TIP3   OH253268   5.266   4.007  14.182 -0.8560 -0.0711 -0.6201
10618TIP3    H153269   5.218   3.957  14.115  1.3253  1.4650 -3.5725
10618TIP3    H253270   5.353   3.968  14.183  1.2182  3.7187 -3.6462
10619TIP3   OH253271   2.451   5.195  14.660 -0.1689 -0.4442  0.6655
10619TIP3    H153272   2.481   5.158  14.577  0.7843 -0.7007  1.1118
10619TIP3    H253273   2.357   5.209  14.648  0.4320  2.6025 -1.6559
10620TIP3   OH253274   3.098   5.547  12.312  0.1498  0.3327 -0.0051
10620TIP3    H153275   3.061   5.459  12.313  0.3369  0.2555  0.1682
10620TIP3    H253276   3.106   5.570  12.220 -0.7076  0.5065 -0.0480
10621TIP3   OH253277   0.889   3.153  16.371 -0.0716 -0.3454  0.9093
10621TIP3    H153278   0.980   3.182  16.379 -0.0951 -0.1462  0.4864
10621TIP3    H253279   0.874   3.099  16.448  0.0432  0.5682  1.5795
10622TIP3   OH253280   6.450   3.222   2.861  0.3874 -0.0115 -0.3202
10622TIP3    H153281   6.500   3.303   2.857  0.8933 -0.2773  0.3626
10622TIP3    H253282   6.445   3.201   2.955 -3.5711  1.5495 -0.0069
10623TIP3   OH253283   3.283   3.202  16.039  0.4146  0.5843 -0.5303
10623TIP3    H153284   3.268   3.295  16.056  1.3140  0.3469  1.9085
10623TIP3    H253285   3.195   3.165  16.030 -0.0431  1.3594  0.5009
10624TIP3   OH253286   3.406   4.890  13.326 -0.0294 -0.0398  0.0439
10624TIP3    H153287   3.344   4.828  13.364 -1.5840  1.6974  0.4710
10624TIP3    H253288   3.421   4.859  13.237 -0.6031 -1.1230  0.3161
10625TIP3   OH253289   1.777   0.413  16.339  0.0378 -0.2702  0.6811
10625TIP3    H153290   1.739   0.374  16.260  1.9831  1.9786 -1.5790
10625TIP3    H253291   1.777   0.343  16.403 -0.8177 -2.5260 -1.6203
10626TIP3   OH253292   3.868   1.921   5.429  0.1203  0.1510 -0.2314
10626TIP3    H153293   3.959   1.915   5.400 -0.2381 -0.0142 -1.3611
10626TIP3    H253294   3.866   1.999   5.485  0.5691  1.2766 -1.7302
10627TIP3   OH253295   6.222   5.708  16.841 -0.2791 -0.6941 -0.4776
10627TIP3    H153296   6.248   5.709  16.748  0.0610 -0.9061 -0.3864
10627TIP3    H253297   6.305   5.701  16.889 -0.4947 -1.2155 -0.1762
10628TIP3   OH253298   3.022   0.975   2.471 -0.1001  0.6620 -0.1015
10628TIP3    H153299   2.928   0.959   2.460  0.1576  0.4187 -2.4765
10628TIP3    H253300   3.051   0.902   2.526 -0.9581 -0.5658 -1.1806
10629TIP3   OH253301   2.736   5.617  16.045 -0.5130 -0.0215 -0.1252
10629TIP3    H153302   2.706   5.695  16.092 -2.2978  0.3452 -1.7749
10629TIP3    H253303   2.725   5.545  16.108  1.6260  1.0129  1.5931
10630TIP3   OH253304   3.634   3.490  12.873 -0.5143  0.2074  0.0383
10630TIP3    H153305   3.687   3.496  12.793  2.2401 -3.2451  1.3124
10630TIP3    H253306   3.570   3.421  12.853 -1.1129  0.7193  0.1853
10631TIP3   OH253307   2.873   4.316   4.809  0.1386 -0.4022 -0.1044
10631TIP3    H153308   2.954   4.352   4.845  0.3447 -1.5821  0.6655
10631TIP3    H253309   2.830   4.390   4.767  1.3780  0.3491 -0.0914
10632TIP3   OH253310   3.854   3.247  12.169 -0.4073 -0.5087 -0.0103
10632TIP3    H153311   3.928   3.264  12.110 -0.3175 -0.6722  0.0553
10632TIP3    H253312   3.781   3.293  12.128 -0.0834  0.3646  0.3586
10633TIP3   OH253313   2.782   3.451   3.282  0.5611 -0.3541  0.5331
10633TIP3    H153314   2.796   3.383   3.348  1.2622 -1.7885 -1.0141
10633TIP3    H253315   2.782   3.533   3.331  0.9748 -1.3654  2.3077
10634TIP3   OH253316   4.774   5.617  11.099  0.2406  0.0971 -0.0154
10634TIP3    H153317   4.710   5.625  11.171 -0.6366  0.3308 -0.8029
10634TIP3    H253318   4.835   5.689  11.113  0.1691  0.0450  0.5887
10635TIP3   OH253319   5.212   3.771   4.632 -0.7531 -0.0715  0.4527
10635TIP3    H153320   5.189   3.679   4.622 -0.7382 -0.2434  1.8463
10635TIP3    H253321   5.151   3.805   4.697  0.1944  0.5348  1.0544
10636TIP3   OH253322   3.940   3.879   1.541  0.3412  0.0259 -0.2728
10636TIP3    H153323   4.006   3.811   1.526  0.3220 -0.7995  2.6930
10636TIP3    H253324   3.861   3.847   1.498  0.3102 -1.9706  1.1302
10637TIP3   OH253325   2.388   4.318   4.151 -0.1007 -0.6700 -0.1385
10637TIP3    H153326   2.391   4.275   4.237 -1.2293 -0.1516  0.1776
10637TIP3    H253327   2.299   4.305   4.120  0.2373 -0.6717 -1.1515
10638TIP3   OH253328   1.116   6.185  14.596 -0.0185 -0.6593  0.7107
10638TIP3    H153329   1.122   6.102  14.643  0.7496 -1.1501 -0.2226
10638TIP3    H253330   1.150   6.250  14.658  1.1429 -1.3185  0.7936
10639TIP3   OH253331   4.360   4.992  11.648 -0.0135  0.2569  0.1048
10639TIP3    H153332   4.434   5.051  11.641 -0.0312  0.4273  1.2125
10639TIP3    H253333   4.363   4.959  11.738 -1.7153  0.8596  0.4223
10640TIP3   OH253334   5.204   0.918   2.467  0.2084  0.1081 -0.0854
10640TIP3    H153335   5.245   0.986   2.414  0.4922  0.9674  1.1858
10640TIP3    H253336   5.235   0.935   2.556 -1.1818 -0.5696  0.5595
10641TIP3   OH253337   2.401   5.910   3.282  0.3715  0.1465  0.6120
10641TIP3    H153338   2.377   5.850   3.211  2.0867  0.5192 -0.3202
10641TIP3    H253339   2.324   5.965   3.294 -0.0788 -0.1612 -0.7059
10642TIP3   OH253340   4.241   6.389   0.598 -0.2970  0.0228 -0.0896
10642TIP3    H153341   4.275   6.459   0.655 -0.2345 -0.9454  1.1041
10642TIP3    H253342   4.167   6.353   0.646  0.0314 -1.1158 -0.4046
10643TIP3   OH253343   5.364   3.494  16.378  0.5366 -0.4416  0.2236
10643TIP3    H153344   5.414   3.452  16.448 -0.9844 -1.3802  0.7975
10643TIP3    H253345   5.274   3.466  16.393 -0.3833  2.1083 -0.0760
10644TIP3   OH253346   4.300   2.539  15.087 -0.0224  0.4911 -0.1142
10644TIP3    H153347   4.276   2.547  15.179  0.4693 -0.6536  0.1172
10644TIP3    H253348   4.390   2.507  15.087  0.0315  0.6100 -0.9979
10645TIP3   OH253349   5.227   4.013  15.964  0.2969 -0.5242  0.3879
10645TIP3    H153350   5.136   4.041  15.967 -0.5307 -3.0007  0.8095
10645TIP3    H253351   5.226   3.936  15.906  2.2582 -0.1764 -0.1770
10646TIP3   OH253352   4.120   5.857   2.058 -0.3721 -0.3056 -0.3093
10646TIP3    H153353   4.206   5.815   2.053 -0.2441 -0.1985  0.7187
10646TIP3    H253354   4.062   5.790   2.094 -0.2481  0.2338  0.9820
10647TIP3   OH253355   4.714   3.257   3.523  0.1275  0.3104  0.1925
10647TIP3    H153356   4.791   3.211   3.491 -0.5809 -2.6896  2.3816
10647TIP3    H253357   4.646   3.237   3.458  0.4050  0.2027 -0.0649
10648TIP3   OH253358   2.469   6.381  15.589  0.4669  0.3392 -0.1919
10648TIP3    H153359   2.556   6.351  15.618  0.5272 -1.1729 -1.7872
10648TIP3    H253360   2.484   6.419  15.502 -0.3471  0.9738 -0.0739
10649TIP3   OH253361   1.297   3.017   0.590 -0.1056 -0.4094  0.0083
10649TIP3    H153362   1.369   3.063   0.634  0.6556 -0.8946 -0.7047
10649TIP3    H253363   1.338   2.972   0.516 -1.2430 -0.1799 -0.7978
10650TIP3   OH253364   4.718   2.630  13.001  0.0610 -0.5444 -0.0266
10650TIP3    H153365   4.671   2.705  12.966  1.8276  0.7549  0.2620
10650TIP3    H253366   4.664   2.555  12.978 -0.9020  0.6465 -1.8462
10651TIP3   OH253367   4.957   0.468  12.277  0.2185  0.2274 -0.2276
10651TIP3    H153368   5.042   0.470  12.233  0.3204  1.4424 -0.0034
10651TIP3    H253369   4.936   0.375  12.283  1.2672 -0.0652 -0.7888
10652TIP3   OH253370   6.681   3.645  12.270 -0.0655  0.1708 -0.0173
10652TIP3    H153371   6.674   3.550  12.270 -0.9414  0.2054 -1.6063
10652TIP3    H253372   6.775   3.662  12.257 -0.1023 -0.4922 -1.2700
10653TIP3   OH253373   4.244   0.256   1.959 -0.0359 -0.1782 -0.0845
10653TIP3    H153374   4.151   0.237   1.968 -0.7830  2.4240 -1.2151
10653TIP3    H253375   4.254   0.343   1.997  1.6859  0.0553 -0.9802
10654TIP3   OH253376   4.712   4.614   1.961 -0.0165  0.0529  0.0960
10654TIP3    H153377   4.649   4.592   2.030 -0.3206 -0.4940 -0.3564
10654TIP3    H253378   4.751   4.697   1.991  1.0895 -0.9994  1.7761
10655TIP3   OH253379   4.997   3.251   2.696 -0.1450 -0.6365  0.1753
10655TIP3    H153380   4.964   3.309   2.628  2.5328 -1.8411 -2.4109
10655TIP3    H253381   5.009   3.307   2.773  0.3340  1.7552 -1.5390
10656TIP3   OH253382   1.610   1.608   4.502  0.6517  0.3038  0.0738
10656TIP3    H153383   1.526   1.649   4.521  0.4213 -0.2512  0.2712
10656TIP3    H253384   1.675   1.672   4.533  0.3274  1.1362 -0.9217
10657TIP3   OH253385   4.643   2.647  16.877  0.6415 -0.3784  0.2085
10657TIP3    H153386   4.667   2.559  16.906 -0.8844 -0.8314  0.1757
10657TIP3    H253387   4.635   2.640  16.782  1.0497 -0.0433  0.1407
10658TIP3   OH253388   2.642   5.741  11.514  0.2039  0.1905  0.6338
10658TIP3    H153389   2.735   5.760  11.499  0.7897 -1.0422  2.3516
10658TIP3    H253390   2.627   5.768  11.604 -1.0287  0.0154  0.4915
10659TIP3   OH253391   3.820   0.176   5.443  0.0547 -0.2188 -0.0920
10659TIP3    H153392   3.733   0.150   5.411 -1.0087  0.4744  1.9942
10659TIP3    H253393   3.832   0.125   5.523  1.0069  0.6275  0.3247
10660TIP3   OH253394   0.420   4.439  10.815 -0.5159  0.0353 -0.4615
10660TIP3    H153395   0.475   4.517  10.810 -1.5867  0.9034  0.5326
10660TIP3    H253396   0.369   4.441  10.734 -1.6825  1.3005  0.2655
10661TIP3   OH253397   6.513   1.425   2.436 -0.3974  0.4108  0.2268
10661TIP3    H153398   6.448   1.372   2.482  1.1321 -2.3113 -0.5487
10661TIP3    H253399   6.552   1.479   2.504 -2.1960  0.8047  1.0129
10662TIP3   OH253400   5.616   4.767  11.896 -0.0134 -0.1189  0.2920
10662TIP3    H153401   5.698   4.738  11.936 -0.8877 -1.0772  1.4719
10662TIP3    H253402   5.639   4.850  11.853  1.2478  0.3992  1.8366
10663TIP3   OH253403   6.757   5.291  16.155  0.0276 -0.2900 -0.1012
10663TIP3    H153404   6.819   5.281  16.227 -0.3864  0.2795  0.3367
10663TIP3    H253405   6.743   5.385  16.148 -1.2975 -0.4501  0.2415
10664TIP3   OH253406   6.019   0.592   5.435 -0.0565 -0.2278 -0.2135
10664TIP3    H153407   6.073   0.514   5.423 -0.2681 -0.4467  0.2456
10664TIP3    H253408   5.988   0.613   5.347  1.5470  0.4710 -0.6360
10665TIP3   OH253409   4.871   0.086  15.194 -0.0679  0.7974  0.0398
10665TIP3    H153410   4.849   0.176  15.169  2.3325  1.3913 -0.1549
10665TIP3    H253411   4.966   0.087  15.208  0.1656 -1.9058 -0.7902
10666TIP3   OH253412   2.569   0.822   5.773  0.2466  0.5032 -0.8018
10666TIP3    H153413   2.502   0.757   5.751  0.3586  0.6872 -1.7357
10666TIP3    H253414   2.652   0.777   5.755  0.3400  0.6731 -0.7931
10667TIP3   OH253415   2.716   5.289   2.385 -0.0226 -0.0286 -0.4949
10667TIP3    H153416   2.630   5.314   2.420 -0.6309 -0.6731 -1.5033
10667TIP3    H253417   2.701   5.205   2.343  1.1327 -0.1780 -0.6218
10668TIP3   OH253418   4.763   2.464   6.176 -0.5234  0.1727 -0.3396
10668TIP3    H153419   4.794   2.495   6.091  0.2568 -1.2627 -0.5929
10668TIP3    H253420   4.693   2.402   6.156  0.0210 -0.5786  0.0269
10669TIP3   OH253421   1.378   1.066   0.698  0.1025 -0.9237  0.3699
10669TIP3    H153422   1.313   1.095   0.634  0.0828 -1.1404  0.2917
10669TIP3    H253423   1.443   1.018   0.646  1.1912  0.6613  0.1811
10670TIP3   OH253424   1.982   0.856  11.940 -0.6094 -0.2224 -0.2041
10670TIP3    H153425   2.030   0.857  11.857 -1.1470  0.3107 -0.5123
10670TIP3    H253426   1.905   0.910  11.924  0.2498  1.5374  1.2357
10671TIP3   OH253427   4.227   5.090  13.420 -0.3526  0.3280  0.4582
10671TIP3    H153428   4.159   5.079  13.354  0.4457  0.0096 -0.3367
10671TIP3    H253429   4.199   5.033  13.492  0.2089 -1.6372 -0.8014
10672TIP3   OH253430   3.167   3.507  14.989 -0.2707 -0.3558 -0.1294
10672TIP3    H153431   3.227   3.519  14.916  0.0423  0.4105  0.2422
10672TIP3    H253432   3.088   3.555  14.964  0.0564  0.4122  0.2817
10673TIP3   OH253433   3.640   0.490   3.685 -0.3476 -0.1256  0.2855
10673TIP3    H153434   3.611   0.581   3.680  0.5914  0.2794  1.4983
10673TIP3    H253435   3.560   0.438   3.689 -0.9201  0.7979  1.3639
10674TIP3   OH253436   4.058   1.152   4.773 -0.2451  0.1184  0.0751
10674TIP3    H153437   4.027   1.125   4.860  2.4108  0.2546  1.1671
10674TIP3    H253438   4.064   1.247   4.778 -1.2593  0.2283 -0.7042
10675TIP3   OH253439   4.811   5.238   5.757 -0.2237  0.1760  0.1469
10675TIP3    H153440   4.882   5.255   5.819 -0.4846  2.6206 -0.1254
10675TIP3    H253441   4.732   5.271   5.801 -0.9196 -0.8886 -0.2704
10676TIP3   OH253442   1.773   3.738  14.525 -0.1280  0.3474 -0.6794
10676TIP3    H153443   1.857   3.759  14.484  0.5261 -1.3183 -0.2503
10676TIP3    H253444   1.762   3.806  14.592  0.3957  1.1407 -1.3814
10677TIP3   OH253445   0.806   4.741   2.031 -0.0781  0.0123  0.1079
10677TIP3    H153446   0.807   4.659   1.982  0.9841  0.4321 -0.5938
10677TIP3    H253447   0.714   4.768   2.032 -0.4494 -1.2241  0.4238
10678TIP3   OH253448   6.121   3.251  14.223 -0.0055  0.5567  0.0126
10678TIP3    H153449   6.207   3.278  14.256  0.3887  0.7230 -1.0713
10678TIP3    H253450   6.102   3.169  14.268  0.0160  1.2737  1.3848
10679TIP3   OH253451   2.997   3.986   3.007 -0.3558 -0.0238  0.1417
10679TIP3    H153452   2.912   4.009   2.969 -0.7874 -1.4338  0.1777
10679TIP3    H253453   3.061   4.024   2.948 -1.0229 -0.1739 -0.7043
10680TIP3   OH253454   2.181   1.021   1.269 -0.0843 -0.4524  0.0447
10680TIP3    H153455   2.091   1.020   1.237 -0.4553  0.5524  0.9853
10680TIP3    H253456   2.175   0.988   1.359  0.4353 -0.1052  0.2119
10681TIP3   OH253457   2.200   3.758  11.015 -0.0899 -0.6118 -0.4072
10681TIP3    H153458   2.219   3.848  10.987  0.4784 -0.9774 -1.2295
10681TIP3    H253459   2.107   3.758  11.036 -0.3010 -0.0614 -1.3157
10682TIP3   OH253460   2.803   5.963  13.284  0.1932  0.5706 -0.4287
10682TIP3    H153461   2.760   6.031  13.336 -2.3383 -0.7096 -0.7175
10682TIP3    H253462   2.821   5.893  13.346 -1.1845 -0.2203 -0.8799
10683TIP3   OH253463   1.863   4.984  16.444 -0.0133 -0.1290 -0.1537
10683TIP3    H153464   1.871   5.079  16.453 -1.5780 -0.0708  0.8461
10683TIP3    H253465   1.943   4.950  16.484 -0.1870  0.7178  0.9487
10684TIP3   OH253466   6.361   4.763  12.243  0.7723 -0.0507  0.3482
10684TIP3    H153467   6.313   4.807  12.313 -0.0818  2.1164 -1.5058
10684TIP3    H253468   6.452   4.790  12.256  1.1330 -1.8062  2.1030
10685TIP3   OH253469   2.010   6.510   5.440  0.0449 -0.2936  0.5415
10685TIP3    H153470   2.100   6.480   5.458  0.0207 -1.4402 -1.0934
10685TIP3    H253471   1.984   6.553   5.521  2.5652  1.3424  0.6118
10686TIP3   OH253472   1.971   3.682  16.917  0.0644  0.7930 -0.4422
10686TIP3    H153473   1.886   3.647  16.891  0.3543  0.7157 -1.3210
10686TIP3    H253474   2.015   3.704  16.835  1.1351  0.2883 -0.0295
10687TIP3   OH253475   3.266   3.592   3.909 -0.0186 -0.4706 -0.0566
10687TIP3    H153476   3.194   3.653   3.927 -0.1469 -0.6750  0.1392
10687TIP3    H253477   3.222   3.515   3.873  0.1513 -0.4108 -0.3879
10688TIP3   OH253478   1.911   0.624   0.275 -0.0394  0.1424  0.1096
10688TIP3    H153479   1.991   0.658   0.234  0.7479 -0.9716  0.6552
10688TIP3    H253480   1.861   0.585   0.203  0.6333 -0.4833 -0.0355
10689TIP3   OH253481   5.547   0.959  10.894  0.2465  0.3186  0.4279
10689TIP3    H153482   5.641   0.941  10.896  0.4251  1.2376  0.7114
10689TIP3    H253483   5.506   0.872  10.896  1.0834 -0.0881  0.3178
10690TIP3   OH253484   0.231   1.582  13.686  0.0481  0.4005  0.2209
10690TIP3    H153485   0.288   1.637  13.740  0.2038  0.1226  0.3404
10690TIP3    H253486   0.267   1.588  13.598  1.7377 -1.6709  0.6906
10691TIP3   OH253487   4.720   5.184  14.223 -0.1499 -0.0189 -0.4452
10691TIP3    H153488   4.652   5.158  14.286  0.4379  0.7423  0.5241
10691TIP3    H253489   4.788   5.225  14.276  0.6959 -0.0055 -1.5029
10692TIP3   OH253490   5.067   5.470   4.624  0.3644  0.1027 -0.4221
10692TIP3    H153491   5.059   5.510   4.711 -0.9585 -1.9236  0.4528
10692TIP3    H253492   5.149   5.505   4.589  0.3672  1.8352  1.1572
10693TIP3   OH253493   3.205   2.434   4.798  0.5796 -0.0423 -0.0495
10693TIP3    H153494   3.296   2.457   4.817  0.3197  0.4537  0.6340
10693TIP3    H253495   3.183   2.368   4.864 -0.2022  1.3923  1.1928
10694TIP3   OH253496   6.499   2.020  13.462  0.4491 -0.2228 -0.5235
10694TIP3    H153497   6.513   1.932  13.427  0.4023 -1.7339  2.8532
10694TIP3    H253498   6.586   2.048  13.491  0.4212  0.7913 -1.3615
10695TIP3   OH253499   0.819   1.714   0.416  0.4471  0.1789  0.0001
10695TIP3    H153500   0.798   1.647   0.351  0.6427 -1.2477  1.3333
10695TIP3    H253501   0.743   1.772   0.417  0.5774  0.4235 -1.6922
10696TIP3   OH253502   5.047   5.799  16.025 -0.5537 -0.4615 -0.3419
10696TIP3    H153503   5.093   5.830  15.947 -0.5404  2.0273  0.5537
10696TIP3    H253504   5.115   5.788  16.091 -0.7758 -0.6647 -0.1458
10697TIP3   OH253505   5.243   3.388   6.372 -0.4731  0.3739 -0.1883
10697TIP3    H153506   5.300   3.350   6.305 -0.5013 -0.3883  0.2017
10697TIP3    H253507   5.166   3.418   6.324  0.0255  0.9388 -0.6491
10698TIP3   OH253508   6.386   0.301   4.957  0.3370 -0.0470 -0.4467
10698TIP3    H153509   6.294   0.292   4.932 -0.1330 -2.1742  1.6848
10698TIP3    H253510   6.431   0.233   4.906  0.3133 -0.5535  0.1924
10699TIP3   OH253511   1.626   0.194   3.854 -0.2790 -0.2243 -0.5083
10699TIP3    H153512   1.620   0.288   3.836  0.1002  0.0828  0.8084
10699TIP3    H253513   1.590   0.184   3.942  0.2938 -1.2072 -0.3659
10700TIP3   OH253514   2.172   0.141   1.182 -0.3098  0.2817  0.6061
10700TIP3    H153515   2.229   0.202   1.135 -0.4851  1.0229  1.3334
10700TIP3    H253516   2.152   0.185   1.264 -2.5784  0.4111  0.0683
10701TIP3   OH253517   4.592   3.512   3.484  0.5939  0.3227 -0.3241
10701TIP3    H153518   4.554   3.498   3.398  0.3696  2.6273 -0.6713
10701TIP3    H253519   4.630   3.427   3.508  0.1911 -0.5140 -2.4296
10702TIP3   OH253520   2.441   5.774  12.086  0.2153 -0.0831 -0.0002
10702TIP3    H153521   2.444   5.869  12.088 -1.9944  0.0142  0.9569
10702TIP3    H253522   2.394   5.752  12.006 -1.2196 -0.2422  0.8480
10703TIP3   OH253523   1.513   3.777  12.609  0.3435 -0.8600 -0.0973
10703TIP3    H153524   1.526   3.705  12.671 -3.3747 -1.3767  0.3193
10703TIP3    H253525   1.468   3.845  12.659  0.1541  0.0525 -1.4512
10704TIP3   OH253526   3.072   6.430  16.997  0.1053 -0.1759  0.0177
10704TIP3    H153527   3.084   6.491  17.069 -4.2905 -0.5540  1.3535
10704TIP3    H253528   3.018   6.477  16.933  0.2599 -1.2712 -0.9644
10705TIP3   OH253529   1.073   2.047  14.234  0.1336 -0.3432  0.2527
10705TIP3    H153530   1.154   2.016  14.192  0.3651  0.9934 -0.3125
10705TIP3    H253531   1.079   2.014  14.324  0.5012 -1.6820 -0.2369
10706TIP3   OH253532   2.711   4.273  10.872  0.1069 -0.5441 -0.3450
10706TIP3    H153533   2.658   4.353  10.881  0.0840 -0.6048  0.0878
10706TIP3    H253534   2.648   4.202  10.882  0.2854 -0.6171  0.3121
10707TIP3   OH253535   6.541   2.391  16.771  0.0314  0.1849 -0.0353
10707TIP3    H153536   6.451   2.368  16.747  0.0711 -1.6072  1.3443
10707TIP3    H253537   6.589   2.387  16.688 -0.7429 -1.0749 -0.4534
10708TIP3   OH253538   0.737   3.247  12.937  0.3709  0.2938  0.1775
10708TIP3    H153539   0.734   3.264  13.031  1.1736  0.2948  0.2035
10708TIP3    H253540   0.798   3.312  12.902  1.4863 -0.8505 -0.0832
10709TIP3   OH253541   1.028   0.523  16.072 -0.3269  0.1743  0.6252
10709TIP3    H153542   0.974   0.602  16.070  0.9330  1.0496  0.2609
10709TIP3    H253543   1.083   0.533  16.150 -0.4300 -0.5523  0.8064
10710TIP3   OH253544   0.164   4.021  11.572 -0.6664 -0.2664  0.4580
10710TIP3    H153545   0.073   4.049  11.578 -0.0452  1.9980  0.4647
10710TIP3    H253546   0.172   3.980  11.486 -1.5992 -0.0631  0.2713
10711TIP3   OH253547   1.366   3.515  15.278  0.1353  0.4968 -0.1819
10711TIP3    H153548   1.342   3.581  15.343 -0.2695  0.9037 -0.7319
10711TIP3    H253549   1.434   3.463  15.320  0.6642  1.4370  0.1594
10712TIP3   OH253550   4.059   1.878   1.834 -0.0867  0.1637 -0.2342
10712TIP3    H153551   4.041   1.943   1.766 -1.6362  0.3198  0.2856
10712TIP3    H253552   4.116   1.814   1.791 -0.6485  0.4949 -1.5533
10713TIP3   OH253553   6.071   2.139  16.784 -0.1827  0.5474  0.4554
10713TIP3    H153554   5.987   2.171  16.818  0.2700  1.7766  0.4356
10713TIP3    H253555   6.050   2.108  16.696 -0.1545  3.3997 -0.6488
10714TIP3   OH253556   0.249   0.970   6.099 -0.1101  0.2790  0.2712
10714TIP3    H153557   0.320   1.029   6.125 -1.6383  2.3172  0.0597
10714TIP3    H253558   0.197   1.020   6.037 -1.7433 -1.1350  0.4085
10715TIP3   OH253559   3.271   4.265  11.592 -0.3841 -0.3113  0.1229
10715TIP3    H153560   3.297   4.180  11.557  3.4323  0.7316 -0.0700
10715TIP3    H253561   3.232   4.310  11.518  0.4873 -0.8452 -0.6893
10716TIP3   OH253562   4.393   0.525   5.941  0.3182  0.1051  0.6909
10716TIP3    H153563   4.425   0.500   6.027  1.2817 -1.5857 -0.1147
10716TIP3    H253564   4.461   0.495   5.880 -1.3819 -0.8367 -0.8378
10717TIP3   OH253565   6.075   6.551   4.482 -0.4703 -0.0472 -0.0384
10717TIP3    H153566   6.051   6.553   4.575  0.8966 -0.3824  0.3490
10717TIP3    H253567   6.138   6.479   4.475  0.9195  1.1923 -0.8385
10718TIP3   OH253568   3.099   6.047   6.107  0.6544 -0.0919 -0.4655
10718TIP3    H153569   3.039   6.029   6.035  0.7478 -1.6719 -0.1824
10718TIP3    H253570   3.046   6.037   6.186  0.9862 -0.2368 -0.2548
10719TIP3   OH253571   3.579   0.339   4.557  0.6630  0.3398  0.4380
10719TIP3    H153572   3.576   0.427   4.520 -0.4941 -0.2373 -0.9640
10719TIP3    H253573   3.621   0.286   4.489 -0.1188 -0.4732  0.5582
10720TIP3   OH253574   0.500   0.122   3.682 -0.2342 -0.0216 -0.8273
10720TIP3    H153575   0.421   0.169   3.710  0.5303  0.4335  0.6937
10720TIP3    H253576   0.492   0.036   3.723  1.0184  0.7354  1.1869
10721TIP3   OH253577   2.870   6.693  12.339 -0.0679 -0.3040  0.2518
10721TIP3    H153578   2.933   6.763  12.359  0.1190 -0.3836 -0.0553
10721TIP3    H253579   2.809   6.695  12.413  0.4952 -0.4598  0.7273
10722TIP3   OH253580   3.231   2.297   0.704 -0.2377  0.1490  0.1417
10722TIP3    H153581   3.149   2.258   0.734 -0.3931  1.5048  1.5667
10722TIP3    H253582   3.204   2.356   0.633 -0.2613 -0.6723 -0.5503
10723TIP3   OH253583   2.089   2.374  11.629 -0.4059 -0.2745 -0.3076
10723TIP3    H153584   2.151   2.417  11.571  0.4155 -0.9922  0.0280
10723TIP3    H253585   2.043   2.312  11.573 -1.8627  1.2491 -0.8798
10724TIP3   OH253586   0.616   2.028   0.621 -0.5699 -0.2325  0.3901
10724TIP3    H153587   0.628   2.082   0.699 -2.0302 -0.3425  0.7114
10724TIP3    H253588   0.527   2.047   0.591 -0.2383 -0.6279 -0.9184
10725TIP3   OH253589   5.573   3.721   2.761 -0.0006 -0.4809 -0.0048
10725TIP3    H153590   5.583   3.739   2.668 -0.9765  0.7490  0.0964
10725TIP3    H253591   5.636   3.652   2.779  1.2114  0.2311 -1.2848
10726TIP3   OH253592   4.773   1.623   0.686  0.4230  0.3619 -0.0625
10726TIP3    H153593   4.778   1.603   0.779  0.5115 -0.8858 -0.3164
10726TIP3    H253594   4.703   1.688   0.679  0.1492  0.1798  0.8254
10727TIP3   OH253595   0.979   4.006  14.860  0.1425 -0.5910 -0.2060
10727TIP3    H153596   1.058   4.014  14.914  0.8219 -1.5008 -1.0135
10727TIP3    H253597   0.938   4.092  14.864  1.5414  0.1078 -0.3042
10728TIP3   OH253598   3.042   0.386   0.278 -0.0935 -0.3904  0.0005
10728TIP3    H153599   2.963   0.381   0.225  1.5314 -1.7013 -2.4757
10728TIP3    H253600   3.074   0.295   0.283  0.1529 -0.2478  2.8157
10729TIP3   OH253601   3.810   4.290   0.051  0.4004 -0.1263  0.1579
10729TIP3    H153602   3.773   4.246   0.128 -0.3354 -1.1707 -0.7701
10729TIP3    H253603   3.734   4.324   0.005  0.6247 -1.4997 -1.2942
10730TIP3   OH253604   5.433   1.143  17.110 -0.1291  0.4159 -0.0318
10730TIP3    H153605   5.340   1.138  17.088 -0.5859  0.3280  1.7951
10730TIP3    H253606   5.453   1.237  17.109 -0.5856  0.5270  0.9081
10731TIP3   OH253607   1.764   1.363  12.390  0.2801 -0.1368  0.4059
10731TIP3    H153608   1.678   1.375  12.430 -0.1772  0.2927 -0.6673
10731TIP3    H253609   1.780   1.269  12.392 -1.1078 -0.4442 -1.1489
10732TIP3   OH253610   2.170   2.028  16.818 -0.1607 -0.3957  0.5062
10732TIP3    H153611   2.133   1.946  16.785 -0.1320 -0.3826  0.4417
10732TIP3    H253612   2.252   2.039  16.770 -0.1812 -0.3123  0.4900
10733TIP3   OH253613   2.264   3.021  10.746 -0.1421  0.4582  0.6693
10733TIP3    H153614   2.328   3.087  10.773  0.7946  1.0596 -2.5640
10733TIP3    H253615   2.182   3.069  10.737  0.5077  1.2879 -1.5456
10734TIP3   OH253616   1.241   0.974   5.554  0.4958  0.7286  0.4807
10734TIP3    H153617   1.289   0.920   5.617  1.1716 -0.1263 -0.7277
10734TIP3    H253618   1.192   1.036   5.608 -1.2822 -1.8320  2.0221
10735TIP3   OH253619   4.929   4.031  13.663  0.1992 -0.0300  0.5691
10735TIP3    H153620   5.010   4.031  13.612 -1.1042 -0.6418 -1.6687
10735TIP3    H253621   4.953   3.992  13.747  2.5733  1.4540  0.6753
10736TIP3   OH253622   0.553   1.075   1.746  0.2300  0.0729  0.2584
10736TIP3    H153623   0.526   1.122   1.668 -1.7646 -0.6039  0.4899
10736TIP3    H253624   0.558   0.983   1.718 -1.8993 -0.3904  1.1856
10737TIP3   OH253625   5.601   3.025  11.690 -0.1171  0.5500 -0.3915
10737TIP3    H153626   5.643   3.058  11.610 -1.8722  1.1171 -1.1203
10737TIP3    H253627   5.507   3.036  11.674 -0.5223  0.3390  1.6208
10738TIP3   OH253628   0.179   4.479  14.253 -0.6304  0.3842 -0.1839
10738TIP3    H153629   0.266   4.484  14.215 -0.1122 -0.0154  0.9341
10738TIP3    H253630   0.173   4.556  14.310 -2.2620  2.3286 -2.6997
10739TIP3   OH253631   0.314   1.399   2.746  0.2005  0.3916  0.3020
10739TIP3    H153632   0.380   1.464   2.773  1.6325 -0.6647 -0.5570
10739TIP3    H253633   0.322   1.329   2.810  0.1447  0.0942 -0.0179
10740TIP3   OH253634   5.277   1.294  12.373  0.3664  0.5804  0.0656
10740TIP3    H153635   5.210   1.236  12.410  2.1332 -1.1459  0.7708
10740TIP3    H253636   5.270   1.281  12.278  0.4400 -0.4927  0.1933
10741TIP3   OH253637   2.675   0.938  15.476  0.0475 -0.3368  0.6266
10741TIP3    H153638   2.691   0.844  15.468  0.4588 -0.3758  1.7683
10741TIP3    H253639   2.697   0.973  15.390  0.9858 -1.1338  0.5282
10742TIP3   OH253640   0.241   2.971   0.184 -0.4654 -0.7555 -0.4362
10742TIP3    H153641   0.204   3.042   0.133  0.7890  1.7103  1.8427
10742TIP3    H253642   0.335   2.984   0.180 -0.2943 -0.9881  1.7302
10743TIP3   OH253643   1.550   6.298  13.970  0.1554 -0.4350  0.1546
10743TIP3    H153644   1.622   6.278  13.911 -0.5803 -0.5805 -0.7146
10743TIP3    H253645   1.585   6.363  14.030  0.9730 -0.4251 -0.3275
10744TIP3   OH253646   1.478   1.602   2.300  0.0678 -0.6577 -0.1513
10744TIP3    H153647   1.403   1.568   2.349 -0.8489 -0.2906 -1.2589
10744TIP3    H253648   1.549   1.541   2.319 -0.4674 -0.9284  1.0324
10745TIP3   OH253649   0.744   4.371  11.762 -0.6251  0.3174  0.0445
10745TIP3    H153650   0.819   4.427  11.746  0.2609 -0.6965  0.5342
10745TIP3    H253651   0.777   4.300  11.817 -1.3224 -1.4907 -1.7204
10746TIP3   OH253652   0.563   5.205  11.323 -0.8006 -0.2751  0.1929
10746TIP3    H153653   0.631   5.161  11.272  0.4195  0.0659  1.4636
10746TIP3    H253654   0.503   5.135  11.348 -2.4704 -0.2373 -3.0962
10747TIP3   OH253655   6.177   6.203  11.462 -0.1314 -0.1993  0.2589
10747TIP3    H153656   6.136   6.154  11.391 -0.4449  0.6200 -0.1484
10747TIP3    H253657   6.104   6.246  11.507  0.2484  1.7081 -0.8062
10748TIP3   OH253658   2.745   6.133   3.961  0.5159  0.1067 -0.0984
10748TIP3    H153659   2.703   6.050   3.981  0.5903  0.1419  0.2047
10748TIP3    H253660   2.760   6.130   3.866 -2.0809  0.9338 -0.6414
10749TIP3   OH253661   3.600   4.604  14.991 -0.1885 -0.0172 -0.1286
10749TIP3    H153662   3.580   4.565  14.906  0.1977  1.3131 -0.8683
10749TIP3    H253663   3.516   4.610  15.036 -0.7714  1.2557 -1.3155
10750TIP3   OH253664   3.874   2.234  13.641  0.3545 -0.0940 -0.3293
10750TIP3    H153665   3.802   2.245  13.704 -2.0814  2.2108 -3.2183
10750TIP3    H253666   3.852   2.155  13.593 -0.8413  1.0108 -1.7189
10751TIP3   OH253667   5.793   3.989   2.560 -0.5973 -0.0787 -0.3344
10751TIP3    H153668   5.818   3.942   2.640 -0.2691  1.1987  0.3356
10751TIP3    H253669   5.722   4.046   2.587 -1.5093 -0.7212 -1.3193
10752TIP3   OH253670   6.723   5.187   4.107 -0.5598 -0.4327 -0.4820
10752TIP3    H153671   6.648   5.150   4.152 -0.8003 -0.7834 -1.1515
10752TIP3    H253672   6.745   5.122   4.040  2.7004 -2.1827  2.0167
10753TIP3   OH253673   0.915   5.434   5.574 -0.6487 -0.1683 -0.0931
10753TIP3    H153674   0.845   5.498   5.558 -1.0185 -1.2199 -3.3878
10753TIP3    H253675   0.995   5.480   5.549 -0.7574 -0.5170 -1.1133
10754TIP3   OH253676   2.818   2.638   1.093 -0.1722 -0.7629 -0.0672
10754TIP3    H153677   2.822   2.701   1.165 -1.5832  0.7626 -1.2252
10754TIP3    H253678   2.908   2.607   1.083  0.9051  2.1051 -0.2525
10755TIP3   OH253679   6.713   4.512  15.232 -0.0819 -0.2238  0.1774
10755TIP3    H153680   6.704   4.424  15.198  1.1136 -0.2882 -0.0403
10755TIP3    H253681   6.806   4.519  15.255 -0.5395  0.3223  2.0254
10756TIP3   OH253682   1.493   5.490  10.951 -0.6175 -0.5440 -0.1093
10756TIP3    H153683   1.484   5.519  10.860  0.1739  0.6582  0.1671
10756TIP3    H253684   1.573   5.533  10.981 -0.1439 -1.9889  0.7648
10757TIP3   OH253685   3.989   5.441   2.851  0.3616  0.5111  0.2869
10757TIP3    H153686   4.072   5.431   2.897 -1.1300  0.4157  3.2117
10757TIP3    H253687   3.998   5.521   2.800  2.1701  0.5820  0.6828
10758TIP3   OH253688   2.648   2.187  13.078 -0.1343  0.2245 -0.1852
10758TIP3    H153689   2.630   2.253  13.011 -1.2835  1.1506  0.9770
10758TIP3    H253690   2.608   2.107  13.044 -0.7275  0.6877 -0.6158
10759TIP3   OH253691   4.245   2.606   4.056 -0.0148  0.2220 -0.0171
10759TIP3    H153692   4.198   2.575   3.979 -0.0486  0.4018 -0.0686
10759TIP3    H253693   4.279   2.526   4.097 -0.1659  0.1112 -0.1071
10760TIP3   OH253694   0.634   3.269   0.010  0.0027 -0.6732  0.1199
10760TIP3    H153695   0.555   3.256   0.063  0.0310 -0.7145  0.1521
10760TIP3    H253696   0.628   3.201  -0.058 -1.0847  0.6564 -1.1914
10761TIP3   OH253697   1.828   0.536  17.074 -0.2065 -0.1399  0.3651
10761TIP3    H153698   1.790   0.535  17.162 -0.7502 -0.4532  0.1292
10761TIP3    H253699   1.773   0.596  17.024 -0.4869 -0.7031 -0.0145
10762TIP3   OH253700   1.157   4.246   3.119 -0.5755  0.2078  0.3495
10762TIP3    H153701   1.115   4.160   3.126  1.3189 -0.8111  0.1407
10762TIP3    H253702   1.247   4.226   3.093  0.8265  2.0119  3.2097
10763TIP3   OH253703   4.694   0.114  14.458 -0.3968  0.1904  0.9846
10763TIP3    H153704   4.604   0.142  14.438 -0.4287 -1.1105 -0.9154
10763TIP3    H253705   4.745   0.143  14.383  0.6798  0.3721  1.7671
10764TIP3   OH253706   4.641   3.846   3.095  0.3834 -0.8053 -0.2020
10764TIP3    H153707   4.672   3.805   3.176 -2.0063 -1.5907  0.3768
10764TIP3    H253708   4.601   3.928   3.124 -1.4574 -1.5954 -0.3916
10765TIP3   OH253709   2.539   5.603  16.526  0.3070  0.2932 -0.0242
10765TIP3    H153710   2.530   5.695  16.502 -3.6825 -0.4997 -2.6516
10765TIP3    H253711   2.508   5.599  16.617  0.2587  1.4798  0.0293
10766TIP3   OH253712   3.184   0.378  15.544 -0.3745 -0.5074  0.2017
10766TIP3    H153713   3.212   0.402  15.633 -1.5746 -0.6150  0.6275
10766TIP3    H253714   3.097   0.340  15.556 -0.9005  0.2309 -1.1170
10767TIP3   OH253715   5.227   1.553  14.942 -0.2982 -0.2372  0.5455
10767TIP3    H153716   5.274   1.525  14.863  1.8859  0.2529  1.5850
10767TIP3    H253717   5.230   1.649  14.939 -0.6753 -0.2104  0.9395
10768TIP3   OH253718   5.915   1.375  16.920 -0.4163  0.3689  0.7456
10768TIP3    H153719   5.993   1.376  16.975  0.3032 -0.0687 -0.2227
10768TIP3    H253720   5.854   1.317  16.965  0.7054 -1.1599  0.3988
10769TIP3   OH253721   4.393   6.003  13.442  0.2105  0.1773  0.5981
10769TIP3    H153722   4.450   6.080  13.438  0.9154 -0.3551  0.2714
10769TIP3    H253723   4.358   6.004  13.531  0.4220  0.7255  0.6803
10770TIP3   OH253724   2.847   4.654  17.058 -0.1253 -0.0864  0.1311
10770TIP3    H153725   2.821   4.746  17.057 -0.4693 -0.1544  1.2616
10770TIP3    H253726   2.803   4.615  16.983 -0.6184  0.5084  0.1109
10771TIP3   OH253727   4.896   3.490   0.351  0.2743  0.2958 -0.1431
10771TIP3    H153728   4.938   3.542   0.419  0.1388 -1.7980  1.6484
10771TIP3    H253729   4.951   3.502   0.274  2.3552  0.1440  1.2520
10772TIP3   OH253730   5.445   1.539  12.998 -0.0359 -0.0486 -0.1785
10772TIP3    H153731   5.365   1.591  13.004  0.8138  1.1269  1.6818
10772TIP3    H253732   5.477   1.534  13.087  2.0104 -0.4671 -0.8924
10773TIP3   OH253733   3.858   1.699  13.667 -0.3290  0.1641 -0.6763
10773TIP3    H153734   3.940   1.729  13.705 -0.4580 -0.3062  0.0032
10773TIP3    H253735   3.855   1.605  13.688 -0.9817  0.1542 -0.7844
10774TIP3   OH253736   2.061   2.130  14.918 -0.4604 -0.0093 -0.3954
10774TIP3    H153737   1.976   2.135  14.872 -0.3300  1.1533 -0.5597
10774TIP3    H253738   2.125   2.120  14.847 -0.2619  1.7501 -0.5199
10775TIP3   OH253739   0.057   3.923   0.887  0.4178  0.3909  0.0666
10775TIP3    H153740   0.108   3.959   0.815  0.5117 -0.4249 -0.2849
10775TIP3    H253741   0.030   4.000   0.938  0.0387  1.0161 -1.0320
10776TIP3   OH253742   4.079   1.271  16.360  0.3455 -0.0788 -0.3950
10776TIP3    H153743   4.064   1.177  16.362 -0.7374  0.0430 -1.6293
10776TIP3    H253744   3.992   1.310  16.367  0.8467  0.8724  1.0343
10777TIP3   OH253745   3.161   4.160   2.373 -0.5373  0.5430 -0.2301
10777TIP3    H153746   3.088   4.214   2.404 -0.8585  0.3693 -0.6728
10777TIP3    H253747   3.127   4.116   2.294 -0.4505 -0.6769  0.3824
10778TIP3   OH253748   2.057   4.052   0.339 -0.3618  0.1163 -0.5074
10778TIP3    H153749   1.986   4.059   0.276 -1.1546 -0.2778  0.3222
10778TIP3    H253750   2.016   4.068   0.424  0.6443  0.4244 -0.0602
10779TIP3   OH253751   1.826   1.135  11.938 -0.1363 -0.0626  0.5740
10779TIP3    H153752   1.779   1.078  11.877 -0.1924 -0.3520  0.8848
10779TIP3    H253753   1.875   1.195  11.882  2.0956 -2.1219  0.1518
10780TIP3   OH253754   5.826   3.443   0.360 -0.0167 -0.3102  0.1478
10780TIP3    H153755   5.888   3.441   0.287  0.2904 -1.7839  0.4253
10780TIP3    H253756   5.877   3.412   0.435 -0.5071  0.5815  0.8659
10781TIP3   OH253757   0.772   5.649  16.528 -0.5489  0.1092  0.3671
10781TIP3    H153758   0.858   5.636  16.489  0.0241  0.9670  1.2939
10781TIP3    H253759   0.712   5.654  16.454 -0.1896 -2.7992 -0.2612
10782TIP3   OH253760   1.172   5.908  13.997 -0.2531  0.1028  0.4512
10782TIP3    H153761   1.149   5.829  14.047 -2.3310  1.1186  1.2052
10782TIP3    H253762   1.268   5.907  13.993 -0.2196 -2.5103  0.3125
10783TIP3   OH253763   0.294   2.530   4.497  0.4732  0.5507 -0.1475
10783TIP3    H153764   0.207   2.520   4.459  0.5227 -0.2564 -0.0665
10783TIP3    H253765   0.305   2.624   4.507  0.7091  0.8754 -2.7138
10784TIP3   OH253766   5.517   2.946   1.686  0.4419  0.6878  0.3865
10784TIP3    H153767   5.559   3.009   1.744  0.4216 -1.3410  2.7868
10784TIP3    H253768   5.537   2.861   1.725 -3.3213 -0.5631  0.0111
10785TIP3   OH253769   0.918   5.619   3.683 -0.0666  0.4249  0.0847
10785TIP3    H153770   0.841   5.573   3.717  1.9020 -2.4823  1.0419
10785TIP3    H253771   0.958   5.659   3.761 -0.4658  1.7873 -0.3833
10786TIP3   OH253772   2.237   2.891  15.417  0.1355  0.6473  0.0009
10786TIP3    H153773   2.195   2.974  15.395  0.6742  0.9654  0.1572
10786TIP3    H253774   2.211   2.832  15.346 -0.0836  1.0064 -0.2225
10787TIP3   OH253775   1.181   5.035   5.053  0.1310 -0.3617 -0.8275
10787TIP3    H153776   1.138   4.988   4.981  0.5540  1.1688 -2.1235
10787TIP3    H253777   1.239   5.098   5.010  0.7548  0.2800  0.8680
10788TIP3   OH253778   0.659   2.705  11.710  0.8002  0.0700  0.1741
10788TIP3    H153779   0.727   2.674  11.651  1.6606  2.4071 -0.1911
10788TIP3    H253780   0.667   2.650  11.788  0.9266 -1.7778 -1.0778
10789TIP3   OH253781   2.989   5.162  11.052 -0.2420 -0.4729 -0.7855
10789TIP3    H153782   2.969   5.080  11.098  0.6301 -0.7121 -0.8144
10789TIP3    H253783   3.009   5.224  11.122 -1.0954 -0.2175 -0.7534
10790TIP3   OH253784   4.559   1.185  14.980 -0.1873  0.4417 -1.0765
10790TIP3    H153785   4.653   1.196  14.971  0.0285 -0.3537  0.0494
10790TIP3    H253786   4.540   1.212  15.070 -0.6168 -1.8660 -0.4070
10791TIP3   OH253787   0.458   4.103  11.771  0.3777  0.2962 -1.0253
10791TIP3    H153788   0.505   4.027  11.808  1.1328  0.7736 -0.9802
10791TIP3    H253789   0.421   4.147  11.848 -0.9130 -0.5657 -1.1297
10792TIP3   OH253790   3.224   6.329  14.457 -0.0649  0.5817 -0.2341
10792TIP3    H153791   3.128   6.320  14.458  0.0223 -0.6229 -0.9114
10792TIP3    H253792   3.245   6.353  14.367  0.2461  1.2318  0.0080
10793TIP3   OH253793   3.378   1.461  13.061  0.1798 -0.1549 -0.6658
10793TIP3    H153794   3.356   1.515  13.137 -2.2952 -1.2815 -0.4925
10793TIP3    H253795   3.398   1.375  13.097 -0.3625 -0.5311 -1.2422
10794TIP3   OH253796   6.664   0.653  12.943  0.0224 -0.0155 -0.1159
10794TIP3    H153797   6.719   0.588  12.985 -0.1843 -0.0567  0.0947
10794TIP3    H253798   6.686   0.647  12.850  0.5297  0.1262 -0.0064
10795TIP3   OH253799   6.542   1.058   3.856  0.7002 -0.5469  0.0504
10795TIP3    H153800   6.601   1.091   3.788  2.0174  0.1647  1.4672
10795TIP3    H253801   6.463   1.112   3.847  0.7449 -0.6348 -1.0456
10796TIP3   OH253802   0.844   4.960   2.912  0.1759  0.6492 -0.1866
10796TIP3    H153803   0.835   5.014   2.990  0.4716  1.2452 -0.5597
10796TIP3    H253804   0.930   4.983   2.876  0.6347 -0.6022  0.0480
10797TIP3   OH253805   3.265   4.364  14.925  0.6412  0.5869  0.0045
10797TIP3    H153806   3.236   4.443  14.970 -0.9862  0.1238 -0.1706
10797TIP3    H253807   3.274   4.299  14.994 -1.1605  0.0732 -0.1994
10798TIP3   OH253808   5.240   0.318   6.442  0.8397 -0.2058 -0.2074
10798TIP3    H153809   5.166   0.269   6.478  1.6905 -0.2641  1.5816
10798TIP3    H253810   5.287   0.255   6.387 -0.4415 -0.1492 -1.4036
10799TIP3   OH253811   4.346   5.478   2.116  0.6614 -0.2501  0.6581
10799TIP3    H153812   4.430   5.439   2.094  0.7098  0.2446 -0.0869
10799TIP3    H253813   4.296   5.476   2.035 -0.3983 -1.3678  1.3109
10800TIP3   OH253814   0.642   3.033  15.308 -0.1234 -0.0406  0.1482
10800TIP3    H153815   0.624   3.122  15.279 -4.3887 -0.2490  1.5572
10800TIP3    H253816   0.617   3.031  15.400  1.9263 -2.2721  0.7866
10801TIP3   OH253817   0.181   0.306   6.214 -0.2613  0.5294 -0.0816
10801TIP3    H153818   0.129   0.331   6.137 -0.0858  0.6515 -0.1625
10801TIP3    H253819   0.117   0.279   6.279 -0.6129  2.7885  0.6143
10802TIP3   OH253820   1.583   0.999   1.890  0.6503  0.1552  0.1004
10802TIP3    H153821   1.570   0.913   1.930  0.9632  0.9117  1.9179
10802TIP3    H253822   1.676   1.018   1.903  0.4660  1.0056  0.2377
10803TIP3   OH253823   4.503   0.596   0.540 -0.2352  0.0490 -0.4334
10803TIP3    H153824   4.472   0.537   0.472  2.8645 -0.6527 -1.3774
10803TIP3    H253825   4.597   0.604   0.525  0.3434  1.1224  2.8302
10804TIP3   OH253826   2.410   1.977   3.027  0.0573 -0.5256 -0.0552
10804TIP3    H153827   2.321   1.973   2.993  0.1045  0.4523 -0.3440
10804TIP3    H253828   2.401   1.961   3.121 -0.6670  1.2053  0.2189
10805TIP3   OH253829   1.049   3.294  13.552  0.0842 -0.0545 -0.2790
10805TIP3    H153830   0.994   3.220  13.525 -0.4554  0.3121 -0.2013
10805TIP3    H253831   1.130   3.283  13.503  0.2704 -1.0697  0.2242
10806TIP3   OH253832   4.086   0.401   0.633  0.3617  0.1457 -0.1566
10806TIP3    H153833   4.118   0.314   0.609  0.6693 -0.1887  1.3588
10806TIP3    H253834   4.005   0.411   0.582  0.1980 -1.1140 -0.1867
10807TIP3   OH253835   1.256   0.836  14.765  0.4359  0.0913 -0.3050
10807TIP3    H153836   1.187   0.789  14.811 -0.1243  1.5440  0.3930
10807TIP3    H253837   1.211   0.908  14.721  1.3983  0.5315 -0.5898
10808TIP3   OH253838   2.574   3.508   2.062 -0.1262  0.2458 -0.0640
10808TIP3    H153839   2.621   3.544   1.987  0.0811  0.6102  0.2327
10808TIP3    H253840   2.482   3.525   2.044  0.0046  1.5917  0.3904
10809TIP3   OH253841   3.583   5.818   0.370  0.3930 -0.1869 -0.2740
10809TIP3    H153842   3.572   5.725   0.389  0.2240 -0.0673  0.2120
10809TIP3    H253843   3.597   5.859   0.455  0.7772  0.1906 -0.5173
10810TIP3   OH253844   2.448   1.376  12.126 -0.3422 -0.0792 -0.0905
10810TIP3    H153845   2.537   1.360  12.158 -0.2996 -1.3116 -0.7888
10810TIP3    H253846   2.410   1.289  12.115 -1.3201  0.4079 -0.7042
10811TIP3   OH253847   4.428   0.581   1.770 -0.4403  0.4795 -0.3205
10811TIP3    H153848   4.335   0.583   1.748 -0.6589  2.0905  0.5773
10811TIP3    H253849   4.473   0.587   1.686 -1.0773 -1.8942 -0.9009
10812TIP3   OH253850   0.114   0.513   3.366  0.0120  0.3784  0.0783
10812TIP3    H153851   0.118   0.599   3.407  1.5860  0.7768 -0.8323
10812TIP3    H253852   0.201   0.500   3.328 -0.9780 -0.4842 -2.0569
10813TIP3   OH253853   3.788   4.188  12.645 -0.4240  0.2736  0.2394
10813TIP3    H153854   3.718   4.131  12.612 -0.1000  0.2829 -0.4702
10813TIP3    H253855   3.813   4.242  12.570  0.3707  0.2441  0.4737
10814TIP3   OH253856   2.164   3.001  12.580  0.2827  0.3483  0.0310
10814TIP3    H153857   2.242   3.027  12.532  0.4158 -0.7309 -0.3724
10814TIP3    H253858   2.161   3.060  12.655  2.4407 -0.6377  0.9957
10815TIP3   OH253859   3.199   1.912   1.389  0.4265  0.5043  0.0644
10815TIP3    H153860   3.145   1.949   1.319  1.3272  2.7855  0.4943
10815TIP3    H253861   3.136   1.873   1.450 -0.7080  2.3103  0.1123
10816TIP3   OH253862   4.100   5.099   5.961  0.4622  0.0607  0.0129
10816TIP3    H153863   4.145   5.026   5.919  1.2410 -0.0461  1.0030
10816TIP3    H253864   4.074   5.065   6.047 -0.0564  0.6370  0.0895
10817TIP3   OH253865   4.616   4.648  13.025 -0.1338  0.1440 -0.3025
10817TIP3    H153866   4.661   4.563  13.034  0.2238  0.4990  1.6184
10817TIP3    H253867   4.629   4.691  13.109  0.2702  2.4170 -1.4536
10818TIP3   OH253868   2.733   1.254  14.793  0.6872 -0.4816 -0.2192
10818TIP3    H153869   2.770   1.171  14.761  1.2116 -0.6715  0.8387
10818TIP3    H253870   2.800   1.289  14.851  0.5260  0.7647 -0.7438
10819TIP3   OH253871   2.238   4.516   4.748  0.1022  0.5223 -0.0530
10819TIP3    H153872   2.317   4.566   4.728  0.8201 -0.2074  0.8393
10819TIP3    H253873   2.235   4.515   4.844 -0.9466  0.4746 -0.0835
10820TIP3   OH253874   3.391   3.929  15.091  0.1399  0.1091  0.0180
10820TIP3    H153875   3.399   3.865  15.020  0.2395 -1.0224  1.0184
10820TIP3    H253876   3.472   3.920  15.140 -1.5332 -2.0840  2.6352
10821TIP3   OH253877   4.874   0.355  11.379  0.4688  0.4284 -0.0293
10821TIP3    H153878   4.792   0.392  11.347  1.2317  2.6947  0.4762
10821TIP3    H253879   4.909   0.305  11.305 -1.2995 -0.5378 -0.2684
10822TIP3   OH253880   3.208   6.404  14.909  0.3890  0.3264  0.4296
10822TIP3    H153881   3.179   6.496  14.913 -1.2564 -0.0817 -0.8979
10822TIP3    H253882   3.191   6.370  14.997 -1.9246  0.5210  0.1234
10823TIP3   OH253883   1.684   4.074   4.658  0.4415  0.2168 -0.4612
10823TIP3    H153884   1.725   3.991   4.633  0.4208  0.5695 -1.7892
10823TIP3    H253885   1.603   4.077   4.606 -0.5441  0.1966  1.0214
10824TIP3   OH253886   1.323   4.242   2.528 -0.5180  0.4669 -0.0608
10824TIP3    H153887   1.231   4.219   2.541 -0.4633  0.6315  0.6309
10824TIP3    H253888   1.355   4.267   2.615  0.5601 -0.9649 -0.0042
10825TIP3   OH253889   5.790   0.875   5.886 -0.4936 -0.6084  0.5920
10825TIP3    H153890   5.774   0.804   5.948 -1.2946  0.2550  1.3875
10825TIP3    H253891   5.865   0.922   5.923 -0.2740 -0.7451  0.3234
10826TIP3   OH253892   3.994   5.406  11.879 -1.0054 -0.3368 -0.0071
10826TIP3    H153893   4.070   5.455  11.912 -0.7220 -1.2952  0.8356
10826TIP3    H253894   3.919   5.462  11.898 -0.8352 -0.7568  2.1981
10827TIP3   OH253895   2.183   3.323  11.599  0.3361 -0.4260 -0.1046
10827TIP3    H153896   2.223   3.380  11.534 -0.1588  0.2969  0.2160
10827TIP3    H253897   2.194   3.235  11.564  0.9420 -0.1218 -0.6949
10828TIP3   OH253898   5.681   1.894  12.809  0.0657  0.2062  0.0751
10828TIP3    H153899   5.721   1.972  12.849  0.0895  0.1672  0.1268
10828TIP3    H253900   5.626   1.858  12.878  1.5952 -0.9771  0.7504
10829TIP3   OH253901   1.655   2.236   3.524  0.5655 -0.5757 -0.0957
10829TIP3    H153902   1.663   2.309   3.585  0.9949 -2.8147  2.8051
10829TIP3    H253903   1.735   2.238   3.472  0.9682  0.4837  0.5363
10830TIP3   OH253904   6.716   3.701   0.717 -0.6137  0.0856 -0.2097
10830TIP3    H153905   6.633   3.741   0.692  0.6045  2.7014 -0.4971
10830TIP3    H253906   6.744   3.751   0.794  0.8357 -0.5224 -0.3151
10831TIP3   OH253907   5.549   1.407   3.420  0.2601 -0.4086  0.2032
10831TIP3    H153908   5.576   1.476   3.479 -0.6628  1.4060 -1.3718
10831TIP3    H253909   5.625   1.393   3.363  0.4366 -0.6985  0.5042
10832TIP3   OH253910   2.304   6.294   6.567 -0.4100  0.0843  0.3382
10832TIP3    H153911   2.291   6.363   6.502  1.4400 -0.8724 -1.1368
10832TIP3    H253912   2.239   6.227   6.543 -0.4205  0.1742  0.1107
10833TIP3   OH253913   2.543   2.722  13.600 -0.2915 -0.7711 -0.2879
10833TIP3    H153914   2.478   2.750  13.665 -0.3470  0.1749 -0.7394
10833TIP3    H253915   2.532   2.627  13.595 -0.7927 -0.7662  0.5436
10834TIP3   OH253916   5.413   2.791  13.970  1.2329 -0.2069  0.1606
10834TIP3    H153917   5.474   2.863  13.986  2.3780 -1.1379  0.0968
10834TIP3    H253918   5.468   2.717  13.945 -0.0576 -0.3386 -2.8301
10835TIP3   OH253919   3.867   1.060  12.450 -0.0104 -0.7775  0.3980
10835TIP3    H153920   3.840   1.146  12.418  0.7256 -0.8288 -0.3755
10835TIP3    H253921   3.909   1.018  12.375 -1.1955 -2.1916  0.4803
10836TIP3   OH253922   4.620   0.321  17.213 -0.4220  0.1380  0.3193
10836TIP3    H153923   4.684   0.276  17.156 -0.8784 -0.5361  0.3350
10836TIP3    H253924   4.642   0.414  17.203 -0.2073  0.0038 -0.6217
10837TIP3   OH253925   2.917   4.121  15.716 -0.1455 -0.1562  0.0675
10837TIP3    H153926   2.931   4.027  15.705  2.0462  0.1231 -0.0358
10837TIP3    H253927   2.885   4.131  15.805  1.5306 -0.8635  0.7776
10838TIP3   OH253928   4.089   6.726  11.764  0.4985  0.2875  0.5055
10838TIP3    H153929   4.021   6.675  11.719  1.2575 -0.4947  0.2235
10838TIP3    H253930   4.088   6.811  11.719  1.8604 -0.7670 -1.6637
10839TIP3   OH253931   0.060   1.492   5.321  0.5636  0.2583  0.1274
10839TIP3    H153932   0.139   1.517   5.273 -0.5604  2.7026 -0.6341
10839TIP3    H253933   0.072   1.529   5.408  0.6437 -0.1614  0.2954
10840TIP3   OH253934   3.792   3.096  15.417  0.1155 -0.0735 -0.2810
10840TIP3    H153935   3.823   3.067  15.503  1.7648  1.2479 -0.3755
10840TIP3    H253936   3.828   3.184  15.407  0.1797 -0.2891 -2.4298
10841TIP3   OH253937   1.073   6.307  15.316  0.3792  0.0261 -0.4026
10841TIP3    H153938   1.104   6.347  15.397 -1.4915  1.2309 -0.2465
10841TIP3    H253939   1.034   6.224  15.344  1.3665 -0.4280 -0.3272
10842TIP3   OH253940   2.928   4.474  12.846  0.1805 -0.3557 -0.0803
10842TIP3    H153941   2.913   4.379  12.839  0.5993 -0.4851  0.7293
10842TIP3    H253942   2.870   4.512  12.780  0.4120 -1.2110 -0.8060
10843TIP3   OH253943   1.806   3.389   6.077  0.0069 -0.8467  0.5133
10843TIP3    H153944   1.717   3.385   6.042 -0.0426  1.6824  0.1659
10843TIP3    H253945   1.795   3.386   6.172 -0.7128  1.5345  0.5720
10844TIP3   OH253946   3.719   0.107   1.002  0.9691  0.2092 -0.2486
10844TIP3    H153947   3.712   0.054   1.081  0.3740  0.2230 -0.2931
10844TIP3    H253948   3.638   0.158   0.999  1.0815  0.3653 -0.7569
10845TIP3   OH253949   1.379   5.690  15.125  0.0036  0.6461 -0.7308
10845TIP3    H153950   1.292   5.726  15.141  0.8994  1.6871  2.4215
10845TIP3    H253951   1.400   5.718  15.035 -1.7343  2.9138 -0.5184
10846TIP3   OH253952   3.562   0.410  12.785  0.0158 -0.8131 -0.2850
10846TIP3    H153953   3.467   0.423  12.793  0.1355 -0.1194  0.0431
10846TIP3    H253954   3.596   0.430  12.872  0.4475 -1.2704 -0.3418
10847TIP3   OH253955   4.890   2.636   3.562  0.4829 -0.4068  0.3294
10847TIP3    H153956   4.971   2.671   3.598 -0.4590  1.7536  0.5436
10847TIP3    H253957   4.886   2.673   3.473 -0.5043 -0.0041  0.5255
10848TIP3   OH253958   4.738   3.509  13.701 -0.2210  0.2542 -0.0463
10848TIP3    H153959   4.730   3.415  13.717 -2.1416  0.0575 -1.7643
10848TIP3    H253960   4.693   3.523  13.618  1.4509  2.4741 -0.6590
10849TIP3   OH253961   5.740   6.717  11.344 -0.2444  0.1161  0.1441
10849TIP3    H153962   5.741   6.639  11.289 -0.4072 -0.3630  0.8019
10849TIP3    H253963   5.774   6.787  11.288  3.2632 -1.0956  0.5468
10850TIP3   OH253964   3.352   2.398   2.136  0.5824 -0.3966 -0.4590
10850TIP3    H153965   3.323   2.392   2.227  2.0001 -1.0899 -0.0199
10850TIP3    H253966   3.305   2.473   2.101 -0.2859 -0.3518  0.7300
10851TIP3   OH253967   1.836   4.817   5.516 -0.1830 -0.5874 -0.1133
10851TIP3    H153968   1.784   4.867   5.453  0.1998 -0.3207 -0.2277
10851TIP3    H253969   1.906   4.878   5.542 -0.7674 -0.4292  1.1391
10852TIP3   OH253970   6.641   1.144  10.999 -0.1595  0.1138 -0.5366
10852TIP3    H153971   6.667   1.145  10.907  0.1402 -3.2781 -0.6135
10852TIP3    H253972   6.546   1.135  10.998  0.0255 -3.4005 -0.7781
10853TIP3   OH253973   4.995   2.070  15.687 -0.3424 -0.6218 -0.1926
10853TIP3    H153974   5.051   1.997  15.714  0.6673  0.5667  1.0864
10853TIP3    H253975   5.039   2.148  15.721 -1.3575  0.6069 -1.5632
10854TIP3   OH253976   0.175   6.338   4.447 -0.0719 -0.0579  0.1726
10854TIP3    H153977   0.144   6.291   4.524 -0.8622 -0.1104 -0.1585
10854TIP3    H253978   0.269   6.323   4.445  0.0765  0.5206  1.5142
10855TIP3   OH253979   4.429   2.972  14.195  0.0854 -0.2634  0.0010
10855TIP3    H153980   4.437   2.974  14.099  0.9903 -0.3606  0.0666
10855TIP3    H253981   4.482   2.898  14.222 -0.6852 -0.6298  0.5472
10856TIP3   OH253982   2.914   4.590  12.168 -0.1039 -0.6790  0.3738
10856TIP3    H153983   3.006   4.568  12.158 -0.1705 -1.6844  1.7813
10856TIP3    H253984   2.871   4.549  12.093  0.6707  0.4884 -0.7487
10857TIP3   OH253985   6.722   1.095  12.208  0.2360 -0.4909 -0.0894
10857TIP3    H153986   6.654   1.154  12.177  0.8406  0.3013  0.0626
10857TIP3    H253987   6.708   1.014  12.159  0.5692  0.4092 -1.7619
10858TIP3   OH253988   5.983   4.268  15.940  0.4318 -0.5189  0.2865
10858TIP3    H153989   6.042   4.204  15.981 -1.3215 -1.1077  2.0982
10858TIP3    H253990   5.931   4.302  16.013 -0.9223  0.5445 -1.1143
10859TIP3   OH253991   3.264   6.213  15.685  0.0818 -0.8356 -0.4920
10859TIP3    H153992   3.337   6.159  15.716 -0.5095 -0.6053  1.4088
10859TIP3    H253993   3.237   6.172  15.603  1.7079 -1.5008 -0.7324
10860TIP3   OH253994   1.098   2.604   0.799  0.3504 -0.4170 -0.1005
10860TIP3    H153995   1.074   2.666   0.730 -0.4361  1.1113  1.4586
10860TIP3    H253996   1.053   2.523   0.776  0.9183 -0.2773 -1.8771
10861TIP3   OH253997   4.558   0.783  11.690  0.4566 -1.1607  0.0418
10861TIP3    H153998   4.574   0.812  11.780 -1.3300  1.0487 -0.2597
10861TIP3    H253999   4.464   0.793  11.678  0.2268 -4.0185 -1.2754
10862TIP3   OH254000   4.919   1.898   3.598 -0.4134  0.1712  0.2496
10862TIP3    H154001   4.828   1.902   3.567 -0.5063 -1.6948  0.1437
10862TIP3    H254002   4.948   1.810   3.575  1.3949  0.6863  0.4198
10863TIP3   OH254003   1.112   0.632  13.144  0.4696  0.3921  0.3836
10863TIP3    H154004   1.201   0.666  13.155  1.0418 -0.7923 -0.4866
10863TIP3    H254005   1.093   0.588  13.227  1.1352 -0.3274  0.1611
10864TIP3   OH254006   5.277   2.675   2.057 -0.3151 -0.4653 -0.4571
10864TIP3    H154007   5.272   2.690   1.963  0.2755  1.2112 -0.2508
10864TIP3    H254008   5.204   2.615   2.075 -0.3785 -0.8852 -1.9767
10865TIP3   OH254009   2.448   1.294   2.764  0.4926  0.0168  0.0044
10865TIP3    H154010   2.534   1.254   2.777  1.7306  2.3708 -0.4065
10865TIP3    H254011   2.401   1.232   2.708  2.3014 -0.8453 -0.6354
10866TIP3   OH254012   1.183   5.459  12.653  0.5295 -0.5188  0.3864
10866TIP3    H154013   1.247   5.529  12.667 -1.4035  1.4321  0.0985
10866TIP3    H254014   1.227   5.396  12.596  1.7300  1.4544 -0.9934
10867TIP3   OH254015   0.217   5.732  15.462 -0.1983 -0.0702 -0.6525
10867TIP3    H154016   0.276   5.657  15.466 -0.4824 -0.2533  0.8932
10867TIP3    H254017   0.130   5.693  15.452 -0.3727  0.0113  0.4122
10868TIP3   OH254018   1.508   0.880   4.411  0.1034 -0.0729 -0.5216
10868TIP3    H154019   1.488   0.907   4.501  1.7768  1.8877 -0.6532
10868TIP3    H254020   1.469   0.794   4.402  2.7910 -1.9989  3.2755
10869TIP3   OH254021   2.171   4.634  11.642  0.2270 -0.4039 -0.2066
10869TIP3    H154022   2.239   4.585  11.595 -0.2505 -0.3612 -0.9560
10869TIP3    H254023   2.185   4.725  11.616  0.2618 -0.3166  0.1166
10870TIP3   OH254024   4.232   4.371  11.173  0.3062  0.4462  0.1699
10870TIP3    H154025   4.181   4.328  11.104  1.2163  1.7764 -1.4185
10870TIP3    H254026   4.275   4.299  11.219 -0.7167 -0.5156 -0.3223
10871TIP3   OH254027   0.687   5.545   0.209  0.2024 -0.1281 -0.1293
10871TIP3    H154028   0.627   5.546   0.135 -0.3191  0.8683  0.3000
10871TIP3    H254029   0.668   5.462   0.254 -0.0641 -0.3411 -0.6279
10872TIP3   OH254030   2.499   3.761  14.926  0.1250  0.1401 -0.1506
10872TIP3    H154031   2.504   3.752  14.831 -0.1875  1.0358 -0.2568
10872TIP3    H254032   2.520   3.852  14.943  1.3675 -0.2855  0.7463
10873TIP3   OH254033   6.648   2.417  14.758  0.4405  0.1345  0.0972
10873TIP3    H154034   6.665   2.440  14.850 -1.8759  2.9495 -0.0234
10873TIP3    H254035   6.735   2.401  14.721  1.5151 -0.3061  2.5738
10874TIP3   OH254036   2.772   3.350   3.954 -0.1198  0.3935 -0.1686
10874TIP3    H154037   2.846   3.394   3.996 -0.5065  0.2396  0.7026
10874TIP3    H254038   2.738   3.414   3.891 -0.0992  0.9985  0.4195
10875TIP3   OH254039   6.114   0.288  13.724 -0.6796  0.4055 -1.0089
10875TIP3    H154040   6.087   0.304  13.815  0.4531  0.9347 -0.7477
10875TIP3    H254041   6.203   0.320  13.720 -0.8478  0.7390 -2.4315
10876TIP3   OH254042   2.039   0.359   5.337  0.2983 -0.1995 -0.0246
10876TIP3    H154043   2.090   0.279   5.328  1.0259  0.1662  0.6947
10876TIP3    H254044   1.966   0.349   5.276  1.9573 -0.1801 -2.1133
10877TIP3   OH254045   0.316   2.328   3.774  0.2224  0.3199 -0.7131
10877TIP3    H154046   0.348   2.324   3.864  2.9733 -0.9124 -1.6206
10877TIP3    H254047   0.272   2.413   3.767  0.3408  0.6381  1.6356
10878TIP3   OH254048   0.099   3.933   3.406 -0.3343 -0.0745  0.6012
10878TIP3    H154049   0.112   3.929   3.312  0.5197 -1.5241  0.7501
10878TIP3    H254050   0.149   4.009   3.435 -0.4148  0.2433 -0.0786
10879TIP3   OH254051   2.251   4.510   5.129  0.4976  0.4226 -0.3862
10879TIP3    H154052   2.266   4.419   5.154 -0.3007  0.4210  0.1366
10879TIP3    H254053   2.332   4.555   5.152 -0.4548  0.5955  3.1440
10880TIP3   OH254054   5.908   2.814   1.262 -0.7797 -0.0292 -0.2853
10880TIP3    H154055   5.860   2.821   1.345  0.7556 -0.8388  0.7244
10880TIP3    H254056   5.899   2.723   1.237 -0.0916 -0.1149 -0.2562
10881TIP3   OH254057   4.101   2.223  11.946 -0.1899 -0.4388 -0.1645
10881TIP3    H154058   4.152   2.146  11.971  0.3576  0.1589  0.5947
10881TIP3    H254059   4.099   2.278  12.024 -1.6273 -0.2262 -0.3088
10882TIP3   OH254060   4.654   5.413  13.090  0.8714 -0.0574 -0.4740
10882TIP3    H154061   4.574   5.461  13.066  1.4164  0.8214 -0.5581
10882TIP3    H254062   4.651   5.334  13.035 -0.2594 -0.3634 -0.0187
10883TIP3   OH254063   1.715   6.642   1.305 -0.4633 -0.3411  0.3509
10883TIP3    H154064   1.665   6.663   1.383  0.3647 -0.5893  0.9573
10883TIP3    H254065   1.763   6.563   1.327  0.7437  0.2755  0.0393
10884TIP3   OH254066   5.149   5.933  17.072  0.7726 -0.4648 -0.8384
10884TIP3    H154067   5.133   6.013  17.123  1.9595 -0.4365 -0.4667
10884TIP3    H254068   5.098   5.945  16.992 -1.0181 -0.4444  0.2661
10885TIP3   OH254069   4.671   5.026  13.463  0.3834  0.0127  0.2368
10885TIP3    H154070   4.609   4.955  13.445  0.1752 -0.3184  2.0502
10885TIP3    H254071   4.696   5.059  13.377 -0.3431 -1.5557 -0.6149
10886TIP3   OH254072   3.597   5.691   1.232  0.3889  0.0842 -0.1663
10886TIP3    H154073   3.581   5.754   1.302  1.4432  1.7083 -1.3126
10886TIP3    H254074   3.686   5.710   1.203 -0.3024  0.0632 -2.4995
10887TIP3   OH254075   2.091   6.241   3.884  0.2433 -0.5806 -0.3221
10887TIP3    H154076   2.020   6.259   3.946  0.1093  0.1081 -0.6613
10887TIP3    H254077   2.080   6.149   3.861 -0.4336 -0.5296 -0.2337
10888TIP3   OH254078   6.324   5.135  12.547  0.6044  0.5569  0.2292
10888TIP3    H154079   6.386   5.190  12.498 -0.0118  1.3870  0.3537
10888TIP3    H254080   6.300   5.189  12.622  1.8071 -0.8133  1.6923
10889TIP3   OH254081   4.049   4.115   1.290  0.4912 -0.5077 -0.4462
10889TIP3    H154082   4.093   4.131   1.374 -1.8043  1.7977  0.4434
10889TIP3    H254083   4.069   4.193   1.238 -1.8964  0.3073 -0.2398
10890TIP3   OH254084   4.303   2.905  16.559  0.3083 -0.4228 -0.2133
10890TIP3    H154085   4.327   2.831  16.503  0.1771  0.4315 -1.4443
10890TIP3    H254086   4.209   2.917  16.543  0.3086 -0.0502  0.0496
10891TIP3   OH254087   1.001   1.927   3.530  0.3007  0.3395  0.4635
10891TIP3    H154088   0.957   1.992   3.585  0.7381  1.3872 -0.3681
10891TIP3    H254089   1.007   1.970   3.444 -0.3787 -1.2408 -0.4136
10892TIP3   OH254090   2.205   3.239   3.583  0.5154  0.4178 -0.2247
10892TIP3    H154091   2.279   3.292   3.614  1.7491 -1.3695  0.0219
10892TIP3    H254092   2.245   3.163   3.542 -1.2002 -0.8043  0.2548
10893TIP3   OH254093   2.826   0.238   2.334 -0.0876 -0.0662  0.2810
10893TIP3    H154094   2.850   0.304   2.399  0.3140 -0.4076  0.4830
10893TIP3    H254095   2.730   0.234   2.339 -0.0001 -1.4454  2.2471
10894TIP3   OH254096   4.932   3.063  16.392  0.8182  0.1492 -0.3331
10894TIP3    H154097   4.901   2.974  16.374  1.6659  0.0931 -1.6365
10894TIP3    H254098   4.853   3.116  16.398  0.3417 -0.5521 -0.3649
10895TIP3   OH254099   4.409   2.141  15.786 -0.2819  0.4620  0.0367
10895TIP3    H154100   4.358   2.119  15.708  0.6707 -0.2068 -0.4147
10895TIP3    H254101   4.500   2.143  15.756  0.0306  0.9813  0.9651
10896TIP3   OH254102   0.639   5.144   0.575 -0.4457  0.8821  0.5253
10896TIP3    H154103   0.588   5.222   0.598 -1.3627  0.6084 -0.4814
10896TIP3    H254104   0.577   5.089   0.526  0.5872  0.1385  0.0329
10897TIP3   OH254105   5.750   1.280   5.996 -0.6622  0.3096  0.2171
10897TIP3    H154106   5.808   1.268   6.071  0.5987  0.9349 -0.6136
10897TIP3    H254107   5.723   1.191   5.973 -1.5810  0.1603  1.7746
10898TIP3   OH254108   4.492   6.488   6.094  0.2473 -0.0960 -0.2046
10898TIP3    H154109   4.535   6.526   6.017  0.8536  0.6536  0.4782
10898TIP3    H254110   4.530   6.535   6.168  0.7779 -1.8330  0.6763
10899TIP3   OH254111   4.610   5.891  12.830  0.2867  0.3997  0.5624
10899TIP3    H154112   4.597   5.800  12.806 -0.2071  0.2636  1.3199
10899TIP3    H254113   4.679   5.888  12.897  0.3483  0.5949  0.5091
10900TIP3   OH254114   3.555   0.711  12.806  0.0818  0.9077  0.0926
10900TIP3    H154115   3.532   0.800  12.835 -1.8260  0.2418  0.7737
10900TIP3    H254116   3.625   0.684  12.865 -0.2886  1.4596  0.8007
10901TIP3   OH254117   3.073   0.307  13.643 -0.2557 -0.1799 -0.2063
10901TIP3    H154118   3.045   0.351  13.724 -2.9517  0.6675 -1.5080
10901TIP3    H254119   3.037   0.219  13.650 -1.9314  0.4022 -1.1626
10902TIP3   OH254120   5.498   5.781   5.099  0.2637 -0.3810 -0.8756
10902TIP3    H154121   5.441   5.705   5.084  1.6865 -1.7159  0.2277
10902TIP3    H254122   5.455   5.852   5.051 -1.2495 -1.8003 -1.7435
10903TIP3   OH254123   1.705   6.236   2.101 -0.0919 -0.4061 -0.0190
10903TIP3    H154124   1.792   6.214   2.135 -0.5907  0.9715  2.3463
10903TIP3    H254125   1.695   6.180   2.024  3.2927  0.1369 -1.0181
10904TIP3   OH254126   3.481   3.690  12.947  0.9323  0.2617 -0.4424
10904TIP3    H154127   3.534   3.763  12.916  0.6297  0.9110  0.5091
10904TIP3    H254128   3.521   3.612  12.907  0.4902  1.0317 -2.4843
10905TIP3   OH254129   3.585   5.380  17.151  0.1060 -0.2625 -0.4939
10905TIP3    H154130   3.633   5.400  17.071  0.4297 -0.4463 -0.3514
10905TIP3    H254131   3.538   5.299  17.132 -0.0515 -0.1474 -0.5947
10906TIP3   OH254132   4.579   6.262  10.686  0.5067 -0.1162 -0.1083
10906TIP3    H154133   4.585   6.177  10.642  1.6482  1.0850 -2.4977
10906TIP3    H254134   4.505   6.306  10.642  0.1407  0.2549  0.8585
10907TIP3   OH254135   4.784   0.047  13.226 -0.9258 -0.1457 -0.1403
10907TIP3    H154136   4.821  -0.004  13.299  1.9461  1.1262 -0.5824
10907TIP3    H254137   4.831   0.015  13.149 -1.0571  1.2408 -0.8235
10908TIP3   OH254138   1.991   3.914  14.155  0.4612 -0.0557  0.4534
10908TIP3    H154139   1.956   3.987  14.207  1.6671  1.3674 -0.6428
10908TIP3    H254140   2.013   3.847  14.219  0.3458  0.9795  1.6111
10909TIP3   OH254141   1.711   6.515   3.175 -0.7182  0.8411  0.2612
10909TIP3    H154142   1.700   6.605   3.207 -1.2969  1.4776 -1.5884
10909TIP3    H254143   1.797   6.515   3.132 -1.4952  1.1088 -1.3995
10910TIP3   OH254144   3.851   0.842  11.067 -0.0139 -0.2344 -0.1542
10910TIP3    H154145   3.791   0.800  11.006  0.4870 -0.4981 -0.4811
10910TIP3    H254146   3.843   0.936  11.049 -1.8760 -0.0622  1.2648
10911TIP3   OH254147   5.367   2.391   6.260  0.6327  0.4345 -0.0424
10911TIP3    H154148   5.304   2.381   6.332 -1.6403  1.6668 -1.7366
10911TIP3    H254149   5.426   2.461   6.289 -0.5514  1.2566  0.4513
10912TIP3   OH254150   2.133   2.071   5.118 -0.1793 -0.2770 -0.5685
10912TIP3    H154151   2.165   2.157   5.092  0.2742  0.2256  1.4584
10912TIP3    H254152   2.038   2.081   5.124 -0.2005 -0.1521 -1.1030
10913TIP3   OH254153   3.180   5.386   2.979  0.1386  0.1540 -0.0236
10913TIP3    H154154   3.150   5.471   2.948 -0.6813 -0.0156  0.2939
10913TIP3    H254155   3.237   5.406   3.053 -0.8548  0.4019  0.7003
10914TIP3   OH254156   3.292   6.099   5.141 -0.2268 -0.7664  0.3083
10914TIP3    H154157   3.252   6.168   5.192 -0.5836  0.4973 -1.5840
10914TIP3    H254158   3.334   6.042   5.206  0.5598  1.4959  1.9053
10915TIP3   OH254159   2.785   4.670  12.390  0.4008  0.5878  0.4484
10915TIP3    H154160   2.846   4.667  12.317 -0.0873  0.7220  0.0335
10915TIP3    H254161   2.833   4.715  12.459  1.4208 -0.8566  0.7479
10916TIP3   OH254162   6.402   1.866   5.854 -0.3538 -0.3589 -0.1455
10916TIP3    H154163   6.333   1.920   5.816  0.7886 -0.0762 -1.9524
10916TIP3    H254164   6.442   1.922   5.921 -1.0694 -0.0770  0.0572
10917TIP3   OH254165   3.541   6.496   5.258  0.0305  0.1959 -0.4136
10917TIP3    H154166   3.619   6.474   5.206  0.7385  0.1647  0.6163
10917TIP3    H254167   3.524   6.588   5.237  1.4484  0.7490  0.6536
10918TIP3   OH254168   2.313   0.121  13.395  0.0413  0.4741 -0.2508
10918TIP3    H154169   2.341   0.153  13.481  0.5396 -0.0573 -0.2076
10918TIP3    H254170   2.218   0.136  13.394  0.1230  1.0658  0.1359
10919TIP3   OH254171   4.059   1.252  17.174  0.0865  0.1522 -0.0711
10919TIP3    H154172   4.005   1.232  17.250  0.2644  0.9161  0.2696
10919TIP3    H254173   4.080   1.167  17.136  2.0682 -0.4713  2.1907
10920TIP3   OH254174   1.668   6.147   1.317  0.0490 -0.7329  0.0457
10920TIP3    H154175   1.724   6.169   1.243 -0.5152 -1.2009 -0.5354
10920TIP3    H254176   1.727   6.143   1.392  0.5822  0.0454 -0.3173
10921TIP3   OH254177   4.603   5.649   0.120  0.0051 -0.0339 -0.0943
10921TIP3    H154178   4.530   5.613   0.169 -0.6315 -0.3991 -1.2776
10921TIP3    H254179   4.594   5.744   0.130  0.4697 -0.1137  1.2934
10922TIP3   OH254180   6.164   5.363  13.097  0.4982  0.3467 -0.0066
10922TIP3    H154181   6.107   5.373  13.021 -0.4236 -0.2247  0.5795
10922TIP3    H254182   6.109   5.319  13.162  1.0673  1.3547  1.2020
10923TIP3   OH254183   4.438   3.807  15.637 -0.3353  0.4416  0.0992
10923TIP3    H154184   4.470   3.762  15.716  1.2967  0.3643 -0.5710
10923TIP3    H254185   4.343   3.803  15.645 -0.2192 -0.6102  1.4834
10924TIP3   OH254186   3.906   0.719  17.059 -0.4552  0.2243  0.2750
10924TIP3    H154187   3.958   0.796  17.037 -0.0766 -0.3225 -0.8471
10924TIP3    H254188   3.836   0.753  17.115  1.5860  0.8326  2.6381
10925TIP3   OH254189   3.672   6.756   1.236 -0.6643 -0.2948 -0.0649
10925TIP3    H154190   3.669   6.759   1.332 -1.3232 -0.2259 -0.0826
10925TIP3    H254191   3.596   6.702   1.212 -1.7425  1.3915 -0.6289
10926TIP3   OH254192   2.407   3.886   5.237  0.2010 -0.3851  0.2077
10926TIP3    H154193   2.444   3.890   5.325 -1.0199  0.7386  0.6993
10926TIP3    H254194   2.324   3.840   5.248  0.0568 -0.2734 -0.3681
10927TIP3   OH254195   1.449   2.654  14.073 -0.0425 -0.9429 -0.1546
10927TIP3    H154196   1.400   2.720  14.024  0.2747 -0.9464 -0.4762
10927TIP3    H254197   1.540   2.681  14.064 -0.0810  0.4179  2.3641
10928TIP3   OH254198   3.517   1.751  11.570 -0.1253 -1.4028  0.3956
10928TIP3    H154199   3.469   1.676  11.605  0.9114 -2.2386  0.0836
10928TIP3    H254200   3.606   1.719  11.558 -0.3388 -1.1475 -2.8194
10929TIP3   OH254201   4.449   5.781  10.685 -0.0039  0.4909 -0.2252
10929TIP3    H154202   4.512   5.771  10.613  0.9783 -3.5987  0.9685
10929TIP3    H254203   4.376   5.724  10.661 -0.0851 -0.2061  1.5463
10930TIP3   OH254204   3.341   2.676  11.382  0.1659 -0.4917 -0.3728
10930TIP3    H154205   3.419   2.678  11.438 -1.1169 -1.8320  1.5880
10930TIP3    H254206   3.335   2.765  11.347  1.5889  0.1392  0.8646
10931TIP3   OH254207   3.970   4.144   1.628  0.1822 -0.1186  0.3423
10931TIP3    H154208   4.060   4.156   1.600 -0.3228 -0.3489 -1.5389
10931TIP3    H254209   3.953   4.050   1.615  0.3015 -0.5779  2.8520
10932TIP3   OH254210   5.123   1.664  16.080  0.4525  0.5866  1.0820
10932TIP3    H154211   5.207   1.695  16.045  0.8680  0.2326  1.7381
10932TIP3    H254212   5.115   1.574  16.049  1.0087  0.1382  2.1676
10933TIP3   OH254213   0.116   3.403  12.001  0.3873  0.7864 -0.1952
10933TIP3    H154214   0.197   3.399  11.950 -0.0926 -1.0956 -0.8930
10933TIP3    H254215   0.058   3.339  11.959  0.0638 -1.1247  2.8641
10934TIP3   OH254216   3.349   2.183  11.293  0.4518 -0.0186  0.0895
10934TIP3    H154217   3.274   2.201  11.235  0.1984  1.4134  0.8178
10934TIP3    H254218   3.404   2.123  11.243 -0.5301 -0.0495 -1.0018
10935TIP3   OH254219   1.362   3.362   0.370  0.0726  0.4560  0.3334
10935TIP3    H154220   1.407   3.368   0.286  0.4111 -0.2550  0.4637
10935TIP3    H254221   1.424   3.398   0.433 -0.0724  0.7296  0.3214
10936TIP3   OH254222   0.058   1.406  15.045  0.4761  0.3450 -0.2987
10936TIP3    H154223   0.029   1.407  14.954 -0.1276  1.5412 -0.1170
10936TIP3    H254224  -0.012   1.451  15.093  0.9230 -0.0145  0.7058
10937TIP3   OH254225   5.258   0.502  12.821 -0.4292  0.0355  0.1590
10937TIP3    H154226   5.298   0.555  12.890  0.3585 -0.9100  0.4498
10937TIP3    H254227   5.305   0.527  12.741 -1.1118  0.8821  0.0075
10938TIP3   OH254228   0.665   2.747  12.722 -0.1196  0.0856  0.0638
10938TIP3    H154229   0.657   2.813  12.791 -2.1935 -0.0356 -0.0040
10938TIP3    H254230   0.575   2.721  12.703  0.6375 -3.4713  0.7408
10939TIP3   OH254231   2.673   2.369  12.447 -0.3104 -0.0328 -0.3196
10939TIP3    H154232   2.675   2.296  12.509  2.9425  1.0239  0.9979
10939TIP3    H254233   2.609   2.429  12.485  0.0185 -0.3805  0.8380
10940TIP3   OH254234   1.947   6.265   3.618  0.2255 -0.3307  0.2539
10940TIP3    H154235   2.010   6.194   3.625  2.1285  1.0047 -1.9376
10940TIP3    H254236   1.953   6.311   3.702  2.1284 -0.3055  0.1453
10941TIP3   OH254237   2.155   5.289  14.217  0.0329  0.3849  0.5261
10941TIP3    H154238   2.116   5.375  14.237 -2.2053 -0.6391  0.8854
10941TIP3    H254239   2.133   5.273  14.126  2.5233  1.1500 -0.2978
10942TIP3   OH254240   2.920   1.527  16.512 -0.3961 -0.6111  0.2257
10942TIP3    H154241   2.838   1.555  16.553 -0.5811  0.2493 -0.7006
10942TIP3    H254242   2.903   1.535  16.418  1.6350  2.2624  0.0056
10943TIP3   OH254243   0.596   4.977  15.120 -0.5913  0.0284 -0.3233
10943TIP3    H154244   0.526   5.019  15.171 -1.6655  0.0743 -1.7621
10943TIP3    H254245   0.562   4.890  15.099  0.9473 -1.0148  1.2359
10944TIP3   OH254246   0.287   4.121   5.398 -0.0574 -0.0264  0.0769
10944TIP3    H154247   0.262   4.029   5.399 -1.3099  0.2639  2.4882
10944TIP3    H254248   0.382   4.120   5.410  0.0942 -1.0012 -1.0657
10945TIP3   OH254249   0.606   4.746   5.052  0.2997 -0.1601  0.3539
10945TIP3    H154250   0.560   4.823   5.083  1.0761  0.2369  0.5408
10945TIP3    H254251   0.623   4.694   5.130 -0.9907 -0.9794  0.1369
10946TIP3   OH254252   2.119   0.336   2.111 -0.6818  0.0344 -0.2270
10946TIP3    H154253   2.056   0.392   2.066 -0.1018  0.3572 -0.6416
10946TIP3    H254254   2.079   0.249   2.109 -0.0988 -0.2412 -2.5537
10947TIP3   OH254255   0.693   1.535   2.492 -0.3066  0.0253 -0.2450
10947TIP3    H154256   0.616   1.478   2.487  0.7655 -1.3950 -1.3274
10947TIP3    H254257   0.687   1.590   2.413 -1.9602  2.3508  1.3728
10948TIP3   OH254258   2.121   4.451  16.472  0.1648  0.4414 -0.1872
10948TIP3    H154259   2.205   4.458  16.516  0.4985 -0.2330 -0.7040
10948TIP3    H254260   2.121   4.522  16.408  0.2654  0.5457 -0.0722
10949TIP3   OH254261   5.403   0.550  15.621  0.2887  0.2861 -0.1783
10949TIP3    H154262   5.311   0.556  15.646  0.1835 -1.5774  0.0365
10949TIP3    H254263   5.451   0.569  15.702  0.1202  1.5544 -0.3602
10950TIP3   OH254264   6.217   6.270   3.700  0.2892 -0.2350 -0.1478
10950TIP3    H154265   6.139   6.239   3.656  0.6636  2.0120 -2.6597
10950TIP3    H254266   6.187   6.297   3.786 -1.7169  0.5261 -1.0332
10951TIP3   OH254267   0.329   2.282  14.502  0.1948  0.5181 -0.0110
10951TIP3    H154268   0.304   2.298  14.411 -0.7750 -0.7668  0.0051
10951TIP3    H254269   0.348   2.370  14.537  2.6956  0.8568 -1.9938
10952TIP3   OH254270   4.542   4.034  15.880  0.2179 -0.1707 -0.0422
10952TIP3    H154271   4.627   4.077  15.890  0.8057 -1.3265  0.1458
10952TIP3    H254272   4.563   3.941  15.869 -0.9207 -0.2692 -1.9533
10953TIP3   OH254273   5.739   3.281   4.863  0.1673 -0.1417  0.0726
10953TIP3    H154274   5.712   3.253   4.950 -1.0879 -0.3614 -0.3571
10953TIP3    H254275   5.683   3.356   4.843  0.4841 -0.0540 -0.5048
10954TIP3   OH254276   2.911   1.933  14.377 -0.6336  0.2559  0.2927
10954TIP3    H154277   2.972   1.958  14.447 -0.9861  0.5633  0.4998
10954TIP3    H254278   2.833   1.986  14.394 -0.9128 -0.0430 -0.0395
10955TIP3   OH254279   1.139   3.672   3.876 -0.6376  0.3950 -0.3585
10955TIP3    H154280   1.227   3.633   3.870 -2.0862 -3.3484 -0.2066
10955TIP3    H254281   1.112   3.655   3.967 -1.0978  2.6822 -0.0212
10956TIP3   OH254282   2.033   2.860   0.042  0.5367  0.3033  0.6287
10956TIP3    H154283   2.052   2.925   0.110  2.1637 -0.5976  1.0941
10956TIP3    H254284   2.063   2.901  -0.039  1.0679  0.3499  0.8444
10957TIP3   OH254285   4.443   0.498  15.644  0.1207  0.4647 -0.6044
10957TIP3    H154286   4.528   0.494  15.599  0.3400  0.7195 -0.2146
10957TIP3    H254287   4.379   0.508  15.573  0.1654 -2.2052 -1.1280
10958TIP3   OH254288   3.003   3.439  11.697  0.0854  0.1742 -0.1487
10958TIP3    H154289   3.032   3.490  11.773 -1.4243  0.8982 -0.0172
10958TIP3    H254290   3.052   3.357  11.703 -1.3387 -0.5749  2.7020
10959TIP3   OH254291   2.048   5.786  12.034 -0.0017  0.3636  0.4658
10959TIP3    H154292   2.068   5.772  12.126 -0.9323  1.0964  0.7894
10959TIP3    H254293   2.045   5.697  11.997  1.4278  0.1122  0.8878
10960TIP3   OH254294   5.842   0.383   4.286 -0.0784 -0.0187  0.4403
10960TIP3    H154295   5.862   0.300   4.329  1.9710  1.8391  3.4709
10960TIP3    H254296   5.758   0.410   4.326  0.2157  0.2162  0.9121
10961TIP3   OH254297   0.738   0.449  14.197 -0.7739 -0.5372  0.0324
10961TIP3    H154298   0.728   0.393  14.274 -0.9737  0.3670  0.6819
10961TIP3    H254299   0.833   0.464  14.191 -0.7962 -0.1588  0.4582
10962TIP3   OH254300   1.116   5.085  15.481  0.0972  0.7150  0.6070
10962TIP3    H154301   1.112   5.023  15.553 -0.9381 -0.3978 -0.3719
10962TIP3    H254302   1.042   5.144  15.495 -0.5282  0.0688  0.0996
10963TIP3   OH254303   3.806   2.027  14.521 -0.3509 -0.2715  0.1336
10963TIP3    H154304   3.890   2.001  14.482 -0.4660 -0.6550  0.1369
10963TIP3    H254305   3.747   2.040  14.447  0.3330  2.3744 -0.0540
10964TIP3   OH254306   5.760   5.660  15.619 -0.1740 -0.2514  0.3229
10964TIP3    H154307   5.812   5.690  15.694  1.6704 -0.1712 -0.9236
10964TIP3    H254308   5.695   5.602  15.657 -0.6809  1.4234  2.2247
10965TIP3   OH254309   4.527   4.391   1.346 -0.1300  0.6605 -0.5132
10965TIP3    H154310   4.571   4.439   1.416  2.1842 -0.3693 -1.1559
10965TIP3    H254311   4.535   4.299   1.371  0.8257  0.2693 -2.1072
10966TIP3   OH254312   6.011   2.552   5.720 -0.5550 -0.1391 -0.3005
10966TIP3    H154313   5.928   2.596   5.703 -0.4850  0.1513  0.0947
10966TIP3    H254314   5.990   2.459   5.716 -1.0282 -0.0686  0.4005
10967TIP3   OH254315   4.094   3.352  15.846  0.3694  0.3909  0.2606
10967TIP3    H154316   4.181   3.360  15.808  0.4602  0.1511  0.4219
10967TIP3    H254317   4.034   3.365  15.772  0.5393  0.6878  0.1753
10968TIP3   OH254318   0.864   1.375  12.005  0.1188 -0.1897 -0.1578
10968TIP3    H154319   0.851   1.470  12.013 -0.0262 -0.2097 -0.1690
10968TIP3    H254320   0.835   1.340  12.089  2.2831  0.0013  0.7560
10969TIP3   OH254321   5.074   2.542  14.072  0.0278  0.0985 -0.0220
10969TIP3    H154322   4.987   2.582  14.068  0.5642  1.2737 -0.6993
10969TIP3    H254323   5.083   2.494  13.989  0.3778  0.8040 -0.4074
10970TIP3   OH254324   4.072   1.150   5.088  0.3873 -0.0396 -0.1183
10970TIP3    H154325   4.145   1.090   5.102  0.2889 -0.5028 -1.4552
10970TIP3    H254326   4.017   1.141   5.167  1.9402  0.6139  1.0916
10971TIP3   OH254327   3.927   3.475   1.544 -0.1551 -0.3179 -0.6830
10971TIP3    H154328   3.998   3.412   1.550 -0.4979 -0.5898  1.3693
10971TIP3    H254329   3.927   3.519   1.629 -0.7402  1.5791 -1.5958
10972TIP3   OH254330   2.202   2.044   3.485 -0.0183  0.0390  0.0288
10972TIP3    H154331   2.137   1.976   3.506  0.9684 -0.6372  1.0670
10972TIP3    H254332   2.214   2.091   3.568 -0.5619  1.4096 -0.6365
10973TIP3   OH254333   0.504   6.709  13.982  0.3516  0.1314  0.1659
10973TIP3    H154334   0.556   6.789  13.985 -0.4906  0.6820  0.0821
10973TIP3    H254335   0.440   6.719  14.052 -0.1608 -0.1979 -0.2518
10974TIP3   OH254336   4.211   4.725  14.520 -0.2105 -0.1665 -0.1948
10974TIP3    H154337   4.162   4.686  14.448 -1.5050  1.7032 -0.4086
10974TIP3    H254338   4.143   4.753  14.582  0.7044  0.7222  0.4320
10975TIP3   OH254339   3.344   6.194   0.971  0.2971 -0.1558  0.1552
10975TIP3    H154340   3.369   6.125   1.032 -1.1923  0.3929  1.4712
10975TIP3    H254341   3.292   6.255   1.024  1.4115  1.9102 -0.9832
10976TIP3   OH254342   4.322   4.185  16.400  0.0087 -0.2639  0.3921
10976TIP3    H154343   4.239   4.221  16.368 -0.0252  0.5411  1.3057
10976TIP3    H254344   4.317   4.092  16.380  0.0117  0.1768 -1.9006
10977TIP3   OH254345   0.035   3.876   3.127 -0.5705 -0.1293  0.4401
10977TIP3    H154346  -0.010   3.851   3.046  0.4121 -0.5978  0.0258
10977TIP3    H254347   0.128   3.876   3.104 -0.3701  1.7804  1.0013
10978TIP3   OH254348   4.018   1.959   4.029 -0.0993  0.0714 -0.1745
10978TIP3    H154349   4.092   1.993   4.080  0.5087 -0.4064 -0.7042
10978TIP3    H254350   4.059   1.902   3.963 -0.8641  0.5629 -1.1102
10979TIP3   OH254351   5.471   1.047   4.478 -0.4903 -0.4318 -0.5210
10979TIP3    H154352   5.409   1.043   4.550 -0.9887 -1.9673 -0.9931
10979TIP3    H254353   5.498   1.139   4.474 -1.5654 -0.0424  0.6604
10980TIP3   OH254354   5.503   0.861  16.678  0.5893 -0.1505  0.8879
10980TIP3    H154355   5.464   0.822  16.600  0.7895  0.1251  0.6473
10980TIP3    H254356   5.595   0.835  16.674  1.1008  1.6339 -0.1269
10981TIP3   OH254357   2.927   4.105  11.930 -0.4756  0.1257  0.1526
10981TIP3    H154358   2.835   4.079  11.916 -0.8134  0.4697  1.6075
10981TIP3    H254359   2.961   4.039  11.990  0.6675 -0.8044 -1.4527
10982TIP3   OH254360   3.604   0.913  13.716 -0.1844  0.1481 -0.3609
10982TIP3    H154361   3.667   0.904  13.788 -0.3971 -2.3749 -0.3873
10982TIP3    H254362   3.658   0.918  13.637  0.0158 -0.0205 -0.2367
10983TIP3   OH254363   0.662   1.447  15.281  0.2205  0.1292 -0.1140
10983TIP3    H154364   0.579   1.431  15.236 -0.4071  1.6461  0.4341
10983TIP3    H254365   0.662   1.386  15.354  0.3558 -0.9998 -1.0246
10984TIP3   OH254366   4.855   0.266  11.667  0.4306  0.3068  0.0361
10984TIP3    H154367   4.913   0.194  11.691  1.7435  1.2927 -0.0718
10984TIP3    H254368   4.851   0.262  11.571  0.6886  0.4887  0.0138
10985TIP3   OH254369   2.151   5.680  14.462  0.4718 -0.0552  0.0940
10985TIP3    H154370   2.086   5.611  14.452  0.5708 -0.3105  1.1460
10985TIP3    H254371   2.112   5.741  14.525  0.8388  0.2933 -0.0106
10986TIP3   OH254372   5.815   3.585  12.118  0.3895 -0.4057 -0.4246
10986TIP3    H154373   5.771   3.634  12.188  0.4808 -1.1577  0.1818
10986TIP3    H254374   5.743   3.549  12.066  0.3203  0.7998 -1.2120
10987TIP3   OH254375   4.395   5.372  15.259  0.3750  0.1716 -0.3528
10987TIP3    H154376   4.478   5.407  15.290  0.7789  0.3601 -1.5868
10987TIP3    H254377   4.415   5.282  15.234  0.1115  0.0917 -0.2830
10988TIP3   OH254378   6.269   4.883  12.468 -0.0257 -0.1586 -0.1032
10988TIP3    H154379   6.330   4.815  12.494 -1.2273 -0.5517  1.8807
10988TIP3    H254380   6.307   4.964  12.501 -1.5408 -0.6513  3.2339
10989TIP3   OH254381   0.691   2.617  14.095  0.5140 -0.0581 -0.0233
10989TIP3    H154382   0.695   2.634  14.189  0.5326  0.1131 -0.0557
10989TIP3    H254383   0.746   2.539  14.083 -1.2803 -1.4763  0.4385
10990TIP3   OH254384   1.979   6.179  15.945  0.3518 -0.0181  0.1732
10990TIP3    H154385   1.995   6.133  16.027 -0.8259  0.3279  0.6235
10990TIP3    H254386   2.066   6.198  15.911  0.8588 -0.7622  0.9996
10991TIP3   OH254387   3.088   4.274  13.516 -0.3695 -0.6684 -0.0984
10991TIP3    H154388   3.034   4.334  13.567 -1.3084 -1.9543  0.4865
10991TIP3    H254389   3.081   4.306  13.426 -2.0706 -0.7474 -0.0240
10992TIP3   OH254390   0.294   3.573  15.096  0.2370 -0.4767 -0.4640
10992TIP3    H154391   0.377   3.597  15.139 -0.1609 -0.2289  0.1744
10992TIP3    H254392   0.315   3.577  15.002  0.9375 -0.3666 -0.3133
10993TIP3   OH254393   2.464   1.527  16.798  0.3488  0.4190 -0.0376
10993TIP3    H154394   2.488   1.619  16.810  1.5981  0.2018 -0.7252
10993TIP3    H254395   2.545   1.479  16.812 -0.1145 -0.5215 -0.5017
10994TIP3   OH254396   6.558   5.146  13.922 -0.4119  0.5935 -0.0203
10994TIP3    H154397   6.628   5.122  13.984 -0.4987 -1.6707 -0.6933
10994TIP3    H254398   6.484   5.091  13.948 -0.4160 -0.4994 -2.1584
10995TIP3   OH254399   5.178   5.166  16.415  0.0768  0.0550  0.0859
10995TIP3    H154400   5.173   5.071  16.428 -0.1175  0.0951  0.3094
10995TIP3    H254401   5.141   5.203  16.495 -2.9936  0.3020 -1.3150
10996TIP3   OH254402   0.198   3.743  12.430  0.4431  0.6803  0.1563
10996TIP3    H154403   0.209   3.671  12.368 -0.7132 -0.4117  1.1484
10996TIP3    H254404   0.138   3.708  12.496  0.7577  2.1792  1.2853
10997TIP3   OH254405   4.869   3.966  14.021  0.3293 -0.1184  0.1270
10997TIP3    H154406   4.903   3.909  14.089  0.8876 -0.0137 -0.0598
10997TIP3    H254407   4.774   3.959  14.029  0.3645 -1.8019 -0.4922
10998TIP3   OH254408   2.766   5.216   0.062 -0.3162  0.2435 -0.1129
10998TIP3    H154409   2.850   5.170   0.053  1.5579  2.5818  2.9568
10998TIP3    H254410   2.719   5.168   0.130 -0.2973  0.3732 -0.0069
10999TIP3   OH254411   3.760   3.332   4.104 -0.2663 -0.4157 -0.0047
10999TIP3    H154412   3.684   3.284   4.072  1.1423 -1.6727 -1.6729
10999TIP3    H254413   3.773   3.299   4.193  1.1657 -4.0202 -1.3589
11000TIP3   OH254414   2.571   6.109   4.209  0.1454  0.5052 -0.0390
11000TIP3    H154415   2.629   6.049   4.162 -2.2050 -1.4277 -0.7087
11000TIP3    H254416   2.557   6.181   4.149  0.9312  0.4220 -0.3299
11001TIP3   OH254417   6.058   3.367  13.824  0.1707  0.9378 -0.2814
11001TIP3    H154418   6.057   3.390  13.731 -0.0323 -0.3593 -0.6339
11001TIP3    H254419   6.050   3.450  13.870 -0.5667  1.5393 -1.4463
11002TIP3   OH254420   3.905   1.309  12.298  0.3891 -0.4660 -0.0877
11002TIP3    H154421   3.848   1.386  12.302 -3.7070 -3.0739 -0.8892
11002TIP3    H254422   3.934   1.306  12.207 -0.6204 -0.5377 -0.4274
11003TIP3   OH254423   4.317   0.522  17.008  0.8988  0.6536  0.2333
11003TIP3    H154424   4.308   0.438  16.963 -0.0258  1.9893 -2.2432
11003TIP3    H254425   4.265   0.511  17.088 -0.1900 -0.7817 -0.6132
11004TIP3   OH254426   4.126   5.544   1.545  0.6198  0.1702  0.1250
11004TIP3    H154427   4.198   5.482   1.555 -0.1637 -0.5600  1.4584
11004TIP3    H254428   4.137   5.605   1.617 -1.3621 -1.2991  1.7897
11005TIP3   OH254429   5.803   4.116   6.116 -0.1379  0.1920  0.2180
11005TIP3    H154430   5.866   4.181   6.085  0.0334 -0.3604 -0.6317
11005TIP3    H254431   5.722   4.136   6.067  0.2423 -0.9171 -0.9021
11006TIP3   OH254432   4.131   1.519   4.728 -0.1280  0.2399 -0.0297
11006TIP3    H154433   4.110   1.486   4.816  1.3854 -1.4693 -0.2382
11006TIP3    H254434   4.219   1.556   4.737 -0.2873  0.7847 -0.6691
11007TIP3   OH254435   3.031   0.438   1.260 -0.1559  0.2690  0.1796
11007TIP3    H154436   2.963   0.422   1.325  0.8923  0.4231  1.3636
11007TIP3    H254437   2.985   0.438   1.176 -1.9132  2.1868  1.0544
11008TIP3   OH254438   0.498   6.496   6.835 -0.4173 -0.2014  0.3218
11008TIP3    H154439   0.488   6.411   6.878 -1.2978 -0.5540 -0.5354
11008TIP3    H254440   0.566   6.480   6.769 -1.2178 -0.5052 -0.4477
11009TIP3   OH254441   2.129   0.634   2.271 -0.0457  0.6227  0.1388
11009TIP3    H154442   2.072   0.684   2.330  0.4004  0.3480  0.8139
11009TIP3    H254443   2.208   0.617   2.322 -0.3342 -1.1054  0.0781
11010TIP3   OH254444   4.469   3.389   4.699 -0.1193 -0.2158  0.3186
11010TIP3    H154445   4.486   3.427   4.612  0.6062  1.3105  1.0758
11010TIP3    H254446   4.393   3.333   4.686 -0.8010  0.9443 -1.0678
11011TIP3   OH254447   2.905   6.107  13.742 -0.4386  0.6249 -0.1871
11011TIP3    H154448   2.857   6.185  13.768 -0.2285 -0.0501  2.5824
11011TIP3    H254449   2.986   6.111  13.794  0.3606 -0.5808 -1.2821
11012TIP3   OH254450   6.159   0.485  13.108  0.2805  0.1001  0.1116
11012TIP3    H154451   6.164   0.431  13.186 -0.1672  0.9650  0.7487
11012TIP3    H254452   6.089   0.548  13.125 -0.9856 -0.7408 -1.6568
11013TIP3   OH254453   4.622   2.543   2.857  0.1131 -0.2268  0.1268
11013TIP3    H154454   4.623   2.587   2.942 -1.7210  0.6653 -0.2421
11013TIP3    H254455   4.626   2.615   2.793  1.7795 -0.8935 -0.5769
11014TIP3   OH254456   1.689   4.088  13.985 -0.3616  0.0540 -0.3529
11014TIP3    H154457   1.654   4.001  13.966  2.2364 -1.6509  1.9607
11014TIP3    H254458   1.658   4.107  14.073  0.3717  0.7844 -0.2498
11015TIP3   OH254459   0.362   0.739  12.639 -0.7280 -0.4804 -0.2742
11015TIP3    H154460   0.319   0.660  12.671 -0.5909 -0.6964 -0.6232
11015TIP3    H254461   0.414   0.710  12.565  0.7739 -0.3952  0.7114
11016TIP3   OH254462   3.297   0.938   2.690 -0.8297  0.3636 -0.3206
11016TIP3    H154463   3.354   0.870   2.654 -2.3653 -0.9737 -0.3485
11016TIP3    H254464   3.211   0.896   2.696 -1.8016  2.2753 -0.2070
11017TIP3   OH254465   2.995   6.632   3.127  0.7984  1.1623 -0.0917
11017TIP3    H154466   2.980   6.669   3.040 -2.1961  0.6766  0.1346
11017TIP3    H254467   2.930   6.674   3.183  0.2537 -1.1603  1.1319
11018TIP3   OH254468   4.169   0.611   0.045  0.1216 -0.3486 -0.2755
11018TIP3    H154469   4.166   0.706   0.034  0.6244 -0.2192  0.6132
11018TIP3    H254470   4.129   0.576  -0.035  0.7913  0.5905 -1.0461
11019TIP3   OH254471   3.811   1.179  15.056 -0.6290  0.0417 -0.5344
11019TIP3    H154472   3.769   1.266  15.056  1.6681  1.2585  0.6466
11019TIP3    H254473   3.810   1.153  15.148  2.1073  0.6750 -0.2457
11020TIP3   OH254474   4.499   0.005  15.909  0.6268  0.0645  0.1591
11020TIP3    H154475   4.486   0.083  15.855  4.2348  0.6278 -0.1613
11020TIP3    H254476   4.483  -0.068  15.849 -0.2075  0.5755 -0.2612
11021TIP3   OH254477   3.508   6.297   1.268 -0.2956 -0.4782 -0.2164
11021TIP3    H154478   3.477   6.215   1.229  0.8991 -1.2173  0.3379
11021TIP3    H254479   3.457   6.304   1.349  0.3242 -1.2262  0.2521
11022TIP3   OH254480   3.337   4.001  10.647  0.0970  0.4062  0.5454
11022TIP3    H154481   3.270   4.064  10.619  2.6684  2.0467 -2.5554
11022TIP3    H254482   3.405   4.055  10.687  0.5942 -0.9551  1.6048
11023TIP3   OH254483   1.804   0.462   2.772 -0.0317 -0.3168 -0.0026
11023TIP3    H154484   1.874   0.423   2.720  1.0801  0.3449  0.9541
11023TIP3    H254485   1.849   0.518   2.835 -1.3371 -1.0371  1.6465
11024TIP3   OH254486   0.396   4.360   2.968  0.3969 -0.6235  0.0587
11024TIP3    H154487   0.408   4.404   3.053  4.1785 -0.4643 -0.3612
11024TIP3    H254488   0.373   4.431   2.908  2.0091  0.1100  0.2337
11025TIP3   OH254489   4.013   3.249   5.382 -0.8563 -0.3510  0.1083
11025TIP3    H154490   4.015   3.294   5.466 -0.9102  0.4678 -0.3174
11025TIP3    H254491   4.097   3.203   5.378 -0.1021  0.9727 -0.1032
11026TIP3   OH254492   4.929   0.722  15.202  0.3363  1.0235  0.0229
11026TIP3    H154493   4.981   0.704  15.124  1.1501 -3.7102  1.3682
11026TIP3    H254494   4.985   0.699  15.275 -2.0938  0.1201  1.7412
11027TIP3   OH254495   0.213   2.817   3.267 -0.2855  0.3292  0.0820
11027TIP3    H154496   0.292   2.777   3.229  0.5083  0.3625  1.5979
11027TIP3    H254497   0.247   2.885   3.325 -1.4140  0.1116  1.0250
11028TIP3   OH254498   0.307   2.695  16.314 -0.2937  0.6059  0.8980
11028TIP3    H154499   0.258   2.683  16.233 -0.1178  2.3171  0.5058
11028TIP3    H254500   0.301   2.610  16.358  0.2932 -0.6334 -1.2590
11029TIP3   OH254501   0.432   0.139   0.466  0.1260 -0.0523  0.4009
11029TIP3    H154502   0.517   0.181   0.451 -0.1686  0.5039  0.2354
11029TIP3    H254503   0.433   0.115   0.558  0.8775 -1.0157  0.1628
11030TIP3   OH254504   6.236   1.766   3.160 -0.8321  0.6847 -0.6822
11030TIP3    H154505   6.268   1.795   3.246  0.6540 -1.3135 -0.4961
11030TIP3    H254506   6.175   1.695   3.180  0.1801 -0.3766 -1.2876
11031TIP3   OH254507   1.725   6.778   1.063 -0.1271  0.1722 -0.3249
11031TIP3    H154508   1.682   6.859   1.090 -0.0508 -0.0186  0.3955
11031TIP3    H254509   1.716   6.719   1.139  0.5415 -0.2016 -0.5221
11032TIP3   OH254510   2.643   5.905  14.455 -0.4643  0.2793 -0.0596
11032TIP3    H154511   2.571   5.845  14.436 -0.3957  0.0576  0.3572
11032TIP3    H254512   2.702   5.854  14.511  0.6233  0.0481 -1.3829
11033TIP3   OH254513   0.173   2.621  14.937  0.2975 -0.4876  0.1806
11033TIP3    H154514   0.201   2.544  14.887  1.5638  0.0115  0.0964
11033TIP3    H254515   0.237   2.628  15.008  0.4614  0.7337 -0.0705
11034TIP3   OH254516   2.590   5.383   5.181  0.5024 -0.4330 -0.3327
11034TIP3    H154517   2.637   5.443   5.240  0.6258  0.4406 -1.3015
11034TIP3    H254518   2.655   5.358   5.116 -0.5308  1.4264 -2.1681
11035TIP3   OH254519   1.547   6.663   6.066  0.3609  0.4441 -0.4472
11035TIP3    H154520   1.597   6.639   6.145  0.2840  2.7470  0.3758
11035TIP3    H254521   1.486   6.591   6.054  0.8064 -0.2745  1.2482
11036TIP3   OH254522   2.120   4.496  15.878 -0.0354 -0.2188  0.4025
11036TIP3    H154523   2.049   4.461  15.932 -0.5121  0.0667 -0.0281
11036TIP3    H254524   2.085   4.495  15.789  0.2073  0.6355  0.2846
11037TIP3   OH254525   2.427   0.359   4.123  0.1740  0.1455 -0.0420
11037TIP3    H154526   2.378   0.281   4.148 -1.0859  0.9690  0.1005
11037TIP3    H254527   2.430   0.356   4.027  0.9745 -0.5576 -0.0157
11038TIP3   OH254528   0.798   6.248   5.183 -0.0248  0.2341 -0.2550
11038TIP3    H154529   0.760   6.257   5.096 -1.1630  0.2827  0.2386
11038TIP3    H254530   0.888   6.281   5.173 -0.5695  1.5307 -1.0979
11039TIP3   OH254531   0.022   1.111   0.002 -0.0795 -0.3537  0.2793
11039TIP3    H154532   0.113   1.091   0.021 -0.0693 -0.1536  0.4514
11039TIP3    H254533  -0.027   1.071   0.074 -0.1013 -0.2082  0.3459
11040TIP3   OH254534   6.578   1.173  15.037 -0.2457  0.0893 -0.3365
11040TIP3    H154535   6.556   1.201  15.126  0.5424 -0.2923 -0.0145
11040TIP3    H254536   6.634   1.096  15.049 -0.7086 -0.3855 -1.1757
11041TIP3   OH254537   5.510   4.171  14.545  0.0189  0.1371  0.0603
11041TIP3    H154538   5.567   4.216  14.483 -0.6197  2.4931  1.0814
11041TIP3    H254539   5.431   4.224  14.549 -1.6814 -2.1967 -0.1389
11042TIP3   OH254540   2.042   0.495   4.623  0.4405 -0.3250 -0.5337
11042TIP3    H154541   2.101   0.469   4.694  0.1350  0.0890 -0.1230
11042TIP3    H254542   1.956   0.502   4.665  0.4451  1.0182 -0.6849
11043TIP3   OH254543   0.763   2.219  12.733  0.2696  0.4982  0.1572
11043TIP3    H154544   0.812   2.253  12.658 -0.9689 -0.1059 -0.9813
11043TIP3    H254545   0.688   2.277  12.741 -2.2566 -2.0666 -2.2570
11044TIP3   OH254546   1.141   3.598  16.084 -0.3358 -0.2605 -0.7276
11044TIP3    H154547   1.216   3.553  16.123 -0.3456 -0.5861 -1.0684
11044TIP3    H254548   1.081   3.612  16.156  0.5094  0.9835 -0.2341
11045TIP3   OH254549   1.638   0.202  16.870  0.7012  0.4610  0.1116
11045TIP3    H154550   1.632   0.283  16.819  1.1941  0.0414 -0.6372
11045TIP3    H254551   1.714   0.215  16.927  1.8581 -0.1312 -1.2503
11046TIP3   OH254552   1.907   1.651   0.733  0.4329  0.1250 -0.1157
11046TIP3    H154553   1.890   1.581   0.796  2.0337 -0.6161 -0.4543
11046TIP3    H254554   1.824   1.699   0.728 -0.2646 -0.8593  1.2116
11047TIP3   OH254555   1.205   5.294   1.303  0.1798  0.1911  0.0156
11047TIP3    H154556   1.147   5.250   1.365 -0.2800 -0.7731 -1.0652
11047TIP3    H254557   1.293   5.269   1.331 -0.0026  0.1269  0.5446
11048TIP3   OH254558   4.867   6.631  14.057 -0.2756 -0.2238 -0.2154
11048TIP3    H154559   4.830   6.559  14.007 -2.6395  1.1386 -0.5726
11048TIP3    H254560   4.803   6.647  14.127  1.3331  0.0731  1.2567
11049TIP3   OH254561   0.186   2.820   1.516  0.3770  0.6432  0.2040
11049TIP3    H154562   0.129   2.896   1.504  0.6753  0.8869  0.3026
11049TIP3    H254563   0.126   2.748   1.533 -0.0355  0.4233 -1.9331
11050TIP3   OH254564   6.597   4.334   1.659 -0.6747  0.3170  0.0268
11050TIP3    H154565   6.591   4.395   1.734 -1.6726  0.5273 -0.2048
11050TIP3    H254566   6.633   4.387   1.588 -0.1066  0.2248  0.2398
11051TIP3   OH254567   2.535   6.639   0.462  0.4394 -0.1645 -0.2268
11051TIP3    H154568   2.488   6.583   0.400 -0.7158  1.0729 -0.5368
11051TIP3    H254569   2.522   6.727   0.428  1.2265  0.3935  0.8693
11052TIP3   OH254570   0.757   6.092  11.503 -0.1159  0.4520  0.2102
11052TIP3    H154571   0.695   6.160  11.528 -0.0681  0.0743  1.4296
11052TIP3    H254572   0.704   6.025  11.461 -0.1642  1.2198 -0.9919
11053TIP3   OH254573   2.993   1.076   3.637 -0.5291 -0.0509  0.4965
11053TIP3    H154574   3.076   1.121   3.622 -1.1220  0.6543 -0.9255
11053TIP3    H254575   2.931   1.146   3.657 -0.8901 -0.5202  1.0418
11054TIP3   OH254576   4.515   3.266  12.118  0.2115  0.6447  0.0001
11054TIP3    H154577   4.607   3.267  12.094  0.2135  1.1759  0.0063
11054TIP3    H254578   4.511   3.216  12.199  0.6158  1.3299  0.4554
11055TIP3   OH254579   2.062   3.426  10.947  0.1503 -0.0192 -0.2852
11055TIP3    H154580   2.139   3.387  10.987 -0.7173 -0.5233  0.9456
11055TIP3    H254581   2.070   3.405  10.854  0.8894 -1.1154  0.0105
11056TIP3   OH254582   4.495   4.133   5.381 -0.3343  0.0208 -0.2324
11056TIP3    H154583   4.486   4.129   5.476 -0.5552 -1.3922 -0.2964
11056TIP3    H254584   4.438   4.206   5.355  0.3177  0.9180  0.7692
11057TIP3   OH254585   4.509   2.236  13.276  0.3366  0.2197  0.2044
11057TIP3    H154586   4.491   2.150  13.313 -0.2757  0.2348 -0.0545
11057TIP3    H254587   4.440   2.249  13.211 -0.8296  1.7900  1.6757
11058TIP3   OH254588   4.545   5.996   2.524 -0.3301 -0.2615  0.1092
11058TIP3    H154589   4.450   5.985   2.517 -0.2493 -0.2293 -1.1823
11058TIP3    H254590   4.562   6.081   2.484  0.2612 -0.2836  0.3029
11059TIP3   OH254591   3.523   3.284  13.642 -0.6751  0.4005 -0.5255
11059TIP3    H154592   3.482   3.323  13.565 -1.2385  1.5610  0.3404
11059TIP3    H254593   3.617   3.293  13.626 -0.7938  1.4615 -0.6755
11060TIP3   OH254594   5.571   2.228  16.477  0.0202 -0.1289  0.1974
11060TIP3    H154595   5.580   2.323  16.471  1.5963 -0.2944 -0.6746
11060TIP3    H254596   5.498   2.207  16.418  0.3697  0.4648 -0.4685
11061TIP3   OH254597   0.175   2.585  12.916 -0.2491  0.4313  0.3623
11061TIP3    H154598   0.180   2.561  13.008 -0.7001 -1.4144 -0.0579
11061TIP3    H254599   0.094   2.545  12.885  0.5313 -0.0546 -1.1398
11062TIP3   OH254600   0.196   3.700   6.284 -0.5086 -0.1441  0.2580
11062TIP3    H154601   0.225   3.610   6.298  2.7694  1.0121  1.8657
11062TIP3    H254602   0.186   3.737   6.371 -1.1445  1.2765 -0.3779
11063TIP3   OH254603   5.986   0.438   2.686  0.5060  0.0532 -0.1688
11063TIP3    H154604   6.054   0.400   2.742 -0.7060 -1.1906  0.5189
11063TIP3    H254605   5.908   0.442   2.742  0.2052  2.2708 -0.6660
11064TIP3   OH254606   1.555   0.775   5.702  0.1412  0.7832  0.3869
11064TIP3    H154607   1.553   0.837   5.630  0.4391 -0.9766 -1.2156
11064TIP3    H254608   1.547   0.829   5.781 -2.0196  2.6618 -0.9816
11065TIP3   OH254609   0.313   4.794  16.166 -0.1084  0.4915  0.1256
11065TIP3    H154610   0.219   4.777  16.162 -0.2370  0.3688  2.2808
11065TIP3    H254611   0.327   4.868  16.107 -1.5489  0.4934 -0.2395
11066TIP3   OH254612   6.138   0.432   3.869 -0.0726  0.0359 -0.2515
11066TIP3    H154613   6.048   0.462   3.884  0.4183  0.9267  1.0521
11066TIP3    H254614   6.175   0.423   3.956  1.2370  0.0451 -0.7831
11067TIP3   OH254615   5.618   2.840   0.210  0.1445 -0.0864  0.9403
11067TIP3    H154616   5.580   2.782   0.144  0.2208  1.0310 -0.1198
11067TIP3    H254617   5.632   2.783   0.286 -0.2371 -1.3374  0.1168
11068TIP3   OH254618   4.040   0.367   3.960  0.2353 -1.0658  0.3626
11068TIP3    H154619   4.107   0.417   4.008 -0.8112 -0.6020  1.3862
11068TIP3    H254620   4.018   0.421   3.885  0.9746 -1.2033  0.0387
11069TIP3   OH254621   3.963   0.737  12.707 -0.3292  0.7893 -0.3256
11069TIP3    H154622   4.002   0.725  12.621  0.6992  0.6055  0.1448
11069TIP3    H254623   3.965   0.832  12.721  1.9542  0.6816  0.5425
11070TIP3   OH254624   4.899   5.821  12.066 -0.2304 -0.0291  0.2111
11070TIP3    H154625   4.888   5.855  12.155  0.3301  0.5847  0.0580
11070TIP3    H254626   4.906   5.900  12.011 -0.7822 -0.4005 -0.4047
11071TIP3   OH254627   1.711   1.104   3.047  0.9894 -0.0402 -0.2736
11071TIP3    H154628   1.762   1.071   3.121 -0.8820 -0.6857  0.7998
11071TIP3    H254629   1.706   1.199   3.061  0.9198 -0.1220  0.2578
11072TIP3   OH254630   1.811   6.206  13.000 -0.4733  0.0400  0.2746
11072TIP3    H154631   1.739   6.235  13.056  1.1839  3.0481  1.0513
11072TIP3    H254632   1.832   6.283  12.946  2.0304 -0.7592 -0.0199
11073TIP3   OH254633   0.548   6.704  12.931  0.6407 -0.5470  0.2156
11073TIP3    H154634   0.540   6.782  12.986 -0.2494  0.0442 -0.7119
11073TIP3    H254635   0.595   6.641  12.986  0.9492  0.4654  1.1624
11074TIP3   OH254636   1.192   0.415  12.997  0.2225 -0.4422 -0.4796
11074TIP3    H154637   1.213   0.464  12.917  1.5871 -2.3235 -1.3455
11074TIP3    H254638   1.163   0.482  13.059  1.5195  1.3988 -1.7502
11075TIP3   OH254639   0.179   3.916  16.695  0.0070  0.0576  0.4794
11075TIP3    H154640   0.155   3.927  16.787  0.2898 -0.9891  0.6956
11075TIP3    H254641   0.107   3.864  16.657 -0.6210  1.3468 -0.1565
11076TIP3   OH254642   2.747   4.750   0.825  0.0242  0.4024  0.3754
11076TIP3    H154643   2.735   4.663   0.863  0.5214  0.4711  0.6921
11076TIP3    H254644   2.677   4.757   0.760  0.4411 -0.5460 -0.2062
11077TIP3   OH254645   0.847   5.489  12.223 -0.3750  0.1300  0.7446
11077TIP3    H154646   0.868   5.396  12.231 -0.7880 -0.0916 -0.4529
11077TIP3    H254647   0.933   5.531  12.217 -0.0525 -0.6815 -3.2232
11078TIP3   OH254648   1.252   1.678  14.845  0.6247  0.3888  0.1066
11078TIP3    H154649   1.201   1.656  14.923 -0.6810  2.5422 -0.0611
11078TIP3    H254650   1.341   1.690  14.878 -0.2105  2.9658  1.6798
11079TIP3   OH254651   6.754   2.101  13.516 -0.0817  0.9090 -0.2827
11079TIP3    H154652   6.809   2.175  13.544 -0.5918  1.5049 -0.8053
11079TIP3    H254653   6.799   2.065  13.440 -0.0629  0.9609 -0.2965
11080TIP3   OH254654   4.021   0.292  15.695  0.5872  0.3800  0.0564
11080TIP3    H154655   4.018   0.227  15.764 -0.8677  0.9274  0.5448
11080TIP3    H254656   3.990   0.245  15.617  0.1660  0.3188  0.2591
11081TIP3   OH254657   5.065   4.029  11.035  0.2396 -0.5909  0.1040
11081TIP3    H154658   4.993   3.971  11.063  0.6003 -1.1889 -0.1799
11081TIP3    H254659   5.021   4.103  10.993 -0.2216 -0.9111  0.0125
11082TIP3   OH254660   3.694   6.627  11.451  0.3011 -0.5623 -0.4994
11082TIP3    H154661   3.623   6.566  11.433  1.3243 -1.8090 -0.4261
11082TIP3    H254662   3.735   6.642  11.366  0.3376 -0.3321 -0.4423
11083TIP3   OH254663   1.863   6.689  14.145 -0.6489  0.7614 -0.1337
11083TIP3    H154664   1.937   6.679  14.085  2.0282  1.0008  2.8325
11083TIP3    H254665   1.836   6.780  14.135  0.1003  0.9413 -0.6266
11084TIP3   OH254666   2.798   2.285  14.514 -0.5611  0.8073  0.4054
11084TIP3    H154667   2.865   2.337  14.470 -0.6017 -0.4556 -1.2435
11084TIP3    H254668   2.765   2.226  14.446 -2.5155  0.5795  1.4783
11085TIP3   OH254669   2.686   2.813   1.267  0.6763  0.5457  0.1850
11085TIP3    H154670   2.603   2.771   1.246  0.3612  0.3561  1.6824
11085TIP3    H254671   2.670   2.907   1.254 -0.0098  0.5719  1.1597
11086TIP3   OH254672   3.227   1.081  15.550 -0.3948  0.3186  0.2505
11086TIP3    H154673   3.225   1.053  15.641 -0.2694 -0.8786 -0.0907
11086TIP3    H254674   3.143   1.051  15.514  0.2195 -0.6875 -0.4129
11087TIP3   OH254675   4.164   6.092   5.256  0.1455 -0.3318 -0.3472
11087TIP3    H154676   4.234   6.155   5.273  0.2191 -0.5115  0.0218
11087TIP3    H254677   4.169   6.076   5.162 -0.5249  0.9850 -0.6337
11088TIP3   OH254678   5.297   0.946   6.272 -0.0491 -0.5353  0.2578
11088TIP3    H154679   5.203   0.929   6.264 -0.3252  0.6593  0.8402
11088TIP3    H254680   5.304   1.012   6.340  1.3210 -1.4826  1.0842
11089TIP3   OH254681   5.062   4.757  15.329 -0.2119 -0.2594  0.0155
11089TIP3    H154682   5.035   4.667  15.308  1.0402 -0.9035  1.0520
11089TIP3    H254683   5.110   4.786  15.251  1.0523 -1.2103  0.4146
11090TIP3   OH254684   2.682   2.089  14.371  0.1587  0.6357 -0.5337
11090TIP3    H154685   2.595   2.076  14.333 -0.2890 -0.4831  0.7956
11090TIP3    H254686   2.678   2.043  14.455  1.9677  0.7667 -0.3541
11091TIP3   OH254687   3.046   2.120  14.929  0.2330  0.5097  0.4418
11091TIP3    H154688   3.025   2.071  15.008  1.1047 -0.2935  0.2006
11091TIP3    H254689   2.975   2.184  14.920 -0.4218 -0.0749  1.2936
11092TIP3   OH254690   5.693   1.633   1.469  0.9096  0.3760 -0.2496
11092TIP3    H154691   5.717   1.541   1.476 -0.0299  0.0765 -0.7713
11092TIP3    H254692   5.670   1.646   1.377 -1.3695  0.4784  0.2593
11093TIP3   OH254693   6.676   1.336  14.831  0.5333  0.1087 -0.9208
11093TIP3    H154694   6.625   1.272  14.880  2.3073 -1.2209 -0.6923
11093TIP3    H254695   6.611   1.393  14.790 -1.0626 -0.6085  0.4990
11094TIP3   OH254696   3.749   0.305  14.532  0.1761  0.5281  0.1328
11094TIP3    H154697   3.708   0.313  14.618 -0.9742  1.3819 -0.4588
11094TIP3    H254698   3.831   0.259  14.548 -0.8110 -0.8919  1.4482
11095TIP3   OH254699   5.506   1.736   5.525  0.7995  0.4010  0.3598
11095TIP3    H154700   5.522   1.642   5.513  0.8926  0.4949 -0.2734
11095TIP3    H254701   5.411   1.745   5.513  1.0461  0.7042 -1.9706
11096TIP3   OH254702   5.298   3.740  10.362 -0.3704  0.2078  0.4847
11096TIP3    H154703   5.370   3.800  10.345 -0.9849  0.9841  0.5264
11096TIP3    H254704   5.335   3.672  10.418  0.7227 -0.2969 -0.7941
11097TIP3   OH254705   3.615   5.653  16.711 -0.2519  0.1396  0.4095
11097TIP3    H154706   3.652   5.568  16.684 -3.8627 -1.1484 -1.0975
11097TIP3    H254707   3.571   5.686  16.633 -1.9903  1.6201  1.9196
11098TIP3   OH254708   5.345   1.872  14.381 -0.3837 -0.2915 -0.6339
11098TIP3    H154709   5.261   1.831  14.361 -0.1394 -1.3931  0.4756
11098TIP3    H254710   5.409   1.801  14.373  0.1798  0.0892  0.3806
11099TIP3   OH254711   3.072   3.790   3.935  0.1201  0.0028 -0.1082
11099TIP3    H154712   3.126   3.869   3.934  0.5852 -0.3031  0.3810
11099TIP3    H254713   2.990   3.817   3.976  0.6014  0.0286  0.8526
11100TIP3   OH254714   5.991   6.558   0.457 -0.8433  0.2516  0.3648
11100TIP3    H154715   5.928   6.522   0.519 -2.2341 -0.2824 -1.3005
11100TIP3    H254716   5.980   6.506   0.378  0.2626  1.4778 -0.6455
11101TIP3   OH254717   2.830   0.468  14.501 -0.4021 -0.1416 -0.5486
11101TIP3    H154718   2.773   0.407  14.547  0.7178 -1.0330 -0.3041
11101TIP3    H254719   2.816   0.552  14.545  0.4177 -0.9128  1.2521
11102TIP3   OH254720   6.756   6.393  14.503  0.5649  0.8179  0.1097
11102TIP3    H154721   6.808   6.320  14.537 -1.1193 -1.3015 -1.5705
11102TIP3    H254722   6.798   6.471  14.540  3.4003 -0.8538  0.7621
11103TIP3   OH254723   0.398   2.247  16.565 -0.0274 -0.3706  0.4305
11103TIP3    H154724   0.322   2.237  16.622  0.9770 -3.8663  1.3633
11103TIP3    H254725   0.461   2.295  16.618 -0.6213  0.2106  0.6280
11104TIP3   OH254726   3.593   2.734   4.608  0.5980  0.2916  0.4185
11104TIP3    H154727   3.608   2.691   4.523  0.6190  1.5187 -0.2147
11104TIP3    H254728   3.502   2.761   4.606  0.4455 -0.1431  1.0250
11105TIP3   OH254729   1.705   0.960  15.157  0.4943 -0.3462  0.1493
11105TIP3    H154730   1.697   0.866  15.168 -0.3507 -0.0839  2.0697
11105TIP3    H254731   1.629   0.985  15.105 -0.3074 -0.4919  1.2370
11106TIP3   OH254732   1.932   5.122   1.851  0.0466 -0.1330 -0.6145
11106TIP3    H154733   2.019   5.083   1.850  1.7518  3.0058  2.4873
11106TIP3    H254734   1.932   5.184   1.778  0.2285 -0.4400 -0.8783
11107TIP3   OH254735   3.995   1.235   1.559  0.6611  0.3587 -0.0913
11107TIP3    H154736   4.016   1.181   1.635 -1.9999 -0.2461  0.3296
11107TIP3    H254737   3.988   1.324   1.594  0.3740  0.2223  0.2117
11108TIP3   OH254738   3.124   6.337   1.104  0.1337 -0.0350 -0.3750
11108TIP3    H154739   3.088   6.249   1.110 -0.1009  0.1504  1.4655
11108TIP3    H254740   3.055   6.393   1.141  0.4330  0.8804 -1.1762
11109TIP3   OH254741   0.774   5.797   0.215  0.0977  0.3352 -0.1148
11109TIP3    H154742   0.772   5.702   0.219  2.8180  0.1282 -1.5974
11109TIP3    H254743   0.747   5.818   0.126  1.6758  0.7656 -0.5206
11110TIP3   OH254744   5.947   3.782  13.255 -0.3084  0.0849  0.0220
11110TIP3    H154745   5.981   3.865  13.287 -0.5517  0.6205 -1.0626
11110TIP3    H254746   5.962   3.784  13.160 -0.1176 -1.2033  0.0059
11111TIP3   OH254747   2.156   6.263   1.255  0.2132  0.5560 -0.6708
11111TIP3    H154748   2.218   6.329   1.223  0.4619  0.0580 -1.2263
11111TIP3    H254749   2.210   6.187   1.275 -0.1014  0.4424 -0.2346
11112TIP3   OH254750   6.682   0.495   3.136 -0.1000  0.2234  0.3234
11112TIP3    H154751   6.745   0.532   3.075 -1.8306  2.3885 -0.2999
11112TIP3    H254752   6.722   0.505   3.222  0.0165  2.5694  0.0484
11113TIP3   OH254753   2.860   1.714   4.918 -0.0838  0.0614 -0.1758
11113TIP3    H154754   2.819   1.795   4.948  0.0127 -0.0141  0.1655
11113TIP3    H254755   2.860   1.721   4.823 -1.5246 -0.2306 -0.2330
11114TIP3   OH254756   4.293   2.315   0.405  0.7074 -0.1776  0.2271
11114TIP3    H154757   4.296   2.237   0.350 -0.9477  0.0091 -0.1889
11114TIP3    H254758   4.292   2.388   0.343 -1.1434  0.0370  0.4604
11115TIP3   OH254759   2.079   6.260  16.738 -0.1096  0.1910  0.1026
11115TIP3    H154760   2.166   6.300  16.749 -1.0227  2.0557  0.9604
11115TIP3    H254761   2.060   6.221  16.823  0.2816 -1.1427 -0.3909
11116TIP3   OH254762   1.176   5.556  15.350  0.3026 -0.1715 -0.2056
11116TIP3    H154763   1.242   5.536  15.284  0.0285 -0.8451 -0.2810
11116TIP3    H254764   1.154   5.649  15.335 -0.3270 -0.5134 -1.5731
11117TIP3   OH254765   1.629   3.356  11.693 -0.4065 -0.2682  0.0055
11117TIP3    H154766   1.724   3.356  11.691 -0.3462 -2.3115  0.3378
11117TIP3    H254767   1.603   3.379  11.604  0.3978  0.1133 -0.1400
11118TIP3   OH254768   5.691   3.138  15.215  0.4233 -0.0646 -0.5986
11118TIP3    H154769   5.753   3.087  15.268  1.2204 -0.3851 -1.8082
11118TIP3    H254770   5.719   3.229  15.227  1.3190 -0.2295 -1.3517
11119TIP3   OH254771   3.774   3.095   2.858 -0.3810  0.2715  0.0363
11119TIP3    H154772   3.859   3.061   2.830 -1.2033 -0.6900 -1.4243
11119TIP3    H254773   3.786   3.116   2.951  0.9328 -1.5388  0.3295
11120TIP3   OH254774   1.258   0.124  13.965  0.3806  0.4098 -0.0085
11120TIP3    H154775   1.181   0.068  13.969  0.6120 -0.0311 -1.2404
11120TIP3    H254776   1.222   0.212  13.950  0.1298  0.1158 -1.2027
11121TIP3   OH254777   4.259   2.709  11.043  0.0822  0.0239  0.3442
11121TIP3    H154778   4.296   2.623  11.065  0.7997  0.5585  1.3085
11121TIP3    H254779   4.170   2.690  11.014  0.0030 -0.9886  1.2049
11122TIP3   OH254780   5.483   3.409  11.791 -0.0623 -0.3114  0.2527
11122TIP3    H154781   5.483   3.321  11.829 -0.7348  0.3153  1.7541
11122TIP3    H254782   5.545   3.458  11.844 -1.3171  0.6837  0.8564
11123TIP3   OH254783   1.875   6.078   1.485  0.2668  0.0456 -0.2495
11123TIP3    H154784   1.900   6.072   1.578 -1.3542  2.2702  0.4236
11123TIP3    H254785   1.958   6.069   1.438  1.8921  3.1773  1.6535
11124TIP3   OH254786   0.864   1.711   4.415  0.2468 -0.0017 -0.4288
11124TIP3    H154787   0.959   1.706   4.400  0.3935  1.9116 -0.3829
11124TIP3    H254788   0.853   1.790   4.467 -1.2792 -0.8840  0.6472
11125TIP3   OH254789   2.075   6.535   0.978 -0.1924 -0.3072 -0.0395
11125TIP3    H154790   2.087   6.623   0.944 -1.4232  0.4255  1.3083
11125TIP3    H254791   1.984   6.514   0.959 -0.2240 -0.8368  0.6444
11126TIP3   OH254792   3.487   0.352  16.462 -0.5254  0.4096  0.1057
11126TIP3    H154793   3.518   0.275  16.415 -0.7494  0.2542  0.2117
11126TIP3    H254794   3.461   0.318  16.548 -0.4188  0.6388  0.2284
11127TIP3   OH254795   1.744   2.883   1.704 -0.2910 -0.4746  0.2854
11127TIP3    H154796   1.838   2.863   1.703 -0.7313 -2.8211  1.2492
11127TIP3    H254797   1.721   2.889   1.611  0.8869  0.7815  0.0270
11128TIP3   OH254798   5.573   6.127   5.111 -0.6589  0.1518  0.3345
11128TIP3    H154799   5.659   6.167   5.125 -0.6188  0.1045  0.2274
11128TIP3    H254800   5.566   6.117   5.016  0.4229 -2.4722  0.4628
11129TIP3   OH254801   0.612   3.100  12.204  0.1192 -0.1102 -0.2879
11129TIP3    H154802   0.636   3.109  12.296  2.3862  0.6534 -0.9051
11129TIP3    H254803   0.603   3.190  12.172 -1.9616 -0.3601 -0.5473
11130TIP3   OH254804   6.585   3.490  13.560 -0.7055  0.4903  0.3418
11130TIP3    H154805   6.585   3.395  13.556 -1.1772  0.4357  1.3781
11130TIP3    H254806   6.665   3.516  13.513  1.0578 -0.5674  2.5432
11131TIP3   OH254807   0.891   0.241   0.640  0.6512  0.2950 -0.0726
11131TIP3    H154808   0.944   0.318   0.623  0.5221  0.4935  0.3953
11131TIP3    H254809   0.881   0.240   0.736 -0.6644  0.5913 -0.1854
11132TIP3   OH254810   5.325   1.421   0.591  0.0679 -0.5026 -0.1799
11132TIP3    H154811   5.239   1.441   0.629 -0.1160 -0.4013 -0.6468
11132TIP3    H254812   5.383   1.416   0.667 -0.0108  1.1276  0.0250
11133TIP3   OH254813   5.953   5.473  10.602 -0.1194 -0.2242 -0.0906
11133TIP3    H154814   5.926   5.564  10.595  1.5969  0.6061  2.7136
11133TIP3    H254815   5.871   5.424  10.612 -0.9812  1.1531 -0.1853
11134TIP3   OH254816   5.652   0.315   6.030 -0.2031 -0.6392 -0.8384
11134TIP3    H154817   5.693   0.402   6.031 -1.0925 -0.2087  0.4772
11134TIP3    H254818   5.725   0.254   6.025  0.5948  0.1305  0.6921
11135TIP3   OH254819   1.154   5.398   3.809 -0.6187  0.0514  0.0646
11135TIP3    H154820   1.123   5.437   3.727 -1.3636 -0.3136  0.1642
11135TIP3    H254821   1.172   5.474   3.866  0.5416  0.3283 -0.6480
11136TIP3   OH254822   6.137   3.465  13.061 -0.1328  0.3849 -0.1474
11136TIP3    H154823   6.074   3.467  12.989 -0.3998 -1.3732 -0.0215
11136TIP3    H254824   6.084   3.480  13.139  0.0071  1.3565 -0.2349
11137TIP3   OH254825   1.803   5.407  14.837 -0.4803 -0.2816  0.5967
11137TIP3    H154826   1.882   5.366  14.800 -0.4049  0.3638  0.0120
11137TIP3    H254827   1.809   5.391  14.931  0.2769 -0.3635  0.5413
11138TIP3   OH254828   2.962   6.587  15.912 -0.1847 -0.1844  0.8895
11138TIP3    H154829   2.976   6.638  15.833 -0.5790  0.2074  1.0648
11138TIP3    H254830   3.046   6.545  15.929 -0.4455 -1.3020 -0.4416
11139TIP3   OH254831   1.672   6.226  11.516 -0.3435 -0.1303  0.1482
11139TIP3    H154832   1.613   6.154  11.492 -1.8240  1.3061 -0.7707
11139TIP3    H254833   1.758   6.185  11.522 -1.1764 -2.0382  0.0149
11140TIP3   OH254834   4.190   6.030  11.542  0.3703  0.3211  0.6258
11140TIP3    H154835   4.134   6.100  11.510 -1.8559 -0.3435  2.7373
11140TIP3    H254836   4.223   6.061  11.626  0.5272 -0.5677  0.9088
11141TIP3   OH254837   0.394   6.569  13.526  0.0778 -0.1392  0.3678
11141TIP3    H154838   0.375   6.476  13.540  0.0594 -0.0692  0.8289
11141TIP3    H254839   0.489   6.574  13.522  0.0754 -0.1921  0.2158
11142TIP3   OH254840   3.880   4.233   1.877  0.3608 -0.5121 -0.0805
11142TIP3    H154841   3.903   4.144   1.903 -2.3470 -0.9824  1.0903
11142TIP3    H254842   3.934   4.250   1.800  2.1163 -2.5320  0.5967
11143TIP3   OH254843   6.473   2.393  17.041  0.0604 -0.1316 -0.0276
11143TIP3    H154844   6.493   2.387  16.948  0.9069 -3.9371  0.2192
11143TIP3    H254845   6.462   2.302  17.069 -1.2532  0.9109  3.4018
11144TIP3   OH254846   1.353   0.862  11.424  0.0661  0.2029  0.2819
11144TIP3    H154847   1.438   0.886  11.461 -0.1717 -0.3581  1.2312
11144TIP3    H254848   1.310   0.812  11.494 -0.4518 -0.7905 -0.7181
11145TIP3   OH254849   2.669   6.471  11.830 -0.0089  0.1078  0.4189
11145TIP3    H154850   2.606   6.516  11.774  0.9485 -2.3836 -3.0230
11145TIP3    H254851   2.751   6.519  11.818 -0.2821  0.9389  1.6576
11146TIP3   OH254852   5.093   3.299  16.139  0.2036  0.1617 -0.9771
11146TIP3    H154853   5.025   3.231  16.132 -0.4556  0.8563 -1.6139
11146TIP3    H254854   5.158   3.275  16.073 -0.3281  0.4546 -1.6275
11147TIP3   OH254855   1.936   1.315   3.654 -0.2463  0.5722  0.0603
11147TIP3    H154856   1.882   1.331   3.731 -1.3140  0.8335 -0.7121
11147TIP3    H254857   1.884   1.350   3.581 -0.2658 -1.5934 -1.0380
11148TIP3   OH254858   4.436   3.616   2.882  0.5279  0.0970 -0.1837
11148TIP3    H154859   4.406   3.696   2.924  0.8229  1.3347 -2.1530
11148TIP3    H254860   4.529   3.632   2.865  0.4467 -0.3877 -1.1449
11149TIP3   OH254861   0.861   4.226  16.534  0.1386 -0.2254  0.1658
11149TIP3    H154862   0.806   4.173  16.477  0.8379 -0.4531 -0.3058
11149TIP3    H254863   0.832   4.204  16.623 -1.7585  0.9880 -0.0732
11150TIP3   OH254864   4.538   0.894   0.728 -0.2054 -0.1837  0.3615
11150TIP3    H154865   4.495   0.979   0.725 -0.9234 -0.5056  1.0380
11150TIP3    H254866   4.569   0.879   0.638  0.4485  1.0339  0.3638
11151TIP3   OH254867   3.136   2.881  15.513  0.4155  0.1432  0.3529
11151TIP3    H154868   3.164   2.952  15.454 -0.1776  0.4401  0.4203
11151TIP3    H254869   3.217   2.835  15.535  0.5769 -0.3679 -1.2023
11152TIP3   OH254870   2.182   2.241   0.421  0.5398 -1.1353  0.0098
11152TIP3    H154871   2.202   2.319   0.370 -0.1860 -1.2313 -0.4329
11152TIP3    H254872   2.088   2.228   0.409  0.4526 -1.4574  0.9537
11153TIP3   OH254873   1.777   5.821   1.011 -0.0192 -0.1662  0.0286
11153TIP3    H154874   1.804   5.743   0.962  2.6034 -0.2066  1.3834
11153TIP3    H254875   1.715   5.865   0.953 -2.0778 -3.4697 -0.5844
11154TIP3   OH254876   4.192   5.522  15.361  0.1282 -0.7286  0.1648
11154TIP3    H154877   4.264   5.477  15.316 -0.2619 -0.9795 -0.2224
11154TIP3    H254878   4.157   5.457  15.422  1.7920  0.1620  2.1778
11155TIP3   OH254879   6.382   0.873  14.466 -0.2472  0.7421  0.0259
11155TIP3    H154880   6.337   0.931  14.527  0.5180  2.2032 -0.7328
11155TIP3    H254881   6.465   0.853  14.510 -1.8099 -2.5881  1.7766
11156TIP3   OH254882   1.865   0.801  10.859 -0.0426 -0.3567  0.4561
11156TIP3    H154883   1.885   0.871  10.796  0.9712 -0.0901  1.0642
11156TIP3    H254884   1.776   0.774  10.836 -0.4847  1.1664  0.2267
11157TIP3   OH254885   1.769   2.727   6.124  0.8155  0.0535  0.4272
11157TIP3    H154886   1.728   2.754   6.207 -0.7568  1.1717 -0.6442
11157TIP3    H254887   1.772   2.808   6.072 -2.0777 -1.2758 -2.1303
11158TIP3   OH254888   3.162   1.215  16.420  0.3153 -0.3406 -0.8643
11158TIP3    H154889   3.221   1.254  16.484 -0.6965  1.1872 -0.8150
11158TIP3    H254890   3.213   1.213  16.339  0.6710  0.2946 -0.6602
11159TIP3   OH254891   1.868   0.214   1.873 -0.2728 -0.2827 -0.3737
11159TIP3    H154892   1.840   0.256   1.791 -2.2613 -1.0984 -0.1470
11159TIP3    H254893   1.856   0.282   1.940 -0.5083 -0.2354 -0.4647
11160TIP3   OH254894   1.356   2.917  16.893  0.2398  0.3028  0.4835
11160TIP3    H154895   1.354   2.991  16.831 -0.0481  0.8604  1.1407
11160TIP3    H254896   1.434   2.933  16.946 -0.7673  1.1254  1.7869
11161TIP3   OH254897   4.869   5.857  11.183 -0.0268 -0.1364  0.1361
11161TIP3    H154898   4.806   5.873  11.253 -1.1072  2.2262 -1.2242
11161TIP3    H254899   4.946   5.909  11.208 -0.5162  0.9318 -0.4889
11162TIP3   OH254900   2.774   5.475  11.498  0.1583 -0.6001  0.4022
11162TIP3    H154901   2.736   5.546  11.446 -0.1756 -0.9076  0.2257
11162TIP3    H254902   2.768   5.398  11.442 -0.0473 -0.8987  0.8301
11163TIP3   OH254903   3.513   2.000  16.764 -0.0795  1.0228  0.3793
11163TIP3    H154904   3.493   2.025  16.674 -1.2497  0.0247  0.3328
11163TIP3    H254905   3.467   2.065  16.818 -0.3307  0.9516  0.2536
11164TIP3   OH254906   4.987   3.565  17.080 -0.2157  0.3978 -0.0239
11164TIP3    H154907   5.071   3.585  17.039 -0.0396  0.2368  0.2533
11164TIP3    H254908   4.980   3.628  17.152 -0.5775  0.7569 -0.3644
11165TIP3   OH254909   0.070   6.757   3.710 -0.2356 -0.0878  0.1800
11165TIP3    H154910   0.036   6.757   3.799  1.8297 -0.4068  1.0110
11165TIP3    H254911   0.092   6.665   3.692 -0.7384 -0.0513 -0.7368
11166TIP3   OH254912   6.422   0.860  15.275  0.6081 -0.8440 -0.5463
11166TIP3    H154913   6.489   0.927  15.265 -2.0712  1.7606 -2.9443
11166TIP3    H254914   6.383   0.877  15.361  1.0067 -0.3519 -0.4603
11167TIP3   OH254915   5.123   1.988   5.387  0.3850 -0.1697  0.0316
11167TIP3    H154916   5.134   2.034   5.470  1.9081  1.2009 -0.8797
11167TIP3    H254917   5.036   2.015   5.356 -2.1993 -3.9059  2.9811
11168TIP3   OH254918   2.714   5.837   1.766 -0.0078  0.5976  0.0003
11168TIP3    H154919   2.679   5.889   1.694 -0.9616 -1.2714 -0.9675
11168TIP3    H254920   2.803   5.815   1.738 -0.7915 -1.1945 -1.3062
11169TIP3   OH254921   2.623   5.985   1.518  0.0016  0.0573 -0.2237
11169TIP3    H154922   2.682   6.059   1.505  0.7099 -0.2228  1.1987
11169TIP3    H254923   2.549   6.021   1.566 -0.6288  0.2443 -1.3131
11170TIP3   OH254924   2.633   0.848  16.865 -0.1452 -0.4425 -0.2744
11170TIP3    H154925   2.576   0.795  16.810 -0.5150  0.1087 -0.4363
11170TIP3    H254926   2.655   0.792  16.939 -1.1858 -0.5479 -0.0329
11171TIP3   OH254927   5.512   4.799  10.380 -0.1735  0.1276  0.0377
11171TIP3    H154928   5.527   4.707  10.402  0.0390  0.3532  0.8616
11171TIP3    H254929   5.418   4.805  10.365 -0.2920 -0.0853  0.6684
11172TIP3   OH254930   1.404   0.203   4.299  0.8201  0.2153  0.1722
11172TIP3    H154931   1.341   0.248   4.243 -1.1466  0.3630  2.3762
11172TIP3    H254932   1.359   0.192   4.382  3.7717  0.4901  1.9584
11173TIP3   OH254933   5.130   3.309   5.612  0.1868 -0.2298  0.5989
11173TIP3    H154934   5.216   3.342   5.637  0.4353 -1.9086  2.2158
11173TIP3    H254935   5.069   3.376   5.642  0.8685  0.6597  0.0476
11174TIP3   OH254936   5.841   3.591  11.365 -0.0564 -0.1606 -0.1758
11174TIP3    H154937   5.819   3.522  11.427  1.1458  0.2226  0.7397
11174TIP3    H254938   5.757   3.625  11.335 -0.6828 -2.4770 -1.2209
11175TIP3   OH254939   0.841   2.696  13.864 -0.0221 -0.4515  0.3001
11175TIP3    H154940   0.915   2.678  13.922  0.4735  1.5946  0.4022
11175TIP3    H254941   0.777   2.740  13.919 -0.3805 -0.2457 -0.2720
11176TIP3   OH254942   2.074   2.679   4.666 -0.3807 -0.4520 -0.2728
11176TIP3    H154943   2.096   2.649   4.578 -1.0663  1.3830 -1.1074
11176TIP3    H254944   2.032   2.764   4.653 -1.1893 -0.4873  1.7817
11177TIP3   OH254945   3.171   1.797   0.856  0.0971 -0.1376  0.0082
11177TIP3    H154946   3.243   1.829   0.801  0.5577 -1.3649 -0.1168
11177TIP3    H254947   3.210   1.789   0.943 -0.1703  0.1694  0.1566
11178TIP3   OH254948   6.681   4.698   3.406 -0.1978  0.3731 -0.3089
11178TIP3    H154949   6.661   4.788   3.380  0.6629  0.6780  0.0536
11178TIP3    H254950   6.748   4.670   3.344 -1.4075 -0.5160 -1.2851
11179TIP3   OH254951   0.285   3.243  11.688 -0.1561 -0.5224  0.2025
11179TIP3    H154952   0.270   3.334  11.714  0.7848 -0.4579  0.5667
11179TIP3    H254953   0.198   3.210  11.665 -0.8899 -0.2690  2.4000
11180TIP3   OH254954   0.179   1.714   2.542  0.0501  0.3267  0.7532
11180TIP3    H154955   0.139   1.670   2.467 -1.7087  2.2120  0.4946
11180TIP3    H254956   0.134   1.677   2.618 -0.4284  0.6503  0.6340
11181TIP3   OH254957   0.739   2.287   1.115 -0.3920 -0.2967  0.2348
11181TIP3    H154958   0.659   2.242   1.140 -0.5361 -1.4772 -2.1189
11181TIP3    H254959   0.809   2.240   1.160 -0.8786 -0.0838  1.2470
11182TIP3   OH254960   1.672   1.251   6.622  0.0240 -0.1491  0.3588
11182TIP3    H154961   1.597   1.297   6.584  0.9021  1.0130  0.0024
11182TIP3    H254962   1.690   1.297   6.704  0.5638 -0.2137  0.2792
11183TIP3   OH254963   3.630   0.230  13.635  0.4669  0.0618  0.7116
11183TIP3    H154964   3.634   0.325  13.645  2.6017  0.0436  0.4579
11183TIP3    H254965   3.717   0.199  13.660  1.1493 -1.4198 -2.8468
11184TIP3   OH254966   0.546   1.147   2.946 -0.2138 -0.1864 -0.1524
11184TIP3    H154967   0.586   1.231   2.923 -0.4449 -0.7104 -2.6738
11184TIP3    H254968   0.569   1.135   3.038 -2.7680  4.0692  1.3618
11185TIP3   OH254969   5.091   6.075   0.712 -0.6504 -0.2544 -0.2295
11185TIP3    H154970   5.151   5.999   0.713  0.0269  0.2192 -1.6780
11185TIP3    H254971   5.033   6.061   0.787  0.7007 -1.2057  0.6843
11186TIP3   OH254972   4.232   2.177  14.151  0.3861 -0.1019  0.6721
11186TIP3    H154973   4.161   2.201  14.211  1.3521  3.4538  0.6353
11186TIP3    H254974   4.297   2.136  14.207 -0.3225 -0.3882  1.3148
11187TIP3   OH254975   4.023   2.151   3.775  0.2860 -0.0115  0.3657
11187TIP3    H154976   4.107   2.197   3.779 -0.2014  0.8134  1.6618
11187TIP3    H254977   4.033   2.090   3.702  1.8779  0.3305  0.2542
11188TIP3   OH254978   3.602   4.309   0.573  0.3037  0.0606 -0.0084
11188TIP3    H154979   3.578   4.296   0.665  2.5638  0.9477  0.7747
11188TIP3    H254980   3.658   4.234   0.553  3.0507  1.7834  0.6456
11189TIP3   OH254981   0.465   0.215   1.302 -0.0439 -0.4281 -0.0459
11189TIP3    H154982   0.401   0.153   1.337 -1.7290  2.0431  1.5672
11189TIP3    H254983   0.422   0.255   1.227  0.7480 -0.6610 -0.6405
11190TIP3   OH254984   6.693   1.584  11.036 -0.2633 -0.6432  0.7092
11190TIP3    H154985   6.728   1.515  11.092 -0.5282 -2.0964 -0.8478
11190TIP3    H254986   6.748   1.582  10.958  0.0294  1.2652  0.8147
11191TIP3   OH254987   0.559   5.597   4.701 -0.0258 -1.1191 -0.0006
11191TIP3    H154988   0.564   5.689   4.727 -1.6998 -0.0270 -3.0899
11191TIP3    H254989   0.550   5.549   4.784  0.4371  1.4764  1.6691
11192TIP3   OH254990   0.732   4.243   0.555 -0.5072 -0.2881  0.0093
11192TIP3    H154991   0.638   4.260   0.549 -0.4196  0.3164  0.3058
11192TIP3    H254992   0.739   4.167   0.613 -0.7164  0.8345  1.5691
11193TIP3   OH254993   0.510   0.461  13.987 -0.1571  0.3208  0.0989
11193TIP3    H154994   0.460   0.380  13.997 -1.3397  0.7697 -1.7686
11193TIP3    H254995   0.586   0.449  14.044 -0.9777 -1.5353  0.8904
11194TIP3   OH254996   3.463   5.912  14.841  0.4205 -0.1391 -0.1425
11194TIP3    H154997   3.543   5.931  14.791  1.3247 -1.8269  0.5471
11194TIP3    H254998   3.494   5.861  14.916 -1.3515 -1.2536 -0.1110
11195TIP3   OH254999   2.429   1.633  15.410 -0.1802  0.6668 -0.0163
11195TIP3    H155000   2.351   1.581  15.432 -0.4629  0.6635 -0.9630
11195TIP3    H255001   2.454   1.601  15.323  0.4335  1.2047 -0.0403
11196TIP3   OH255002   1.154   0.159   1.160  0.7457 -0.2104  0.4016
11196TIP3    H155003   1.128   0.173   1.069  0.7675  0.2491  0.4657
11196TIP3    H255004   1.123   0.071   1.181 -1.1820  0.4928  0.6272
11197TIP3   OH255005   6.488   3.953   1.170  0.1856 -0.4089 -0.0184
11197TIP3    H155006   6.482   3.935   1.076  2.4633  0.7823 -0.4746
11197TIP3    H255007   6.398   3.969   1.197 -0.5463 -0.9610 -1.9624
11198TIP3   OH255008   2.032   2.220  16.957 -0.0662  1.0290 -0.1759
11198TIP3    H155009   2.059   2.296  16.905 -1.0645  1.6508  0.1813
11198TIP3    H255010   2.070   2.145  16.911  1.8237  1.7962  0.0432
11199TIP3   OH255011   2.130   0.020   0.910 -0.2469  0.2710  0.2807
11199TIP3    H155012   2.150   0.048   0.999 -0.7325  0.1140  0.4418
11199TIP3    H255013   2.181   0.078   0.854 -1.6293  1.8381  0.5779
11200TIP3   OH255014   3.843   0.562   5.200 -0.1523  0.0601  0.0261
11200TIP3    H155015   3.836   0.638   5.257 -0.5602  0.3819 -0.4513
11200TIP3    H255016   3.872   0.596   5.116  2.1180 -0.6096  0.4716
11201TIP3   OH255017   6.719   4.028   1.931 -0.2852  0.5968 -0.7615
11201TIP3    H155018   6.683   4.050   2.017 -1.3042  1.0979 -1.2893
11201TIP3    H255019   6.789   4.091   1.917 -0.0425  0.4453 -0.2597
11202TIP3   OH255020   1.370   5.955  14.678 -0.5522  0.3440 -0.1980
11202TIP3    H155021   1.357   6.033  14.624  0.5422 -0.2230 -1.3161
11202TIP3    H255022   1.284   5.940  14.719 -0.7595  2.1901  0.1567
11203TIP3   OH255023   6.281   2.021   3.692 -0.4020  0.3179 -0.3492
11203TIP3    H155024   6.262   2.109   3.724  0.5375 -0.0658  1.3536
11203TIP3    H255025   6.240   1.963   3.755  0.0994 -0.4716 -0.7366
11204TIP3   OH255026   4.310   0.800   4.591 -0.0259  0.4842 -0.3306
11204TIP3    H155027   4.344   0.791   4.680  1.9325  0.7080 -1.0135
11204TIP3    H255028   4.293   0.894   4.581  0.8956  0.6378 -0.5599
11205TIP3   OH255029   2.426   4.502   2.474 -0.1752  0.0126 -0.0511
11205TIP3    H155030   2.395   4.515   2.563 -0.2802 -1.5356  0.1716
11205TIP3    H255031   2.369   4.434   2.439  1.7245 -1.5463 -0.2867
11206TIP3   OH255032   5.502   1.351  15.662  0.2504 -0.0555  0.0472
11206TIP3    H155033   5.463   1.395  15.737  0.7515  0.6673 -0.1081
11206TIP3    H255034   5.564   1.288  15.700 -0.1918 -0.3674  0.2597
11207TIP3   OH255035   4.360   1.340  13.188  0.3713  0.9023  0.2140
11207TIP3    H155036   4.333   1.345  13.097  0.7525 -0.1759  0.0295
11207TIP3    H255037   4.341   1.427  13.224 -1.4564  0.7920 -0.4012
11208TIP3   OH255038   2.003   0.332  15.096  0.0343 -0.5648 -0.4196
11208TIP3    H155039   1.951   0.325  15.016 -0.7603  0.9540 -0.0719
11208TIP3    H255040   2.092   0.312  15.069 -0.1056  0.5571 -1.8365
11209TIP3   OH255041   1.481   1.804  15.268  0.2224 -1.1063 -0.6215
11209TIP3    H155042   1.476   1.798  15.364 -0.2689  0.0707 -0.5674
11209TIP3    H255043   1.496   1.713  15.240 -2.1878 -1.9030  0.4060
11210TIP3   OH255044   2.043   2.870   1.774 -0.6798  0.2041 -0.0843
11210TIP3    H155045   2.122   2.884   1.721 -0.7629 -0.1838 -0.3132
11210TIP3    H255046   2.058   2.786   1.818 -0.3184  0.8304  1.0364
11211TIP3   OH255047   4.506   6.410  15.809 -0.0159  0.1798  0.1736
11211TIP3    H155048   4.459   6.331  15.782  0.3809 -0.0971  0.2767
11211TIP3    H255049   4.447   6.452  15.872 -0.1243 -0.1661  0.3093
11212TIP3   OH255050   2.512   2.906  13.162  0.5995 -0.2921 -0.2648
11212TIP3    H155051   2.569   2.884  13.236  0.3701  1.4429  0.4785
11212TIP3    H255052   2.426   2.873  13.188  0.2961  1.1730  0.7543
11213TIP3   OH255053   2.059   1.172   2.539  0.6722 -0.0350  0.1978
11213TIP3    H155054   2.150   1.144   2.551  0.1394 -1.2063  1.9748
11213TIP3    H255055   2.033   1.136   2.454  1.8634  0.4022 -0.3778
11214TIP3   OH255056   0.087   6.522  12.734  0.6142 -0.0017 -0.3455
11214TIP3    H155057   0.134   6.591  12.687  0.3407 -0.3771 -1.1900
11214TIP3    H255058   0.146   6.446  12.729  2.1558  0.8036  2.8738
11215TIP3   OH255059   4.065   4.133  14.271 -0.0099 -0.1760 -0.7927
11215TIP3    H155060   4.031   4.049  14.302 -1.1202 -0.6071 -2.9714
11215TIP3    H255061   3.987   4.182  14.246  0.7109  0.9090 -0.9669
11216TIP3   OH255062   1.255   1.740  13.084 -0.1925  0.2318  0.5132
11216TIP3    H155063   1.311   1.667  13.112  3.1943  1.8958 -1.1922
11216TIP3    H255064   1.296   1.817  13.122 -1.7213  1.5334 -0.3643
11217TIP3   OH255065   5.027   6.584  10.449 -0.5017  0.0079  0.6891
11217TIP3    H155066   5.018   6.497  10.410 -0.5189 -0.0770  0.8812
11217TIP3    H255067   4.948   6.594  10.503 -1.0821  0.6116 -0.2376
11218TIP3   OH255068   0.311   5.613   0.776  0.2374  0.9403 -0.0914
11218TIP3    H155069   0.327   5.582   0.865  1.4784 -0.9839 -0.9256
11218TIP3    H255070   0.395   5.646   0.746 -0.1521  1.5017 -0.5866
11219TIP3   OH255071   3.535   2.840   3.692  0.4394 -0.8622  0.5092
11219TIP3    H155072   3.582   2.842   3.609 -0.9928  0.5636 -0.3252
11219TIP3    H255073   3.583   2.899   3.749  0.0775  0.0439 -0.1090
11220TIP3   OH255074   1.343   2.904  14.378  0.3480  0.1333 -0.1800
11220TIP3    H155075   1.272   2.885  14.439  0.2602  1.1186  0.0468
11220TIP3    H255076   1.403   2.831  14.387 -0.9782 -1.0999 -0.8979
11221TIP3   OH255077   5.049   5.777  13.981  0.0616  0.1189 -0.0758
11221TIP3    H155078   4.995   5.834  14.036  0.0453  2.1308 -2.0087
11221TIP3    H255079   4.995   5.700  13.964 -1.4688  1.2308 -0.4120
11222TIP3   OH255080   2.285   1.808  12.263 -0.0359 -0.0808  0.4446
11222TIP3    H155081   2.207   1.807  12.319 -0.8324 -0.1489 -0.6294
11222TIP3    H255082   2.349   1.859  12.312 -0.4866 -0.6949  1.7038
11223TIP3   OH255083   0.806   2.242   1.837 -0.5021  0.4817  0.1007
11223TIP3    H155084   0.711   2.246   1.828 -0.4457  1.3807 -0.2070
11223TIP3    H255085   0.827   2.149   1.826 -1.2312  0.4283 -1.0110
11224TIP3   OH255086   4.637   5.654   2.711 -0.6030 -0.0770 -0.3491
11224TIP3    H155087   4.677   5.616   2.632 -0.3742  0.6578 -0.5901
11224TIP3    H255088   4.545   5.628   2.707 -0.5395 -0.2447 -0.7321
11225TIP3   OH255089   1.976   3.507   3.100 -0.1027  0.2463 -0.2437
11225TIP3    H155090   1.906   3.467   3.152 -0.4732 -0.0978 -0.9821
11225TIP3    H255091   2.035   3.434   3.079 -0.2555  0.2648 -0.7671
11226TIP3   OH255092   4.880   0.017   4.737  0.4144 -0.2292 -0.1088
11226TIP3    H155093   4.839  -0.007   4.653  1.6738  0.5864 -0.9982
11226TIP3    H255094   4.831  -0.033   4.802 -0.3946 -1.1489 -1.3573
11227TIP3   OH255095   6.053   1.295  12.914  0.2714  0.2618  0.0304
11227TIP3    H155096   6.066   1.227  12.848 -0.0733  0.9202 -0.7381
11227TIP3    H255097   6.141   1.332  12.928  0.1885  0.8371 -0.8727
11228TIP3   OH255098   6.115   5.449   5.742  0.1792  0.2079 -0.0420
11228TIP3    H155099   6.051   5.491   5.685  0.9757  2.1448  0.3985
11228TIP3    H255100   6.067   5.434   5.824 -0.1622  0.1204 -0.2551
11229TIP3   OH255101   2.571   2.331   2.480  0.1799  0.2552 -0.1363
11229TIP3    H155102   2.613   2.272   2.542  0.7019 -0.0030 -0.7220
11229TIP3    H255103   2.590   2.419   2.514  1.3290  0.1484 -0.4531
11230TIP3   OH255104   3.143   4.664  11.732  0.0626 -0.1653 -0.0051
11230TIP3    H155105   3.207   4.712  11.783 -0.0435  1.6237 -1.4450
11230TIP3    H255106   3.187   4.645  11.649 -1.0231  0.5674 -0.7892
11231TIP3   OH255107   2.094   6.377  15.682 -0.2880 -0.4224  0.6969
11231TIP3    H155108   2.091   6.400  15.589  0.6277 -0.4401  0.6490
11231TIP3    H255109   2.174   6.418  15.714  0.3144 -1.8318  1.0767
11232TIP3   OH255110   1.049   5.686   0.532 -0.3857 -0.2661 -0.2678
11232TIP3    H155111   1.127   5.632   0.545  0.9029  1.2805 -1.1400
11232TIP3    H255112   1.028   5.676   0.440 -1.5409 -1.0352  0.0605
11233TIP3   OH255113   3.929   4.429  13.912 -0.0526 -0.1522  0.0093
11233TIP3    H155114   3.863   4.360  13.922 -0.2667  0.2768  2.0273
11233TIP3    H255115   4.012   4.385  13.930 -0.1758  0.0401  1.1521
11234TIP3   OH255116   0.345   6.205   1.566  0.0078 -0.7359  0.0821
11234TIP3    H155117   0.278   6.184   1.501 -0.7913  1.9732 -0.0816
11234TIP3    H255118   0.425   6.220   1.515 -0.4236  0.5818 -0.2424
11235TIP3   OH255119   4.214   0.334   4.776  0.5976  0.0106  0.0437
11235TIP3    H155120   4.229   0.247   4.739  2.2884 -0.1397  1.0305
11235TIP3    H255121   4.292   0.354   4.827 -1.4095  0.3681  3.2721
11236TIP3   OH255122   2.227   6.101   0.826 -0.0477 -0.1102 -0.1844
11236TIP3    H155123   2.245   6.075   0.736 -0.0486 -0.1139 -0.1835
11236TIP3    H255124   2.276   6.182   0.838 -1.2717  0.7227 -0.6708
11237TIP3   OH255125   2.833   1.592  15.140  0.7792 -0.0192 -0.4447
11237TIP3    H155126   2.894   1.658  15.172  1.1186 -0.1172 -0.8710
11237TIP3    H255127   2.788   1.633  15.066 -0.1973  0.3015  0.3043
11238TIP3   OH255128   0.916   3.996   0.972  0.1214 -0.1733 -0.2632
11238TIP3    H155129   0.896   3.955   1.056 -0.8849  0.1369 -0.3344
11238TIP3    H255130   1.009   4.017   0.976  0.3632 -1.2805  0.2824
11239TIP3   OH255131   0.629   2.695   1.420  1.2569 -0.5774  0.1002
11239TIP3    H155132   0.660   2.660   1.336  0.6708 -1.3265  0.1749
11239TIP3    H255133   0.547   2.739   1.398  1.8842  0.5991  0.0435
11240TIP3   OH255134   4.643   2.092  17.183  0.3421 -0.0417 -0.2491
11240TIP3    H155135   4.708   2.136  17.239 -1.9660  1.3013  1.5762
11240TIP3    H255136   4.624   2.156  17.115  0.4370 -0.1548 -0.3810
11241TIP3   OH255137   0.214   0.101  15.902  0.6602 -0.1056  0.3662
11241TIP3    H155138   0.128   0.078  15.937  0.1854  2.4625  1.1064
11241TIP3    H255139   0.212   0.068  15.812 -1.5266  0.7563  0.0225
11242TIP3   OH255140   2.750   0.062  11.288  0.4655 -0.0780 -0.1447
11242TIP3    H155141   2.703   0.143  11.269 -0.7511 -1.1619 -2.2751
11242TIP3    H255142   2.815   0.055  11.218 -0.2301 -1.4664 -0.6936
11243TIP3   OH255143   2.632   1.041  10.950 -0.0575 -0.1895  0.0507
11243TIP3    H155144   2.585   1.027  11.033  0.8431  0.3565  0.6643
11243TIP3    H255145   2.644   1.136  10.945 -0.9362 -0.1203 -1.1849
11244TIP3   OH255146   1.707   4.870   1.275 -0.0612  0.3479  0.1022
11244TIP3    H155147   1.740   4.870   1.365  0.8002 -1.6596 -0.1594
11244TIP3    H255148   1.759   4.936   1.230  1.2935 -0.4280  0.4922
11245TIP3   OH255149   2.378   3.440  15.660  0.5489  0.1222 -0.4828
11245TIP3    H155150   2.392   3.492  15.581 -0.8441 -0.5865 -1.2261
11245TIP3    H255151   2.289   3.406  15.652  1.0434 -1.5315  0.4785
11246TIP3   OH255152   5.889   5.137   4.339  0.0103 -0.1576 -0.4945
11246TIP3    H155153   5.913   5.050   4.306 -0.5746 -0.7239  0.5143
11246TIP3    H255154   5.962   5.163   4.394  0.6338  0.4478 -1.5671
11247TIP3   OH255155   4.298   6.708  11.390 -0.7469 -0.0366  0.5173
11247TIP3    H155156   4.233   6.745  11.330  0.8616  0.6903 -0.8676
11247TIP3    H255157   4.382   6.718  11.344  0.1106 -3.2491  1.0655
11248TIP3   OH255158   4.944   1.484  10.579  0.5224 -0.4961 -0.0184
11248TIP3    H155159   4.999   1.550  10.621  0.9158  0.1096 -1.4269
11248TIP3    H255160   4.860   1.529  10.567  0.8767 -0.1375 -1.2339
11249TIP3   OH255161   2.155   0.866   1.487 -0.1390  0.3618 -0.7062
11249TIP3    H155162   2.182   0.812   1.413  1.7682  0.3189 -0.0203
11249TIP3    H255163   2.067   0.834   1.508  0.5099 -1.7983 -0.9762
11250TIP3   OH255164   3.174   6.664   0.377  0.4966  0.5150  0.0916
11250TIP3    H155165   3.175   6.713   0.459  1.0380 -0.9169  0.9751
11250TIP3    H255166   3.266   6.662   0.349  0.3448  0.8126 -0.4500
11251TIP3   OH255167   1.168   2.713  16.940  0.1706 -0.0270 -0.1761
11251TIP3    H155168   1.220   2.641  16.904 -1.1707 -2.0470  1.6447
11251TIP3    H255169   1.223   2.790  16.930  2.3032 -1.5589 -0.8916
11252TIP3   OH255170   4.744   6.548  11.114 -0.1648  0.5264  0.0542
11252TIP3    H155171   4.653   6.573  11.131 -0.0546  1.4026 -0.6214
11252TIP3    H255172   4.778   6.617  11.058  1.1000  0.5246  0.7856
11253TIP3   OH255173   0.093   3.146   0.031 -0.3211 -0.1837 -0.0204
11253TIP3    H155174   0.015   3.169  -0.019  0.0325 -0.4198 -0.7076
11253TIP3    H255175   0.132   3.230   0.055 -0.4454 -0.0630 -0.2354
11254TIP3   OH255176   3.532   1.999   4.789 -0.7090  0.2977 -0.2700
11254TIP3    H155177   3.600   2.025   4.727 -0.0991 -0.6765 -0.0456
11254TIP3    H255178   3.452   2.043   4.758 -0.5107 -0.4549 -1.9771
11255TIP3   OH255179   0.314   2.364   2.749  0.2412  0.0980 -0.0090
11255TIP3    H155180   0.261   2.350   2.828  0.5829  0.3759  0.2775
11255TIP3    H255181   0.368   2.440   2.770 -0.4659  0.8805 -0.9420
11256TIP3   OH255182   1.571   4.774  14.667 -0.2288 -0.2755  0.0213
11256TIP3    H155183   1.641   4.831  14.635 -1.2655  2.1207  1.7650
11256TIP3    H255184   1.522   4.750  14.588  1.3353 -0.3423 -0.9707
11257TIP3   OH255185   1.315   5.730  17.196 -0.6022  0.8384  0.5679
11257TIP3    H155186   1.402   5.761  17.223 -0.2558  0.6069 -0.2413
11257TIP3    H255187   1.279   5.801  17.144  0.0681  0.0617 -1.0326
11258TIP3   OH255188   6.267   6.222   2.619 -0.0633 -0.1310 -0.0057
11258TIP3    H155189   6.282   6.316   2.616 -1.7068  0.1373 -0.8742
11258TIP3    H255190   6.217   6.208   2.699 -1.2377 -0.0193 -0.7048
11259TIP3   OH255191   1.381   5.995  16.355  0.2013 -0.0754  0.1449
11259TIP3    H155192   1.451   5.950  16.307  0.8201 -0.3118  1.2391
11259TIP3    H255193   1.365   6.075  16.305  1.1126 -0.1167 -0.2337
11260TIP3   OH255194   1.179   1.372  16.375 -0.5700 -0.4771  0.4085
11260TIP3    H155195   1.215   1.422  16.301  2.0500 -0.0783  1.8366
11260TIP3    H255196   1.099   1.333  16.341 -0.7506  1.6518 -1.9058
11261TIP3   OH255197   6.002   6.691  12.176 -0.0853 -0.5929 -0.0181
11261TIP3    H155198   5.946   6.688  12.253  0.0745 -1.7984  0.0732
11261TIP3    H255199   5.944   6.720  12.105 -0.0565  1.2643  0.6735
11262TIP3   OH255200   4.172   2.722   4.328  0.5076 -0.1113  0.2050
11262TIP3    H155201   4.118   2.646   4.351  2.0660 -0.8550  1.7150
11262TIP3    H255202   4.167   2.728   4.233 -0.8038 -1.2210  0.1800
11263TIP3   OH255203   2.649   6.127  14.647 -0.4392 -0.6056 -0.0240
11263TIP3    H155204   2.689   6.061  14.590 -0.8508  0.3601 -1.4827
11263TIP3    H255205   2.555   6.118  14.631 -0.5193  0.0655  0.0523
11264TIP3   OH255206   4.366   4.531   5.549 -0.1099 -0.5414 -0.3351
11264TIP3    H155207   4.299   4.465   5.568  1.0929 -1.6294  0.3032
11264TIP3    H255208   4.449   4.486   5.565  0.7507  1.1831  0.2787
11265TIP3   OH255209   3.172   3.270   5.458 -0.2213 -0.1515  0.6677
11265TIP3    H155210   3.191   3.180   5.485 -0.6615 -0.1871  0.8668
11265TIP3    H255211   3.111   3.261   5.385 -0.0579 -0.0202  0.5140
11266TIP3   OH255212   3.706   3.681  10.733  0.1588 -0.4040  0.3299
11266TIP3    H155213   3.751   3.656  10.652 -0.7650  1.9880 -1.0113
11266TIP3    H255214   3.755   3.756  10.765  0.0149 -0.8239  1.5695
11267TIP3   OH255215   3.050   3.143  11.900 -0.2612  0.0845 -0.6435
11267TIP3    H155216   3.061   3.103  11.987 -0.0500  1.8624  0.2023
11267TIP3    H255217   2.963   3.117  11.872  0.3314 -1.9951 -0.7420
11268TIP3   OH255218   1.992   4.755   1.388 -0.0472 -0.1054  0.2483
11268TIP3    H155219   2.063   4.797   1.436 -0.0372 -1.8342  1.8308
11268TIP3    H255220   1.913   4.800   1.417  0.1705  0.2675  0.2677
11269TIP3   OH255221   5.545   0.690  12.385  0.5437  0.2091 -0.3125
11269TIP3    H155222   5.633   0.707  12.418  0.4915 -0.8963  0.4355
11269TIP3    H255223   5.546   0.598  12.359 -0.5220  0.0560  0.1323
11270TIP3   OH255224   3.730   4.787  14.673 -0.1012 -0.4116  0.0311
11270TIP3    H155225   3.693   4.706  14.709  0.1105  0.2322  1.7601
11270TIP3    H255226   3.687   4.857  14.722  0.5122  0.4966 -0.6944
11271TIP3   OH255227   5.034   3.785  16.488 -0.3643  0.2935  0.4301
11271TIP3    H155228   5.045   3.847  16.416  2.3737 -1.3612 -0.7192
11271TIP3    H255229   4.978   3.716  16.451 -0.6226  0.4114  0.5936
11272TIP3   OH255230   3.657   1.371   2.059 -0.0338 -0.3976  0.4399
11272TIP3    H155231   3.664   1.359   1.964  0.1885  0.9511  0.2709
11272TIP3    H255232   3.569   1.408   2.072  0.5781  1.0898  0.5507
11273TIP3   OH255233   5.940   2.848   0.301  0.1107 -0.1527 -0.1443
11273TIP3    H155234   5.909   2.878   0.387 -1.0623 -0.4960 -0.4338
11273TIP3    H255235   6.031   2.822   0.317 -0.2317 -0.6624  1.1036
11274TIP3   OH255236   1.929   0.624  14.037 -0.2139 -0.1675  0.3730
11274TIP3    H155237   1.856   0.656  13.984  0.6240  1.3263  0.0572
11274TIP3    H255238   1.987   0.582  13.974 -0.2968 -0.4189  0.4635
11275TIP3   OH255239   2.465   2.824  10.792  0.3941 -0.5424  0.3298
11275TIP3    H155240   2.382   2.868  10.774 -0.6654 -1.5970  2.3665
11275TIP3    H255241   2.528   2.866  10.732 -1.1735  1.6111  0.0877
11276TIP3   OH255242   1.141   6.231   0.581  0.2657  0.0962 -0.5551
11276TIP3    H155243   1.172   6.141   0.596 -1.5764 -0.2286  1.9285
11276TIP3    H255244   1.206   6.286   0.626  1.5233  0.1118 -2.2719
11277TIP3   OH255245   2.764   1.914   5.844  0.3346  0.1489 -0.5946
11277TIP3    H155246   2.763   2.003   5.807 -1.6572  0.2767 -0.3419
11277TIP3    H255247   2.699   1.916   5.915  2.7266 -0.6068  1.7703
11278TIP3   OH255248   0.111   1.000  11.770 -0.5961 -0.4535 -0.1568
11278TIP3    H155249   0.044   1.040  11.824  0.4485  1.3516 -0.1324
11278TIP3    H255250   0.192   1.045  11.794  0.2967 -1.2604 -1.5134
11279TIP3   OH255251   2.002   4.260   2.632 -0.5081  0.4191  0.4510
11279TIP3    H155252   2.013   4.189   2.568  1.9763  1.2309 -0.1280
11279TIP3    H255253   1.952   4.326   2.586  0.9937  0.8632 -0.6107
11280TIP3   OH255254   4.990   3.615  14.670 -0.5986  0.2554  0.2757
11280TIP3    H155255   5.033   3.536  14.701 -1.5462 -2.1754 -3.8180
11280TIP3    H255256   4.902   3.610  14.708 -0.8226 -1.0239 -0.3486
11281TIP3   OH255257   3.368   3.686  12.002  0.1525 -0.3648 -0.3161
11281TIP3    H155258   3.338   3.687  11.911 -1.4633 -1.5124  0.1593
11281TIP3    H255259   3.417   3.604  12.010  0.1890 -0.3244 -0.1267
11282TIP3   OH255260   2.269   5.933   6.240  0.0436 -0.8820  0.1815
11282TIP3    H155261   2.313   5.851   6.216  1.6236 -0.0715  0.2174
11282TIP3    H255262   2.251   5.976   6.156 -1.6664 -1.6676  0.1046
11283TIP3   OH255263   3.052   6.272   2.849 -0.6395 -0.1793 -0.4431
11283TIP3    H155264   3.022   6.181   2.855  0.0557 -0.4029 -0.2015
11283TIP3    H255265   3.053   6.302   2.940 -1.4513  0.2673 -0.5806
11284TIP3   OH255266   5.470   6.205   6.284  0.5737  0.5841 -0.5915
11284TIP3    H155267   5.515   6.244   6.208 -0.5404 -0.2416 -1.7220
11284TIP3    H255268   5.440   6.280   6.335  0.2010  1.1982 -1.6716
11285TIP3   OH255269   6.046   6.037   1.960  0.0010  0.2617  0.1248
11285TIP3    H155270   6.053   6.108   2.023 -0.9953  1.8161 -1.4319
11285TIP3    H255271   6.112   6.057   1.893 -1.3808  0.7022 -1.1725
11286TIP3   OH255272   5.596   2.191   0.364  0.8379  0.6198 -0.2027
11286TIP3    H155273   5.579   2.099   0.385  1.2416  0.4000 -0.8093
11286TIP3    H255274   5.660   2.188   0.292  1.9119  1.3897  0.6826
11287TIP3   OH255275   4.323   3.797   3.338 -0.0882  0.1554 -0.6501
11287TIP3    H155276   4.297   3.799   3.430  0.5790 -0.9536 -0.4137
11287TIP3    H255277   4.294   3.711   3.307  0.4940  0.1578 -1.2186
11288TIP3   OH255278   0.737   1.632  10.598 -0.1224  0.3729 -0.2696
11288TIP3    H155279   0.728   1.600  10.508  1.9914 -1.8164  0.1924
11288TIP3    H255280   0.732   1.554  10.652 -0.2516  1.5142  1.4427
11289TIP3   OH255281   1.005   1.787  13.272  0.4755 -0.0395 -0.1701
11289TIP3    H155282   1.036   1.833  13.195 -0.9231 -0.8713 -1.2945
11289TIP3    H255283   0.959   1.853  13.323 -1.4206 -0.0868 -1.7058
11290TIP3   OH255284   2.252   6.493  12.434  0.0543  0.1920  0.6630
11290TIP3    H155285   2.336   6.459  12.467 -0.2627 -1.7596 -0.3773
11290TIP3    H255286   2.241   6.577  12.479  1.1115 -0.8843  3.1553
11291TIP3   OH255287   6.429   6.514  14.239  0.0870 -0.0194  0.2558
11291TIP3    H155288   6.523   6.501  14.232 -0.0670 -1.3956  0.3947
11291TIP3    H255289   6.395   6.428  14.263 -1.0965  0.6997  1.2893
11292TIP3   OH255290   1.715   4.290  13.790  0.2813 -0.1218  0.0488
11292TIP3    H155291   1.649   4.280  13.722  0.9855 -0.1853 -0.6366
11292TIP3    H255292   1.692   4.224  13.856 -0.9791  0.5974  0.3615
11293TIP3   OH255293   1.495   3.503  12.209 -0.1415 -0.3909 -0.3141
11293TIP3    H155294   1.550   3.517  12.132  0.2661 -0.0637  0.0299
11293TIP3    H255295   1.411   3.473  12.174  0.5458 -1.8230 -0.8012
11294TIP3   OH255296   0.894   1.360  11.744 -0.6044  0.4205  0.2833
11294TIP3    H155297   0.935   1.439  11.711  0.4242  0.6050  1.9103
11294TIP3    H255298   0.898   1.368  11.839  0.0431 -1.8372  0.5087
11295TIP3   OH255299   2.545   2.909   3.958  0.3854 -0.0523  0.5985
11295TIP3    H155300   2.477   2.864   3.908  2.2560 -1.8814 -0.4593
11295TIP3    H255301   2.574   2.980   3.901  0.2813 -0.0826  0.5071
11296TIP3   OH255302   4.123   5.084  14.321 -0.3450  0.4931 -0.7178
11296TIP3    H155303   4.077   5.010  14.283  0.4058  0.0384 -0.7566
11296TIP3    H255304   4.124   5.066  14.415 -1.3734  1.1498 -0.5663
11297TIP3   OH255305   2.729   6.332  11.606 -0.6729  0.0201 -0.2771
11297TIP3    H155306   2.724   6.383  11.687  0.9187  2.1209 -1.4273
11297TIP3    H255307   2.644   6.288  11.601 -0.7955 -0.2369  2.5393
11298TIP3   OH255308   1.991   0.115   3.398  0.2681  0.5022 -0.3253
11298TIP3    H155309   1.901   0.106   3.427  0.7131 -1.3659  0.6646
11298TIP3    H255310   2.043   0.097   3.477  1.5335  2.7226 -0.5717
11299TIP3   OH255311   5.075   5.963   2.791  0.1861 -0.1453 -0.0829
11299TIP3    H155312   5.124   5.892   2.831 -0.1632 -0.3900 -0.0854
11299TIP3    H255313   5.065   6.028   2.860  0.5881 -0.0560 -0.1082
11300TIP3   OH255314   5.508   2.599  16.928 -0.1035  0.2032  0.1275
11300TIP3    H155315   5.552   2.596  17.013 -0.8302  1.2870  0.5599
11300TIP3    H255316   5.557   2.664  16.878  0.7548 -0.9433 -0.5464
11301TIP3   OH255317   2.548   5.702  13.899 -0.0164 -0.5528 -0.1435
11301TIP3    H155318   2.589   5.769  13.954  0.2540  0.4828 -1.5463
11301TIP3    H255319   2.458   5.697  13.930 -0.6369  1.9978 -1.3170
11302TIP3   OH255320   1.450   4.885   2.958  0.3969  0.5745  0.1189
11302TIP3    H155321   1.363   4.846   2.964  0.4596  0.5237  0.7152
11302TIP3    H255322   1.501   4.822   2.905  0.1078  0.5500 -0.1310
11303TIP3   OH255323   6.755   3.239  15.939 -0.8079 -0.5282 -0.0735
11303TIP3    H155324   6.809   3.278  15.871  0.8146 -1.1933  0.7803
11303TIP3    H255325   6.794   3.268  16.022 -2.5403  0.0029  0.5977
11304TIP3   OH255326   4.623   0.061   2.913 -0.1284  0.0190  0.4779
11304TIP3    H155327   4.536   0.078   2.877  0.7088 -1.4883 -2.6049
11304TIP3    H255328   4.643  -0.028   2.886  1.4891 -0.5556  3.1838
11305TIP3   OH255329   4.876   6.496   3.823 -0.0112  0.1716 -0.3969
11305TIP3    H155330   4.853   6.462   3.909  1.3369  1.4627  0.5172
11305TIP3    H255331   4.819   6.573   3.812  0.4366  0.5218 -0.2682
11306TIP3   OH255332   1.691   2.307  16.410  0.2398 -0.5321 -0.5185
11306TIP3    H155333   1.786   2.314  16.397  0.0708  1.6534 -0.8615
11306TIP3    H255334   1.674   2.352  16.492 -0.2670 -3.1773  0.9512
11307TIP3   OH255335   6.176   0.442   0.515  0.3319 -0.1896  0.0394
11307TIP3    H155336   6.115   0.497   0.465  0.8773  1.2146  0.8799
11307TIP3    H255337   6.127   0.417   0.593  0.8659  1.1392  0.8335
11308TIP3   OH255338   2.079   5.534  11.932  0.3167  0.6492  0.4668
11308TIP3    H155339   2.017   5.490  11.873 -0.8504  1.9536  0.6344
11308TIP3    H255340   2.094   5.472  12.003 -1.0755  0.3980  0.5756
11309TIP3   OH255341   1.603   2.463   0.461  0.1178  0.4086  0.1134
11309TIP3    H155342   1.600   2.527   0.390 -0.4076  0.0018 -0.2414
11309TIP3    H255343   1.532   2.401   0.440 -1.6297  1.5645  2.2499
11310TIP3   OH255344   0.239   4.276  11.354 -0.2332  0.1286 -0.0402
11310TIP3    H155345   0.286   4.348  11.312 -0.8172  0.6636  0.2053
11310TIP3    H255346   0.163   4.317  11.394 -2.1938 -0.9981 -2.3421
11311TIP3   OH255347   3.880   3.864  14.210 -0.3078 -0.5948  0.0543
11311TIP3    H155348   3.966   3.880  14.170 -1.0437 -3.8822 -3.5103
11311TIP3    H255349   3.820   3.921  14.162 -0.4741 -0.3418  0.5613
11312TIP3   OH255350   2.484   5.394   5.993  0.7666 -0.0894  0.0058
11312TIP3    H155351   2.425   5.394   6.068 -0.1885 -1.0027 -0.7060
11312TIP3    H255352   2.555   5.335   6.018  1.5520  1.2044  0.9637
11313TIP3   OH255353   2.460   6.061   2.086 -0.0360 -0.0161 -0.2255
11313TIP3    H155354   2.520   6.129   2.056 -1.6970  1.8863  0.5685
11313TIP3    H255355   2.511   6.010   2.149  1.3542  0.2319 -1.1190
11314TIP3   OH255356   2.787   3.289  11.800  0.0105 -0.2477  0.3181
11314TIP3    H155357   2.822   3.376  11.781 -0.8119  0.0131 -0.0105
11314TIP3    H255358   2.802   3.240  11.719 -1.9087  0.3605 -0.4471
11315TIP3   OH255359   0.529   3.746   0.976  0.0702  0.5071 -0.0251
11315TIP3    H155360   0.537   3.657   1.009 -3.5636  0.3125  0.7778
11315TIP3    H255361   0.592   3.796   1.027  1.8954 -1.4736 -0.1958
11316TIP3   OH255362   2.317   6.061  11.413  0.4919  0.2893  0.4976
11316TIP3    H155363   2.279   6.119  11.346 -0.4213 -0.8245  0.0203
11316TIP3    H255364   2.329   5.977  11.369  3.0865  0.4222  0.7888
11317TIP3   OH255365   5.484   5.027  11.224  0.6964 -0.7810  0.2312
11317TIP3    H155366   5.520   5.069  11.146  1.3133 -1.1706  0.3027
11317TIP3    H255367   5.392   5.013  11.203  0.4644  0.6193  0.2112
11318TIP3   OH255368   6.288   1.993   1.931 -0.2325 -0.3100  0.3937
11318TIP3    H155369   6.293   1.900   1.952 -0.9958 -0.4303  0.0803
11318TIP3    H255370   6.337   2.036   2.000  1.3329 -1.0365 -0.2303
11319TIP3   OH255371   1.338   0.502  15.127 -0.0210  0.1093  0.0117
11319TIP3    H155372   1.367   0.580  15.079 -0.7023 -0.5137 -1.4912
11319TIP3    H255373   1.243   0.506  15.124 -0.0839  0.1922  1.5968
11320TIP3   OH255374   3.202   5.499   0.693 -0.5555  0.5478  0.1335
11320TIP3    H155375   3.262   5.440   0.739 -1.1072 -0.1384 -0.0017
11320TIP3    H255376   3.197   5.576   0.748 -1.9839 -0.6541  1.7718
11321TIP3   OH255377   2.754   6.695   0.906 -0.1338  0.0346  0.4108
11321TIP3    H155378   2.782   6.770   0.959 -1.9534 -0.3344  2.0557
11321TIP3    H255379   2.815   6.625   0.930  0.3248  0.4413  0.4435
11322TIP3   OH255380   0.704   2.763   3.031  0.3860 -0.5775 -0.2662
11322TIP3    H155381   0.613   2.735   3.027  0.2196 -0.4757  1.8040
11322TIP3    H255382   0.743   2.729   2.950 -1.6902  0.2457 -1.6911
11323TIP3   OH255383   1.993   0.111   4.402 -0.5344 -0.1814 -0.2966
11323TIP3    H155384   2.073   0.125   4.453 -0.6531 -1.0972  0.1457
11323TIP3    H255385   1.968   0.021   4.419 -1.8667  0.1959 -0.1500
11324TIP3   OH255386   5.493   2.027  16.098 -0.2907 -0.6338  0.1279
11324TIP3    H155387   5.444   2.062  16.172  0.0357  3.3599 -1.2827
11324TIP3    H255388   5.580   2.007  16.133 -0.1759  1.0782  0.9344
11325TIP3   OH255389   1.288   1.647   0.202  1.0249  0.5568  0.3402
11325TIP3    H155390   1.343   1.569   0.210  0.7573  0.3693  0.3473
11325TIP3    H255391   1.335   1.715   0.251  0.9691  0.2484  0.8213
11326TIP3   OH255392   5.651   2.859  15.114  0.1246  0.2694  0.8574
11326TIP3    H155393   5.719   2.916  15.148  1.2535  0.3232 -1.3395
11326TIP3    H255394   5.698   2.787  15.073 -0.8189  1.9026 -3.6329
11327TIP3   OH255395   4.561   0.432   3.770 -0.0926  0.5814 -0.3310
11327TIP3    H155396   4.637   0.476   3.808  1.2530 -0.0726 -2.1392
11327TIP3    H255397   4.549   0.354   3.823  1.5011 -0.1193 -0.9485
11328TIP3   OH255398   3.949   2.558   2.626  0.6319 -0.1358 -0.1708
11328TIP3    H155399   3.982   2.487   2.682 -1.6777 -1.0891  0.1128
11328TIP3    H255400   3.996   2.547   2.543  1.7058 -0.7876  0.4966
11329TIP3   OH255401   4.451   5.352  14.313 -0.0947  0.3212 -0.1664
11329TIP3    H155402   4.396   5.390  14.381  0.0190  1.1539 -0.5239
11329TIP3    H255403   4.469   5.424  14.253 -0.0135 -0.3397 -0.9658
11330TIP3   OH255404   0.626   0.626  15.946  0.0222  0.3641  0.0190
11330TIP3    H155405   0.571   0.656  16.018 -0.1291 -0.1792  0.1371
11330TIP3    H255406   0.611   0.531  15.942  1.4452  0.0908  0.4853
11331TIP3   OH255407   6.211   4.206   2.642  0.0819 -0.0790  0.5782
11331TIP3    H155408   6.158   4.217   2.563 -1.3709 -2.2895  1.1358
11331TIP3    H255409   6.267   4.130   2.622  1.3666  0.7609  0.8786
11332TIP3   OH255410   0.620   4.205   2.984  0.2080 -0.3766 -0.9907
11332TIP3    H155411   0.646   4.171   3.070  0.7001  1.0665 -0.5526
11332TIP3    H255412   0.534   4.244   2.998  0.1534 -0.4098 -1.2311
11333TIP3   OH255413   6.072   4.885  16.676  0.1492  0.4951  0.3488
11333TIP3    H155414   6.034   4.804  16.709  0.7096  0.0861  0.0126
11333TIP3    H255415   6.007   4.952  16.696 -0.2275 -0.0020  0.8184
11334TIP3   OH255416   3.188   0.222   4.152  0.1934  0.0786 -0.3075
11334TIP3    H155417   3.122   0.290   4.142 -0.3577 -0.6939 -2.3165
11334TIP3    H255418   3.268   0.269   4.175  0.4349  1.7725 -4.0105
11335TIP3   OH255419   4.028   5.363   2.475  0.8444 -0.1446  0.8505
11335TIP3    H155420   4.061   5.316   2.552 -1.5400 -1.7719  1.0056
11335TIP3    H255421   3.933   5.358   2.484  0.4951 -0.0359 -2.0132
11336TIP3   OH255422   4.562   1.582  12.912  0.1511  0.3134 -0.1826
11336TIP3    H155423   4.507   1.504  12.904 -0.9833  0.8771  1.6963
11336TIP3    H255424   4.576   1.593  13.006 -0.3210  2.7820 -0.3316
11337TIP3   OH255425   2.169   6.073  15.078 -0.4647 -0.2877 -0.1870
11337TIP3    H155426   2.226   6.145  15.105  1.1625 -1.4884 -0.2901
11337TIP3    H255427   2.081   6.106  15.093  0.2324  1.6418 -0.0205
11338TIP3   OH255428   2.477   5.386   2.722 -0.2928  0.2005 -0.1470
11338TIP3    H155429   2.566   5.406   2.752  0.4612 -2.9726  0.0441
11338TIP3    H255430   2.428   5.367   2.802  0.0057 -2.0200 -0.4409
11339TIP3   OH255431   3.376   2.144  13.037  0.5917  0.0346  0.0210
11339TIP3    H155432   3.426   2.108  13.110  2.6460  1.0190 -0.8400
11339TIP3    H255433   3.300   2.185  13.078  0.5025 -1.3854  1.3746
11340TIP3   OH255434   3.157   4.003  14.355  0.2580 -0.4816  0.2865
11340TIP3    H155435   3.094   3.941  14.317 -0.0132  0.2083 -0.4163
11340TIP3    H255436   3.182   4.060  14.282  0.0240  0.6237  1.0489
11341TIP3   OH255437   1.425   5.957   2.945 -0.6848 -0.3117 -0.1731
11341TIP3    H155438   1.356   5.961   3.011 -0.7970  0.4372 -0.3288
11341TIP3    H255439   1.498   6.006   2.983 -0.9210  0.5514 -0.7845
11342TIP3   OH255440   1.172   0.377  13.855  0.0569 -0.2674 -0.2642
11342TIP3    H155441   1.237   0.433  13.898  0.4624  2.0631 -3.4948
11342TIP3    H255442   1.091   0.427  13.859  0.0522 -0.1045 -1.8576
11343TIP3   OH255443   5.228   4.657  14.955 -0.3325  0.0989 -0.2002
11343TIP3    H155444   5.301   4.645  14.894  1.3698 -1.2202  1.9582
11343TIP3    H255445   5.190   4.570  14.965 -0.2719  0.1984  0.9929
11344TIP3   OH255446   6.120   5.956  14.904 -0.2924 -0.3513 -0.3873
11344TIP3    H155447   6.210   5.969  14.933 -0.3983  0.0286 -0.2243
11344TIP3    H255448   6.070   5.946  14.985 -0.7016  1.4213 -0.3971
11345TIP3   OH255449   6.155   2.938  12.991  0.2294 -0.3573  1.0518
11345TIP3    H155450   6.168   3.020  13.040 -1.7718  1.1562 -0.7847
11345TIP3    H255451   6.228   2.936  12.929  0.0067  0.3135  0.7598
11346TIP3   OH255452   0.419   5.458   4.273 -0.1231 -0.0873  0.2911
11346TIP3    H155453   0.413   5.479   4.366  2.7893 -1.4837  0.8940
11346TIP3    H255454   0.364   5.380   4.263 -0.4321  0.0498  0.8461
11347TIP3   OH255455   5.922   1.455   4.766 -0.0651 -0.2217 -0.6006
11347TIP3    H155456   5.963   1.518   4.824 -1.1224  0.2764 -0.3778
11347TIP3    H255457   5.996   1.408   4.725  0.7039  0.5016 -0.0644
11348TIP3   OH255458   5.495   4.293  17.025 -0.0520  0.3171  0.3305
11348TIP3    H155459   5.511   4.279  16.932  0.8229  0.5170  0.4457
11348TIP3    H255460   5.406   4.327  17.029 -0.8612 -1.5746 -0.2634
11349TIP3   OH255461   2.235   6.082   0.531  0.3760  0.2984 -0.1856
11349TIP3    H155462   2.323   6.120   0.531  1.1146 -1.3304  0.0502
11349TIP3    H255463   2.180   6.150   0.570  1.4808  1.4408 -0.5576
11350TIP3   OH255464   3.913   0.356  13.080  0.1943  0.4459  0.1232
11350TIP3    H155465   4.002   0.376  13.053  0.6342 -0.7690  0.5729
11350TIP3    H255466   3.919   0.345  13.175 -0.3674  0.0652  0.1170
11351TIP3   OH255467   5.522   4.471   3.603 -0.1339 -0.5709  0.1137
11351TIP3    H155468   5.491   4.428   3.683  1.2103 -1.0701  0.3987
11351TIP3    H255469   5.617   4.467   3.610  0.0213  1.6329 -0.3210
11352TIP3   OH255470   0.495   3.183   2.093  0.0740 -0.1829 -0.0989
11352TIP3    H155471   0.573   3.128   2.095  1.5920  1.8409 -0.2102
11352TIP3    H255472   0.426   3.129   2.132  1.3991 -2.2000 -0.4184
11353TIP3   OH255473   2.464   1.663   5.004 -0.1013 -0.5254  0.2275
11353TIP3    H155474   2.441   1.630   4.917  1.0445 -1.0538  0.1123
11353TIP3    H255475   2.390   1.719   5.029  0.2489  0.9267 -1.7611
11354TIP3   OH255476   1.438   1.817   2.462 -0.2738 -0.3743  0.3336
11354TIP3    H155477   1.425   1.756   2.390  0.1393  0.6385 -0.6305
11354TIP3    H255478   1.521   1.790   2.502 -0.0630 -0.4029 -0.1236
11355TIP3   OH255479   0.547   5.443  14.604  0.1895  0.2428 -0.6247
11355TIP3    H155480   0.461   5.423  14.567  0.7224  1.0340 -2.3890
11355TIP3    H255481   0.531   5.450  14.698 -1.4091 -0.9346 -0.7678
11356TIP3   OH255482   3.824   3.983  15.046  0.1346 -0.5460  0.3595
11356TIP3    H155483   3.754   4.046  15.060  0.6568  0.5866 -1.6979
11356TIP3    H255484   3.885   3.997  15.119 -0.1749  0.7692  0.3869
11357TIP3   OH255485   0.015   2.640   3.353 -0.8862  0.0418  0.7306
11357TIP3    H155486   0.045   2.723   3.316 -0.7087 -0.6827 -0.8157
11357TIP3    H255487  -0.045   2.605   3.287 -2.0163 -0.4442  1.9714
11358TIP3   OH255488   1.915   2.845  11.264  0.1199 -0.2006  0.2039
11358TIP3    H155489   1.890   2.779  11.328 -1.3945  1.0216  0.9298
11358TIP3    H255490   1.922   2.926  11.314 -1.8195  0.9504 -1.2321
11359TIP3   OH255491   1.702   4.563  17.220 -0.2728 -0.1894 -0.0741
11359TIP3    H155492   1.665   4.514  17.293  0.2293  0.0968  0.3797
11359TIP3    H255493   1.731   4.646  17.259 -1.1550  0.5073 -0.8348
11360TIP3   OH255494   2.641   2.621   2.862 -0.6144  0.1078  0.0560
11360TIP3    H155495   2.718   2.672   2.886  0.6122 -1.4598 -0.3591
11360TIP3    H255496   2.575   2.645   2.927  0.7797  0.2102  1.4939
11361TIP3   OH255497   0.616   4.836  13.204 -0.0973  0.4391 -0.2532
11361TIP3    H155498   0.529   4.797  13.214 -0.4717  1.0930 -0.8435
11361TIP3    H255499   0.618   4.866  13.113  0.6756  0.6013 -0.1878
11362TIP3   OH255500   1.812   3.726  13.398 -0.1453 -0.4935 -0.5314
11362TIP3    H155501   1.886   3.668  13.419  0.1029 -0.1107 -0.3246
11362TIP3    H255502   1.735   3.669  13.400 -0.0653 -0.5818  0.9282
11363TIP3   OH255503   3.790   0.070  15.697  0.7994 -0.0624 -0.6148
11363TIP3    H155504   3.734  -0.006  15.710  0.9400 -0.1538 -0.5358
11363TIP3    H255505   3.850   0.044  15.626  1.0177 -0.1253 -0.4116
11364TIP3   OH255506   0.357   0.269  15.152 -0.1149  0.4852 -0.3386
11364TIP3    H155507   0.315   0.350  15.181 -0.7543 -0.4881  1.6094
11364TIP3    H255508   0.425   0.253  15.217  0.6116 -0.0798 -1.2190
11365TIP3   OH255509   5.812   2.843   3.698  0.0111 -0.3418 -0.1355
11365TIP3    H155510   5.904   2.868   3.686  0.5689 -2.2875 -0.2382
11365TIP3    H255511   5.801   2.837   3.793  1.0780 -3.4955 -0.0745
11366TIP3   OH255512   1.848   6.364  13.315 -0.3994  0.0798  0.0479
11366TIP3    H155513   1.864   6.401  13.401 -1.8463  0.6897  0.0842
11366TIP3    H255514   1.832   6.271  13.330 -1.6637  0.3741  0.5713
11367TIP3   OH255515   3.353   5.290   0.734  0.0450 -0.5940  0.5183
11367TIP3    H155516   3.448   5.286   0.751  0.2258  0.1056 -0.2456
11367TIP3    H255517   3.333   5.206   0.692  0.5748 -0.2664 -0.4297
11368TIP3   OH255518   2.307   4.058  13.154 -0.5481 -0.6026  0.2389
11368TIP3    H155519   2.356   4.081  13.075 -0.3571 -1.6003  0.0480
11368TIP3    H255520   2.375   4.035  13.217 -0.5758  2.2365  1.4386
11369TIP3   OH255521   3.579   0.724  15.507  0.4644  0.0853 -0.4333
11369TIP3    H155522   3.510   0.720  15.441  1.2652 -0.2943 -1.2551
11369TIP3    H255523   3.568   0.644  15.558 -0.0826  0.3251 -0.1588
11370TIP3   OH255524   5.309   2.972   1.271 -0.9182  0.5923  0.2925
11370TIP3    H155525   5.379   2.913   1.244 -0.1188  0.9221  1.5645
11370TIP3    H255526   5.292   3.027   1.194  0.1413  0.4347 -0.0660
11371TIP3   OH255527   5.487   3.305  14.137  0.4025  0.0795 -0.4520
11371TIP3    H155528   5.451   3.380  14.184  1.2254  1.4026 -1.8197
11371TIP3    H255529   5.530   3.252  14.204 -0.2351  0.8057  0.5475
11372TIP3   OH255530   6.303   5.322  11.348 -0.4807 -0.5562  0.1474
11372TIP3    H155531   6.270   5.265  11.279 -1.2128 -1.9026  1.5514
11372TIP3    H255532   6.261   5.290  11.428  1.1822  0.2393  1.4030
11373TIP3   OH255533   6.057   6.488   3.916  0.0034  0.1664 -0.2326
11373TIP3    H155534   6.101   6.568   3.945  1.8358 -0.7958 -0.1939
11373TIP3    H255535   6.055   6.432   3.994  3.2257 -1.6869 -1.2893
11374TIP3   OH255536   3.042   4.623   4.162  0.4365  0.8110 -0.8079
11374TIP3    H155537   3.054   4.662   4.248  1.0674  0.4421 -0.7147
11374TIP3    H255538   3.032   4.697   4.102 -0.9358  1.0449 -0.2979
11375TIP3   OH255539   3.663   3.346   1.822  0.9583 -0.2216 -0.0434
11375TIP3    H155540   3.661   3.412   1.891  0.1793  0.2960 -0.5501
11375TIP3    H255541   3.571   3.328   1.803  1.1275 -2.0540  0.6352
11376TIP3   OH255542   2.391   6.608  16.257  0.5359 -0.2034  0.1188
11376TIP3    H155543   2.344   6.691  16.253  0.9458  0.0025 -0.9204
11376TIP3    H255544   2.483   6.633  16.267  1.0262 -0.3541 -2.9149
11377TIP3   OH255545   1.075   4.033  16.451  0.3859  0.0734  0.3499
11377TIP3    H155546   1.085   4.008  16.543 -0.3165 -1.1588  0.1084
11377TIP3    H255547   0.998   4.089  16.449 -1.1701 -1.9722  0.1851
11378TIP3   OH255548   6.042   0.875  13.451 -0.0826  0.1873 -0.8388
11378TIP3    H155549   6.022   0.782  13.440 -1.0360  0.0095  1.8193
11378TIP3    H255550   5.962   0.920  13.424 -0.0660  0.1715 -0.9150
11379TIP3   OH255551   3.169   2.722  12.944 -0.4246  0.2221  0.1537
11379TIP3    H155552   3.168   2.733  12.849 -1.3302  0.1995  0.1468
11379TIP3    H255553   3.250   2.674  12.962 -0.8051 -0.8014 -0.7377
11380TIP3   OH255554   2.905   2.425   5.656 -0.1507 -0.3294 -0.3470
11380TIP3    H155555   2.944   2.450   5.740 -0.2313  1.0351 -0.6934
11380TIP3    H255556   2.967   2.457   5.590 -0.9353  0.2208 -0.8494
11381TIP3   OH255557   1.286   3.085  17.213 -0.3766  0.2921  0.0260
11381TIP3    H155558   1.193   3.061  17.212 -0.9802  2.3583  1.2659
11381TIP3    H255559   1.297   3.137  17.133 -0.6349  1.1229  0.5149
11382TIP3   OH255560   5.591   3.701   2.047 -0.0838 -0.0177 -0.6129
11382TIP3    H155561   5.540   3.713   1.967  2.6296  1.2101 -2.2984
11382TIP3    H255562   5.561   3.771   2.106  2.1467  3.3279 -3.0642
11383TIP3   OH255563   3.434   5.197   4.683  0.0915 -0.3624  0.1940
11383TIP3    H155564   3.497   5.131   4.654 -0.1949 -1.3288  1.6621
11383TIP3    H255565   3.357   5.181   4.629  0.9183  0.5532 -1.3183
11384TIP3   OH255566   3.799   6.540  12.227  0.2562 -0.5884 -0.2538
11384TIP3    H155567   3.770   6.627  12.200 -2.4067 -1.7376 -1.5086
11384TIP3    H255568   3.879   6.524  12.177  0.3730  0.8325 -0.5517
11385TIP3   OH255569   1.175   1.354   4.769  0.5029  0.4497  0.0468
11385TIP3    H155570   1.199   1.317   4.854  2.0815  1.3003 -0.0046
11385TIP3    H255571   1.254   1.349   4.717 -0.0442  1.2812 -0.8995
11386TIP3   OH255572   3.934   2.740  16.721 -0.6841 -0.2712  0.1333
11386TIP3    H155573   3.842   2.718  16.712 -0.8816  0.9461 -1.1777
11386TIP3    H255574   3.942   2.774  16.810 -1.3642 -0.9207  0.4504
11387TIP3   OH255575   3.560   3.682   0.904  0.5162 -0.3581 -0.1672
11387TIP3    H155576   3.517   3.767   0.891 -0.8211 -1.3140 -2.6743
11387TIP3    H255577   3.638   3.686   0.849 -0.1574 -1.1110 -1.2175
11388TIP3   OH255578   2.712   6.232  16.717  0.3056 -0.4262 -0.4684
11388TIP3    H155579   2.659   6.164  16.759  1.2712 -0.8543  0.0718
11388TIP3    H255580   2.735   6.291  16.788  1.1211 -0.6100 -0.5778
11389TIP3   OH255581   5.021   5.354   5.493 -0.5954 -0.7435  0.0268
11389TIP3    H155582   4.962   5.282   5.472  0.4145 -1.4326 -0.5208
11389TIP3    H255583   5.043   5.392   5.408 -0.5041 -0.2824  0.2533
11390TIP3   OH255584   6.592   4.929  15.212  0.3698  0.2050 -0.5433
11390TIP3    H155585   6.506   4.904  15.246  1.0297 -2.4330 -0.6630
11390TIP3    H255586   6.654   4.873  15.257  1.9346  1.1392 -1.4183
11391TIP3   OH255587   0.414   1.125   6.229  0.4722 -0.0636 -0.1537
11391TIP3    H155588   0.492   1.143   6.177  2.2549  2.5871  3.1143
11391TIP3    H255589   0.368   1.209   6.234 -0.3798 -0.5837  1.3403
11392TIP3   OH255590   0.313   0.140   2.897 -0.0880 -0.5047  0.5024
11392TIP3    H155591   0.301   0.210   2.962 -0.7870 -0.6900  0.5774
11392TIP3    H255592   0.225   0.125   2.861  0.6040  1.2403 -2.2359
11393TIP3   OH255593   0.807   1.878   5.020 -0.1073 -0.2478 -0.0135
11393TIP3    H155594   0.824   1.852   4.930  2.1635  0.6525  0.0890
11393TIP3    H255595   0.844   1.807   5.073 -0.3206 -0.1831  0.2293
11394TIP3   OH255596   1.155   4.048   5.980  0.0912 -0.2042  0.7205
11394TIP3    H155597   1.133   4.126   6.031  3.2294  0.5346  1.1883
11394TIP3    H255598   1.089   4.045   5.911 -0.4919  2.5395  1.0369
11395TIP3   OH255599   2.132   3.690  13.934  0.5779  0.1479  0.1932
11395TIP3    H155600   2.202   3.670  13.871 -0.4894 -1.1446 -0.6239
11395TIP3    H255601   2.172   3.753  13.994  1.7220  1.2058 -1.5916
11396TIP3   OH255602   2.879   5.767  13.461  0.2624 -0.5217 -0.1328
11396TIP3    H155603   2.937   5.840  13.485  0.7292 -0.9419  0.0388
11396TIP3    H255604   2.850   5.731  13.544 -0.5412 -0.0879 -0.2215
11397TIP3   OH255605   0.417   6.454   0.441  0.6460  0.6931  0.4666
11397TIP3    H155606   0.378   6.510   0.374  0.6916 -0.8810 -0.9387
11397TIP3    H255607   0.510   6.452   0.419  1.0341  1.8418  1.8733
11398TIP3   OH255608   5.967   5.518  16.171  0.2417 -0.0142 -0.1381
11398TIP3    H155609   6.039   5.460  16.196 -0.5142 -0.4764  1.0551
11398TIP3    H255610   6.009   5.588  16.120  1.4461 -0.5652  0.0724
11399TIP3   OH255611   4.098   3.407   5.157 -0.3728 -0.2056 -0.1285
11399TIP3    H155612   4.079   3.387   5.065 -2.9339 -0.2750  0.3521
11399TIP3    H255613   4.086   3.324   5.203  0.0118  0.0213  0.3907
11400TIP3   OH255614   1.444   5.951  14.045 -0.2916 -0.5797 -0.1415
11400TIP3    H155615   1.451   6.003  13.965  0.4376  1.9806  1.4986
11400TIP3    H255616   1.526   5.902  14.049  0.2452  0.3063 -0.2670
11401TIP3   OH255617   2.295   1.294   1.239 -0.1388 -0.3137 -0.5355
11401TIP3    H155618   2.241   1.344   1.178 -0.3306 -0.2031 -0.2783
11401TIP3    H255619   2.246   1.212   1.252 -0.2919 -0.1780 -0.2366
11402TIP3   OH255620   1.955   1.571  11.194 -0.2479  0.0552  0.4215
11402TIP3    H155621   1.860   1.561  11.185 -0.6470  2.5897  0.9742
11402TIP3    H255622   1.965   1.652  11.244  2.2145 -0.5791  1.0526
11403TIP3   OH255623   0.031   4.765  16.938  0.1557  0.4385  1.0576
11403TIP3    H155624  -0.037   4.757  17.005 -0.6074 -0.1797  0.2248
11403TIP3    H255625   0.056   4.675  16.919  2.7152  0.6639  2.8071
11404TIP3   OH255626   1.980   1.075  16.269  0.0999  0.3292  0.4743
11404TIP3    H155627   1.992   0.983  16.291 -1.3652 -0.3666 -1.3580
11404TIP3    H255628   1.994   1.079  16.175  0.3357  2.0470  0.5479
11405TIP3   OH255629   6.438   2.072  13.805 -0.5814  1.0121  0.1836
11405TIP3    H155630   6.440   1.999  13.868 -0.5910  2.7350  2.2828
11405TIP3    H255631   6.410   2.031  13.723 -0.4505 -1.3735  1.2201
11406TIP3   OH255632   6.159   4.050  11.571  0.2545 -0.0276 -0.1781
11406TIP3    H155633   6.104   4.127  11.585 -0.3714 -0.3014 -1.0699
11406TIP3    H255634   6.107   3.993  11.515  1.1733 -0.6038 -0.4625
11407TIP3   OH255635   0.092   4.487   0.928 -0.3323  0.2240 -0.6386
11407TIP3    H155636   0.113   4.548   0.857  1.7284  0.0608 -0.2281
11407TIP3    H255637   0.051   4.542   0.995 -0.9200  0.6525 -1.3347
11408TIP3   OH255638   2.051   3.654   3.587 -0.2317 -0.1548  0.0275
11408TIP3    H155639   2.111   3.728   3.596  0.2277 -0.5074 -0.1216
11408TIP3    H255640   2.046   3.616   3.674  1.2510 -1.2694 -0.3377
11409TIP3   OH255641   1.468   6.040  12.014  0.0429 -0.3157  1.0289
11409TIP3    H155642   1.434   6.063  12.100  0.3654  1.3450  0.7479
11409TIP3    H255643   1.559   6.016  12.030 -0.5433 -2.4071  1.4523
11410TIP3   OH255644   5.146   6.034  12.313 -0.5518 -0.4586  0.3315
11410TIP3    H155645   5.096   5.958  12.343  0.7750 -1.1845  0.7681
11410TIP3    H255646   5.237   6.004  12.311 -0.3705 -0.1649 -3.3791
11411TIP3   OH255647   1.837   0.176   4.201  0.5985 -0.0699  0.5059
11411TIP3    H155648   1.847   0.121   4.123 -0.5494 -0.5063  0.6461
11411TIP3    H255649   1.891   0.133   4.267 -1.5611 -2.1108  1.1206
11412TIP3   OH255650   1.691   3.317  15.193  0.0268  0.6800  0.1161
11412TIP3    H155651   1.666   3.233  15.154  0.6702  0.1605  0.8050
11412TIP3    H255652   1.641   3.321  15.275  1.3429  0.1188  0.9828
11413TIP3   OH255653   4.491   2.679   0.093  0.0682 -0.1277  0.0525
11413TIP3    H155654   4.558   2.665   0.026  0.1176 -1.7398  0.3965
11413TIP3    H255655   4.483   2.774   0.100  1.5768  0.0808 -0.7290
11414TIP3   OH255656   3.258   5.523   3.613  0.3657  0.1320 -0.2991
11414TIP3    H155657   3.184   5.471   3.646  0.0922 -0.4286 -1.7464
11414TIP3    H255658   3.334   5.490   3.662 -0.1123 -0.2694  0.1835
11415TIP3   OH255659   5.034   4.156   3.472  0.4576  1.2029 -0.0545
11415TIP3    H155660   5.127   4.143   3.490  0.6589  0.9017 -1.2272
11415TIP3    H255661   4.991   4.077   3.506  0.7895  0.7583 -0.6732
11416TIP3   OH255662   0.157   6.265   2.099  0.5714 -0.3223  0.4295
11416TIP3    H155663   0.231   6.286   2.157  0.5975 -0.4329  0.4378
11416TIP3    H255664   0.194   6.204   2.035  1.1265  1.5663 -1.1272
11417TIP3   OH255665   1.071   0.954  15.918  0.4511 -0.3525  0.5725
11417TIP3    H155666   1.135   0.885  15.937  1.6093 -0.1086 -2.0476
11417TIP3    H255667   0.998   0.907  15.876  1.0895 -0.0820 -0.8944
11418TIP3   OH255668   6.027   2.042  16.490  0.2984  0.0689 -0.0293
11418TIP3    H155669   6.084   2.106  16.449  0.1537 -1.3427 -2.6766
11418TIP3    H255670   5.940   2.059  16.452  0.2885 -1.6875 -0.9303
11419TIP3   OH255671   3.752   6.293   4.853  0.0987 -0.0873 -0.0324
11419TIP3    H155672   3.685   6.360   4.864 -1.1999 -1.4592  1.0129
11419TIP3    H255673   3.795   6.314   4.771 -0.2817  1.9758  0.2533
11420TIP3   OH255674   2.654   5.212  12.572 -0.2073 -0.1429  0.4073
11420TIP3    H155675   2.618   5.294  12.540 -1.1045 -0.6343  0.1214
11420TIP3    H255676   2.622   5.146  12.510  1.8315 -0.5226 -0.3259
11421TIP3   OH255677   2.892   2.099  11.976 -0.0126  0.6395 -0.1151
11421TIP3    H155678   2.885   2.008  11.948 -1.1553  0.6444  0.0728
11421TIP3    H255679   2.801   2.128  11.983  0.3352  1.7789 -0.1218
11422TIP3   OH255680   0.310   5.340  14.505  0.0244  0.1474 -0.1126
11422TIP3    H155681   0.324   5.246  14.492  0.1599  0.1871 -0.2536
11422TIP3    H255682   0.275   5.347  14.594  1.1832  0.0666  0.3701
11423TIP3   OH255683   1.286   0.961   0.991  0.4492  0.0498  0.3081
11423TIP3    H155684   1.230   1.007   0.928  0.8408 -1.0489 -0.8739
11423TIP3    H255685   1.250   0.986   1.077 -1.6012 -0.2734 -0.3905
11424TIP3   OH255686   1.733   0.676  13.324 -0.2856  0.3291 -0.7372
11424TIP3    H155687   1.681   0.747  13.362 -1.4672  0.2748 -2.1340
11424TIP3    H255688   1.768   0.628  13.399 -0.9815  1.2978  0.2347
11425TIP3   OH255689   4.315   2.556   4.875 -0.6999 -0.6171  0.1405
11425TIP3    H155690   4.264   2.624   4.918  0.5839  0.3691  0.1621
11425TIP3    H255691   4.254   2.483   4.864 -1.3651 -0.4888  2.5769
11426TIP3   OH255692   4.509   4.093   4.589 -0.1525 -0.2242  0.2411
11426TIP3    H155693   4.458   4.108   4.668 -0.0470  0.6595  0.1536
11426TIP3    H255694   4.508   4.177   4.543 -0.4935 -0.8125 -0.8685
11427TIP3   OH255695   3.769   2.250   0.495  0.0452  0.5141 -0.0398
11427TIP3    H155696   3.685   2.293   0.511  0.4276  0.4911  2.4394
11427TIP3    H255697   3.746   2.158   0.479 -0.4482  0.6739 -0.2745
11428TIP3   OH255698   1.747   0.360  15.430 -0.3365 -0.4397  0.0691
11428TIP3    H155699   1.672   0.383  15.376 -0.9633  0.0096  1.1000
11428TIP3    H255700   1.822   0.362  15.370 -0.6496  2.3456 -0.3690
11429TIP3   OH255701   6.727   5.639  15.431 -0.3597 -0.3061 -0.3522
11429TIP3    H155702   6.719   5.664  15.339  0.4924 -0.2733 -0.4288
11429TIP3    H255703   6.654   5.579  15.446 -0.7451  0.0055 -0.9353
11430TIP3   OH255704   5.536   5.898  13.374 -0.4087 -0.1719 -0.7832
11430TIP3    H155705   5.451   5.938  13.393  0.7520  2.1984 -0.1748
11430TIP3    H255706   5.570   5.871  13.459  0.0963  0.3225 -0.8198
11431TIP3   OH255707   5.653   1.241  12.175 -0.3797 -0.2208  0.0691
11431TIP3    H155708   5.599   1.284  12.109  0.2085  1.6353  0.7331
11431TIP3    H255709   5.592   1.216  12.245 -0.9800 -2.0573 -1.0306
11432TIP3   OH255710   1.826   6.031  12.591 -0.2690  0.0059  0.2098
11432TIP3    H155711   1.739   5.992  12.600  0.1636 -1.2471 -0.7747
11432TIP3    H255712   1.812   6.108  12.536 -0.9580  0.6387  1.2312
11433TIP3   OH255713   4.386   4.450  17.163 -0.4158  0.5040 -0.5711
11433TIP3    H155714   4.481   4.466  17.169 -0.4625  1.2263 -1.5240
11433TIP3    H255715   4.378   4.355  17.151  0.1847  0.4218 -0.3358
11434TIP3   OH255716   2.161   2.698   2.875 -0.2305 -0.8782  0.5090
11434TIP3    H155717   2.211   2.623   2.843  0.9219  0.1361 -0.1451
11434TIP3    H255718   2.099   2.719   2.805  0.1835 -0.5587  0.2374
11435TIP3   OH255719   6.543   5.434  15.328  0.6679  0.3587 -0.1160
11435TIP3    H155720   6.499   5.352  15.306  1.2509  0.0645 -0.2049
11435TIP3    H255721   6.477   5.483  15.378  0.2976 -0.1398 -0.0998
11436TIP3   OH255722   1.425   3.627  10.541  0.2952  0.1004  0.2539
11436TIP3    H155723   1.341   3.605  10.583  0.2971  0.0630  0.2377
11436TIP3    H255724   1.469   3.543  10.530 -2.1225 -0.8251 -5.1945
11437TIP3   OH255725   3.041   2.822   5.340 -0.1862 -0.1547 -0.8572
11437TIP3    H155726   3.064   2.746   5.287 -0.6126  0.7638 -2.4278
11437TIP3    H255727   3.112   2.885   5.324  0.4271 -0.3785  0.8262
11438TIP3   OH255728   4.392   5.499  12.676 -0.1547 -0.6015  0.8515
11438TIP3    H155729   4.447   5.514  12.753 -1.9794 -0.9896  2.2900
11438TIP3    H255730   4.324   5.439  12.706 -0.7512 -1.0142 -1.1662
11439TIP3   OH255731   3.661   4.658   1.211 -0.4379  0.5854  0.5489
11439TIP3    H155732   3.633   4.696   1.127 -0.0758  0.1977  0.2470
11439TIP3    H255733   3.582   4.614   1.243 -0.9558  1.8383  1.0625
11440TIP3   OH255734   0.409   0.105  12.032  0.2460 -0.5938  0.6709
11440TIP3    H155735   0.365   0.035  12.080 -1.0767 -0.7904 -0.7355
11440TIP3    H255736   0.469   0.060  11.974 -0.5944 -0.6001 -0.2233
11441TIP3   OH255737   2.914   0.472  15.777 -0.5812  0.0413  0.5631
11441TIP3    H155738   2.869   0.409  15.834 -1.2118  0.8935  1.0328
11441TIP3    H255739   2.977   0.516  15.834  2.4864 -2.5703 -0.5068
11442TIP3   OH255740   1.267   6.138  16.707 -0.3565  0.0768 -0.3259
11442TIP3    H155741   1.224   6.185  16.778 -0.5644 -0.6778  0.0460
11442TIP3    H255742   1.297   6.208  16.648 -0.8246  0.6709  0.1249
11443TIP3   OH255743   1.887   2.137  12.867 -0.1001  0.2080 -0.4114
11443TIP3    H155744   1.885   2.137  12.962  0.1976 -1.4290 -0.3758
11443TIP3    H255745   1.935   2.217  12.843 -1.6280  1.5114  0.7343
11444TIP3   OH255746   2.064   1.190  12.718 -0.2565  0.1175 -0.0229
11444TIP3    H155747   2.059   1.135  12.640 -0.9420  1.0659 -0.6633
11444TIP3    H255748   1.999   1.153  12.778 -1.1728  0.6144 -0.7022
11445TIP3   OH255749   6.262   3.501   3.416 -0.0775  0.5108  0.6355
11445TIP3    H155750   6.193   3.459   3.468  0.8596 -1.8969  0.1108
11445TIP3    H255751   6.289   3.577   3.467 -2.3231  0.8472  1.3887
11446TIP3   OH255752   4.235   5.925  15.610 -0.7864 -0.3435  0.2197
11446TIP3    H155753   4.256   5.856  15.674 -0.7509  0.2037  0.8140
11446TIP3    H255754   4.251   5.884  15.525  1.9678 -0.2446  0.5956
11447TIP3   OH255755   5.120   3.939   5.009  0.0351 -0.5604 -0.1008
11447TIP3    H155756   5.165   4.018   5.041 -0.9891 -0.5521  1.4246
11447TIP3    H255757   5.087   3.964   4.923 -0.6008  0.8405  0.5066
11448TIP3   OH255758   0.065   1.179  15.329 -0.0302  0.3457 -0.6086
11448TIP3    H155759   0.116   1.098  15.330  1.3749  1.1932  0.0947
11448TIP3    H255760   0.115   1.238  15.272 -0.5325  1.0124 -0.3720
11449TIP3   OH255761   5.610   1.545  13.408 -0.2768  0.2315  0.2512
11449TIP3    H155762   5.588   1.491  13.484  0.5851  0.5204  0.7249
11449TIP3    H255763   5.704   1.532  13.395 -0.4544  0.0067 -0.9177
11450TIP3   OH255764   4.774   2.713  11.931  0.0064 -0.1958  0.2917
11450TIP3    H155765   4.770   2.805  11.959  0.0208 -0.1222  0.0528
11450TIP3    H255766   4.713   2.668  11.990  0.9629 -0.2529  1.2656
11451TIP3   OH255767   1.306   5.709   4.186 -0.1191  0.4913  0.1259
11451TIP3    H155768   1.390   5.752   4.173  0.8704 -1.2878  0.2722
11451TIP3    H255769   1.241   5.779   4.179  1.3566  1.8840 -0.1047
11452TIP3   OH255770   3.188   3.335   4.766 -0.8232 -0.3432  0.2516
11452TIP3    H155771   3.204   3.315   4.858 -1.0389 -1.0014  0.1503
11452TIP3    H255772   3.096   3.363   4.764 -0.8965 -0.5873  0.1962
11453TIP3   OH255773   2.731   5.422  16.713 -0.6041 -0.4406 -0.2220
11453TIP3    H155774   2.639   5.418  16.686 -1.3242 -2.8654  2.1872
11453TIP3    H255775   2.730   5.471  16.795  0.0055 -1.7089  0.5718
11454TIP3   OH255776   1.832   2.235   2.657  0.4402  0.1049 -0.0707
11454TIP3    H155777   1.755   2.287   2.681  1.7908  2.1330  0.1663
11454TIP3    H255778   1.816   2.210   2.566 -0.3371  0.8200 -0.1470
11455TIP3   OH255779   0.475   2.382  12.800  0.0347 -0.0130 -0.0079
11455TIP3    H155780   0.454   2.446  12.868 -0.8687 -0.1454 -0.1437
11455TIP3    H255781   0.499   2.434  12.724 -1.7653  0.2350 -0.4627
11456TIP3   OH255782   3.386   6.552  12.039 -0.2603  0.1394  0.2482
11456TIP3    H155783   3.435   6.573  11.960 -0.7897  2.1542  0.4023
11456TIP3    H255784   3.299   6.529  12.007 -0.7882  1.9805  0.2445
11457TIP3   OH255785   5.244   2.439   4.970  0.4098  0.1363  0.0878
11457TIP3    H155786   5.194   2.503   4.919 -0.3598 -0.9738 -0.5889
11457TIP3    H255787   5.183   2.368   4.986  0.4944  0.6204  2.9748
11458TIP3   OH255788   3.925   4.381   3.916 -0.3014 -0.3089  0.2796
11458TIP3    H155789   3.870   4.374   3.838 -0.9009  0.4697  0.6238
11458TIP3    H255790   3.888   4.454   3.966  0.9025  0.0819  0.6340
11459TIP3   OH255791   3.180   0.758   1.934  0.3575  0.3551 -0.4410
11459TIP3    H155792   3.215   0.765   1.845 -1.9206  1.4563 -1.3175
11459TIP3    H255793   3.136   0.673   1.936  1.4205 -0.2079  0.0680
11460TIP3   OH255794   6.428   0.128   5.558  0.1900  0.1055  0.2841
11460TIP3    H155795   6.503   0.176   5.592 -0.7058  0.9689  1.0957
11460TIP3    H255796   6.362   0.135   5.627 -0.6373 -0.6597 -0.4064
11461TIP3   OH255797   6.318   6.136  12.031 -0.6066 -0.7875  0.4536
11461TIP3    H155798   6.362   6.061  12.069 -1.1865 -1.6517 -0.5366
11461TIP3    H255799   6.362   6.212  12.069 -0.5323 -1.6077  2.0814
11462TIP3   OH255800   3.923   3.730   2.291  0.3352  0.1499  0.6052
11462TIP3    H155801   3.839   3.769   2.315 -1.5696 -0.8519 -3.5309
11462TIP3    H255802   3.965   3.797   2.237  2.1729  0.5308  2.4086
11463TIP3   OH255803   5.753   6.669   3.999  0.0538  0.0773  0.3724
11463TIP3    H155804   5.797   6.623   4.071 -0.9947  0.7243  1.4595
11463TIP3    H255805   5.660   6.665   4.020 -0.2737  0.3639 -0.9147
11464TIP3   OH255806   2.298   3.772  12.781 -0.3382 -0.0581  0.6659
11464TIP3    H155807   2.287   3.732  12.695 -1.0598  0.4088  0.5382
11464TIP3    H255808   2.246   3.717  12.840  1.7561 -1.6199  1.2198
11465TIP3   OH255809   3.397   5.175   3.627  0.4930  0.2681 -0.0805
11465TIP3    H155810   3.337   5.149   3.558 -1.9324  0.6785  1.7333
11465TIP3    H255811   3.430   5.092   3.663 -0.5635 -0.0419  0.1874
11466TIP3   OH255812   0.914   0.589  13.378  0.2659  0.8689  0.2549
11466TIP3    H155813   0.837   0.538  13.353  1.1753 -0.3227 -0.2169
11466TIP3    H255814   0.899   0.676  13.341 -0.6880  0.5485 -0.1294
11467TIP3   OH255815   1.270   2.695   1.170 -0.0768  0.1316 -0.3680
11467TIP3    H155816   1.284   2.757   1.099  1.5463  0.6551  0.3557
11467TIP3    H255817   1.175   2.682   1.173 -0.2608  0.9188 -1.9084
11468TIP3   OH255818   3.276   5.895   2.400 -0.4201 -0.0556  0.5482
11468TIP3    H155819   3.344   5.881   2.335  0.4203 -0.9827  1.5991
11468TIP3    H255820   3.270   5.990   2.409  0.5733  0.0368  0.2737
11469TIP3   OH255821   5.411   5.434  16.245  0.0114 -0.3089 -0.1480
11469TIP3    H155822   5.495   5.387  16.249  1.5237  2.2343  0.0835
11469TIP3    H255823   5.435   5.526  16.233 -2.6879  0.7541  1.5093
11470TIP3   OH255824   5.553   5.221  11.417 -0.4931 -0.3126  0.5831
11470TIP3    H155825   5.515   5.145  11.371  0.2472  0.1975 -0.9473
11470TIP3    H255826   5.493   5.239  11.488 -1.4063 -1.5031  0.1423
11471TIP3   OH255827   0.073   6.279   3.170  0.2461 -0.3966 -0.4217
11471TIP3    H155828   0.043   6.263   3.260 -0.0325 -0.4886 -0.5317
11471TIP3    H255829  -0.006   6.274   3.117  0.5881 -1.5658 -0.8338
11472TIP3   OH255830   1.105   5.046   3.565  0.1468  0.1386  0.4040
11472TIP3    H155831   1.191   5.052   3.607  0.0861  0.6099  0.4702
11472TIP3    H255832   1.079   5.137   3.552  0.4611  0.0245 -1.2729
11473TIP3   OH255833   3.902   6.003  15.851  0.1685  0.0445 -0.5526
11473TIP3    H155834   3.943   5.971  15.932 -0.6221 -0.6383 -0.4088
11473TIP3    H255835   3.973   6.047  15.805  0.8588 -0.3548  0.0887
11474TIP3   OH255836   0.771   0.345  16.088  0.4536 -0.0923  0.0991
11474TIP3    H155837   0.686   0.334  16.044  0.0528  2.6134  0.0492
11474TIP3    H255838   0.818   0.408  16.034  1.1042  1.1032  1.9748
11475TIP3   OH255839   3.899   6.577  11.616 -0.1384 -0.4431  0.4846
11475TIP3    H155840   3.812   6.601  11.585 -0.5657 -1.1322  1.1261
11475TIP3    H255841   3.937   6.526  11.543  0.1765  0.7988 -0.2439
11476TIP3   OH255842   6.662   4.525  15.750 -0.0159 -0.5689  0.4724
11476TIP3    H155843   6.682   4.572  15.832 -1.0247 -0.9711  0.9614
11476TIP3    H255844   6.748   4.508  15.712  0.4177  1.9815  0.0850
11477TIP3   OH255845   5.418   4.531   1.759 -0.4895 -0.5699  0.3215
11477TIP3    H155846   5.379   4.496   1.839  1.0282 -1.3551  0.7544
11477TIP3    H255847   5.423   4.625   1.775 -2.4488 -0.3886  0.1079
11478TIP3   OH255848   2.103   6.186  13.849 -0.2322  0.0105  0.2917
11478TIP3    H155849   2.118   6.205  13.942 -0.9040 -0.4212  0.4929
11478TIP3    H255850   2.149   6.256  13.803 -1.9987  1.7193  0.9948
11479TIP3   OH255851   3.267   4.143   4.514 -0.4039  0.0534  0.2137
11479TIP3    H155852   3.188   4.188   4.485 -0.2664 -0.1233 -0.4611
11479TIP3    H255853   3.336   4.179   4.458 -0.2386 -0.7537 -0.1131
11480TIP3   OH255854   1.032   5.706  11.703  0.1482 -0.1634 -0.2237
11480TIP3    H155855   1.126   5.713  11.685  0.5325  2.2540  2.1870
11480TIP3    H255856   1.027   5.647  11.778 -0.5966 -2.3452 -1.8615
11481TIP3   OH255857   1.246   6.632  15.789  0.1890  0.1253  0.0251
11481TIP3    H155858   1.201   6.570  15.732 -1.1852  0.4282  0.7279
11481TIP3    H255859   1.335   6.597  15.797  0.6932  0.5172 -2.8997
11482TIP3   OH255860   4.311   6.164   3.857 -0.2732 -0.1735  0.5517
11482TIP3    H155861   4.264   6.127   3.782  2.2339 -0.7244 -0.8631
11482TIP3    H255862   4.313   6.258   3.840  1.2696 -0.3956 -0.7765
11483TIP3   OH255863   4.232   2.829  14.327  0.1672  0.6400 -0.0346
11483TIP3    H155864   4.268   2.772  14.395 -1.6589 -0.4468  0.1157
11483TIP3    H255865   4.302   2.891  14.307  1.4067 -0.1935  1.4877
11484TIP3   OH255866   5.586   4.294   4.569  0.2381  0.6064 -0.0256
11484TIP3    H155867   5.662   4.259   4.524  0.3052 -1.5140  1.5645
11484TIP3    H255868   5.511   4.247   4.531  0.3179 -1.3792  2.0518
11485TIP3   OH255869   0.846   0.202  16.296  0.2797  0.7462 -0.0389
11485TIP3    H155870   0.828   0.266  16.227 -0.0168 -0.8114 -1.4905
11485TIP3    H255871   0.865   0.121  16.248 -0.3424 -0.5039  1.7306
11486TIP3   OH255872   6.436   3.683  16.444 -0.2149  0.3442 -0.1533
11486TIP3    H155873   6.378   3.758  16.458 -0.7610 -0.2795  1.1227
11486TIP3    H255874   6.437   3.638  16.529  1.4240 -0.1734 -0.4185
11487TIP3   OH255875   3.379   3.192  12.588 -0.3227  0.0501  0.3082
11487TIP3    H155876   3.451   3.193  12.526 -0.5513  0.4043  0.0397
11487TIP3    H255877   3.362   3.285  12.606  0.7898 -0.0555  2.1488
11488TIP3   OH255878   2.265   0.408  15.847  0.0819 -0.4133  0.1978
11488TIP3    H155879   2.305   0.332  15.888 -0.0458  0.1579  1.4308
11488TIP3    H255880   2.295   0.483  15.900  0.2998  0.4131 -1.0494
11489TIP3   OH255881   2.441   0.550  14.521  0.2881 -0.0538  0.3293
11489TIP3    H155882   2.409   0.578  14.435  1.7813  2.9807  0.5988
11489TIP3    H255883   2.400   0.610  14.582  0.7303 -0.9261  1.5191
11490TIP3   OH255884   2.100   5.273   4.656  0.5381 -0.2447 -0.3255
11490TIP3    H155885   2.059   5.188   4.671  0.7567 -0.2641  0.1791
11490TIP3    H255886   2.053   5.310   4.581 -0.3761 -0.2845  0.2100
11491TIP3   OH255887   2.458   2.588   4.166 -0.3520  0.2880  0.6786
11491TIP3    H155888   2.412   2.671   4.176  0.7415  1.0708 -0.4935
11491TIP3    H255889   2.506   2.577   4.248  1.0145  1.8086  0.1409
11492TIP3   OH255890   4.435   1.278  13.539  0.1130 -0.0437  0.5387
11492TIP3    H155891   4.478   1.342  13.595 -1.0334 -0.2148  1.6333
11492TIP3    H255892   4.402   1.211  13.599 -0.5982 -0.5534 -0.3967
11493TIP3   OH255893   0.721   5.173  12.642  0.5291  0.1051 -0.5668
11493TIP3    H155894   0.634   5.136  12.657  0.2767  0.5673 -0.8588
11493TIP3    H255895   0.707   5.240  12.575  1.2225 -0.2715 -1.1032
11494TIP3   OH255896   5.609   0.604   5.849  0.7780  0.5254  0.1161
11494TIP3    H155897   5.559   0.524   5.837 -0.2521  1.0666  0.6357
11494TIP3    H255898   5.621   0.639   5.761  1.8220 -0.5248 -0.1830
11495TIP3   OH255899   5.462   4.863  17.127  0.2593  0.2375 -0.3600
11495TIP3    H155900   5.393   4.841  17.190  1.6974  0.6176  1.4678
11495TIP3    H255901   5.475   4.958  17.137  0.6908  0.2590 -1.0374
11496TIP3   OH255902   0.601   5.174   3.102  0.1819  0.1539  0.4205
11496TIP3    H155903   0.696   5.162   3.104  0.3647  1.4594  0.6080
11496TIP3    H255904   0.573   5.164   3.193 -0.1060 -1.7799  0.1632
11497TIP3   OH255905   0.038   6.577  14.015  0.1212  0.0337 -0.2473
11497TIP3    H155906  -0.017   6.520  14.069  2.0525 -1.5676  0.1547
11497TIP3    H255907   0.078   6.518  13.951  1.4103  1.0931 -0.4716
11498TIP3   OH255908   6.485   0.466  13.169 -0.7512  0.6850 -0.1585
11498TIP3    H155909   6.423   0.397  13.192 -0.2707  0.5490  0.8146
11498TIP3    H255910   6.527   0.436  13.089  0.6544 -1.0045  1.1287
11499TIP3   OH255911   0.180   5.066  15.704 -0.4936 -0.1365 -0.3988
11499TIP3    H155912   0.154   5.156  15.726 -0.7995 -0.0852 -0.9584
11499TIP3    H255913   0.276   5.068  15.708 -0.4082  0.6420 -1.9595
11500TIP3   OH255914   3.484   1.577   3.532  0.5571 -0.4405 -0.0551
11500TIP3    H155915   3.391   1.580   3.552  0.5832 -0.7575  0.1178
11500TIP3    H255916   3.515   1.496   3.572  0.9629 -0.1967  0.1346
11501TIP3   OH255917   0.832   0.777  15.843 -0.4537  0.1200 -0.5639
11501TIP3    H155918   0.757   0.730  15.879  1.3914 -0.1721  3.3367
11501TIP3    H255919   0.879   0.711  15.791 -1.3785 -0.4359 -0.7215
11502TIP3   OH255920   3.086   5.147  14.713  0.5257  0.7365 -0.0219
11502TIP3    H155921   3.116   5.126  14.625  0.7284 -0.5071  0.3281
11502TIP3    H255922   3.152   5.109  14.771 -1.0166 -0.9295  0.7277
11503TIP3   OH255923   2.638   4.535  15.892 -0.0828  0.5219  0.1094
11503TIP3    H155924   2.553   4.502  15.862 -0.2919  1.0272  0.1340
11503TIP3    H255925   2.642   4.509  15.984 -0.2370  0.5358  0.1209
11504TIP3   OH255926   1.240   3.688   0.615 -0.0085 -0.1455 -0.3603
11504TIP3    H155927   1.257   3.644   0.531 -0.2904 -0.2120 -0.3836
11504TIP3    H255928   1.180   3.758   0.593  0.2599  0.1104 -0.2822
11505TIP3   OH255929   1.456   2.827   5.827  0.3278 -0.1177 -0.0682
11505TIP3    H155930   1.419   2.891   5.767 -0.5770  0.9736  1.5865
11505TIP3    H255931   1.534   2.870   5.862  0.3224 -0.3676  0.2474
11506TIP3   OH255932   4.343   1.919  12.516  0.5845 -0.3066 -0.0401
11506TIP3    H155933   4.262   1.868  12.518  0.0853  0.4714  1.5447
11506TIP3    H255934   4.322   1.996  12.463 -0.3335  0.7665  1.7687
11507TIP3   OH255935   5.475   2.507   2.147 -0.5502 -0.2864 -0.3722
11507TIP3    H155936   5.424   2.576   2.105 -0.6327 -0.3176 -0.3253
11507TIP3    H255937   5.497   2.446   2.076 -0.3892 -0.1584 -0.4309
11508TIP3   OH255938   3.041   6.727   3.586  0.0683 -0.2722 -0.1645
11508TIP3    H155939   3.070   6.711   3.676  1.7155  1.6762 -0.2940
11508TIP3    H255940   3.114   6.773   3.545 -1.2280  0.1628 -2.0946
11509TIP3   OH255941   5.063   2.405  16.592 -0.2790  0.5408 -0.0443
11509TIP3    H155942   4.972   2.375  16.604 -0.2274  0.8237  1.1180
11509TIP3    H255943   5.065   2.492  16.631  1.3808 -0.9061  3.5234
11510TIP3   OH255944   0.951   4.254   2.114 -0.1997 -0.2579  0.1192
11510TIP3    H155945   0.940   4.190   2.184 -1.5754 -1.7528 -1.3837
11510TIP3    H255946   1.009   4.211   2.051  0.3151  0.7128 -0.0982
11511TIP3   OH255947   4.615   5.779  16.960 -0.5166 -0.4340  0.0043
11511TIP3    H155948   4.679   5.831  17.009  1.2403 -2.4952  0.0492
11511TIP3    H255949   4.595   5.833  16.883  2.0765 -0.1097 -0.5289
11512TIP3   OH255950   6.096   0.828   4.103  0.5595 -0.1036  0.3296
11512TIP3    H155951   6.107   0.856   4.012 -2.3533  2.0692  0.5321
11512TIP3    H255952   6.062   0.738   4.096  0.4709 -0.0029 -0.7303
11513TIP3   OH255953   4.200   5.053   1.725  0.7565  0.4736 -0.1376
11513TIP3    H155954   4.174   4.983   1.665  3.2972 -0.1220 -0.6504
11513TIP3    H255955   4.267   5.101   1.677  0.4411  2.0748  0.9753
11514TIP3   OH255956   2.511   6.743  14.587  0.0741 -0.5313 -0.0821
11514TIP3    H155957   2.590   6.726  14.638 -0.2478  4.2754  2.6329
11514TIP3    H255958   2.541   6.790  14.509  0.0954  1.4928  1.0572
11515TIP3   OH255959   4.243   6.403  16.265  0.1626  0.1218 -0.0898
11515TIP3    H155960   4.336   6.394  16.281 -0.3418 -0.9809  2.6182
11515TIP3    H255961   4.218   6.484  16.311  0.0656  1.6105 -2.5611
11516TIP3   OH255962   3.482   5.500   1.386  0.2300  0.1262 -0.3073
11516TIP3    H155963   3.436   5.453   1.316  0.8064  0.3483 -0.8518
11516TIP3    H255964   3.521   5.576   1.342  0.5124  0.3289  0.2803
11517TIP3   OH255965   0.762   3.170  15.576  0.1839 -0.4011 -0.4879
11517TIP3    H155966   0.733   3.079  15.578 -1.1379  0.0056  1.0325
11517TIP3    H255967   0.778   3.193  15.667  1.4386  0.6386 -0.9269
11518TIP3   OH255968   3.991   0.859  15.931 -0.9249 -0.0499  0.5155
11518TIP3    H155969   4.060   0.924  15.940  0.2689 -0.9260 -1.7241
11518TIP3    H255970   3.920   0.905  15.887 -0.4945  0.0283 -0.1027
11519TIP3   OH255971   2.096   6.483  14.646  0.3977 -0.6972 -0.6073
11519TIP3    H155972   2.134   6.492  14.559 -1.7385 -2.0566 -1.7712
11519TIP3    H255973   2.013   6.530  14.642  0.7958  0.2769  1.1362
11520TIP3   OH255974   3.740   2.913  12.704 -0.5474 -0.3053 -0.2862
11520TIP3    H155975   3.680   2.858  12.653  0.2579 -1.9414  0.4655
11520TIP3    H255976   3.791   2.851  12.756  1.3516  1.0689 -0.4139
11521TIP3   OH255977   0.507   4.746   1.426 -0.2855 -0.4594  0.1856
11521TIP3    H155978   0.569   4.816   1.444 -0.9779  0.0234  0.7775
11521TIP3    H255979   0.432   4.790   1.385 -0.0247 -1.1111 -1.0370
11522TIP3   OH255980   4.782   1.396   1.551 -0.3789  0.5941 -0.4181
11522TIP3    H155981   4.780   1.368   1.459  2.4926 -1.8231  0.0954
11522TIP3    H255982   4.719   1.338   1.595 -1.0581  1.1146 -0.6880
11523TIP3   OH255983   6.191   4.248   3.828  0.8881  0.2653  0.1354
11523TIP3    H155984   6.119   4.247   3.764  0.3133 -0.9208  0.7796
11523TIP3    H255985   6.202   4.340   3.849 -0.6204  0.4541  0.2083
11524TIP3   OH255986   1.187   6.664  13.425 -0.1199  0.1984  0.4185
11524TIP3    H155987   1.194   6.735  13.362  1.1568  0.1588  0.4967
11524TIP3    H255988   1.185   6.584  13.372  1.1035  0.1560  0.4084
11525TIP3   OH255989   6.579   0.768  12.248 -0.5819 -0.1708 -0.2558
11525TIP3    H155990   6.489   0.781  12.279 -0.3821 -0.5649  0.5222
11525TIP3    H255991   6.598   0.676  12.268  0.0894 -0.0126 -0.1474
11526TIP3   OH255992   2.072   5.367  16.364 -0.3005 -0.5087  0.4531
11526TIP3    H155993   2.040   5.361  16.274 -1.7080  0.4207  0.8651
11526TIP3    H255994   2.044   5.453  16.394  0.6568 -0.5694  1.6087
11527TIP3   OH255995   1.864   4.691  13.944 -0.3113 -0.4082 -0.2341
11527TIP3    H155996   1.801   4.624  13.972  0.0046 -0.5258  0.2052
11527TIP3    H255997   1.851   4.764  14.004 -1.3870  0.3784 -1.3505
11528TIP3   OH255998   1.073   4.112   1.504  0.1097 -0.3101  0.0328
11528TIP3    H155999   1.146   4.159   1.465  1.1054 -1.1563  0.8041
11528TIP3    H256000   1.005   4.113   1.437  0.1167  2.0940 -0.0248
11529TIP3   OH256001   2.870   1.845  11.897 -0.2000  0.1368  0.8688
11529TIP3    H156002   2.828   1.778  11.950 -2.2274 -0.3639 -1.2349
11529TIP3    H256003   2.909   1.797  11.823  0.1615  1.0703  0.4268
11530TIP3   OH256004   2.187   0.866  16.565  0.6281 -0.3865 -0.1021
11530TIP3    H156005   2.178   0.876  16.660  0.5167 -0.3556 -0.1166
11530TIP3    H256006   2.104   0.899  16.530  1.8080  2.5349 -0.4380
11531TIP3   OH256007   6.019   2.228  11.876  0.5908 -0.1885  0.0608
11531TIP3    H156008   6.091   2.195  11.821  0.4305  1.7727 -1.4301
11531TIP3    H256009   6.063   2.270  11.950  0.8471 -1.8086  0.8674
11532TIP3   OH256010   4.687   5.651  16.655  0.6762  0.2426 -0.0086
11532TIP3    H156011   4.597   5.680  16.673  0.3563 -0.6223 -0.1750
11532TIP3    H256012   4.690   5.561  16.687  1.5182  0.2900  0.0706
11533TIP3   OH256013   0.305   2.045  10.787 -0.0586 -0.0306  0.3865
11533TIP3    H156014   0.391   2.082  10.811 -0.3909  2.6423 -1.9950
11533TIP3    H256015   0.321   1.951  10.781  2.9567  0.4197 -0.6518
11534TIP3   OH256016   5.394   0.355  13.500  0.1646 -0.1735  0.2830
11534TIP3    H156017   5.320   0.393  13.453  0.7565 -0.4186 -0.8953
11534TIP3    H256018   5.430   0.428  13.551 -0.5195  0.0887  0.4000
11535TIP3   OH256019   3.218   1.678  11.820  0.3638  0.0592  0.0692
11535TIP3    H156020   3.143   1.704  11.766  0.1809  1.1860  0.8511
11535TIP3    H256021   3.238   1.589  11.790  1.1319  1.0902 -2.8172
11536TIP3   OH256022   1.161   3.167  10.992  0.0775  0.8626  0.5839
11536TIP3    H156023   1.090   3.150  10.930  1.9383 -0.2733 -1.4067
11536TIP3    H256024   1.122   3.153  11.078 -1.0917 -4.9942 -0.4410
11537TIP3   OH256025   6.543   1.628  12.361 -0.2295 -0.1123 -0.4680
11537TIP3    H156026   6.451   1.602  12.361 -0.5228  0.8832 -1.0241
11537TIP3    H256027   6.588   1.559  12.411 -1.4385  0.0137  0.8480
11538TIP3   OH256028   3.184   3.852  11.813  0.5737 -0.0443  0.5463
11538TIP3    H156029   3.103   3.853  11.761  0.3067  3.1689  0.8379
11538TIP3    H256030   3.157   3.821  11.899 -0.8056  2.4330  1.1112
11539TIP3   OH256031   2.645   5.047   4.380 -0.2359 -0.0207  0.0498
11539TIP3    H156032   2.566   5.098   4.395 -0.1021  0.2391 -0.1275
11539TIP3    H256033   2.715   5.112   4.373  0.2176 -0.3101  1.5788
11540TIP3   OH256034   4.586   5.451  15.459  0.3362 -0.3519  0.0325
11540TIP3    H156035   4.551   5.539  15.475 -0.3436 -0.3372 -1.3475
11540TIP3    H256036   4.681   5.463  15.461  0.2496  0.4099 -0.0522
11541TIP3   OH256037   4.978   3.827  15.022 -0.4507 -0.1711 -0.3043
11541TIP3    H156038   4.933   3.881  15.087  0.5163  0.6044 -0.2598
11541TIP3    H256039   4.923   3.748  15.014 -0.3159 -0.5410  1.8369
11542TIP3   OH256040   3.340   6.410  10.790  0.0990 -0.1525  0.0256
11542TIP3    H156041   3.351   6.502  10.767  0.9842  0.2687  1.9297
11542TIP3    H256042   3.405   6.394  10.859 -0.2575 -2.1199 -0.0189
11543TIP3   OH256043   6.520   1.897   3.821  0.0580  0.4472 -0.3088
11543TIP3    H156044   6.452   1.926   3.760 -0.6670  0.3413  0.4336
11543TIP3    H256045   6.526   1.803   3.807  0.9625  0.6276 -1.2660
11544TIP3   OH256046   0.292   5.852  10.191  0.1248 -0.0405  0.1064
11544TIP3    H156047   0.228   5.872  10.259 -0.7886 -1.7876 -0.1744
11544TIP3    H256048   0.292   5.756  10.186  1.0491  0.0166 -1.5329
11545TIP3   OH256049   0.897   3.578   5.689  0.4109 -0.3391  0.4558
11545TIP3    H156050   0.949   3.504   5.659  2.1862  1.3314 -0.8340
11545TIP3    H256051   0.944   3.612   5.766 -0.5623 -0.7042  1.2353
11546TIP3   OH256052   3.177   2.616   5.209  0.3696  0.7557  0.3253
11546TIP3    H156053   3.231   2.540   5.186 -0.6225 -0.1073  0.7376
11546TIP3    H256054   3.237   2.690   5.204  2.0295 -0.3198  2.3049
11547TIP3   OH256055   3.200   2.837  13.172  0.4804 -0.0980 -0.4607
11547TIP3    H156056   3.208   2.790  13.089  0.4398 -1.8515  0.4933
11547TIP3    H256057   3.208   2.929  13.148 -0.0154 -0.5384 -2.4653
11548TIP3   OH256058   6.496   2.004  10.896  0.0279 -0.4580  0.3959
11548TIP3    H156059   6.510   1.924  10.948  0.7397  0.3372  1.4569
11548TIP3    H256060   6.436   2.056  10.949  2.7958  1.5409  1.8087
11549TIP3   OH256061   4.152   5.687   1.787  0.3051 -0.4640 -0.2396
11549TIP3    H156062   4.111   5.746   1.850 -0.7210  0.0860 -1.3945
11549TIP3    H256063   4.224   5.738   1.749  1.5460 -1.1186  1.1227
11550TIP3   OH256064   3.410   5.533  14.355  0.1822  0.0456 -0.0476
11550TIP3    H156065   3.453   5.617  14.339 -0.9905  0.7657  0.4000
11550TIP3    H256066   3.391   5.534  14.449  1.8187 -1.5675  0.3506
11551TIP3   OH256067   5.744   4.183   6.387 -0.5926  0.2472  0.5703
11551TIP3    H156068   5.702   4.109   6.431  1.0424 -0.6484  0.7145
11551TIP3    H256069   5.760   4.152   6.297 -1.9004  1.2631 -0.0524
11552TIP3   OH256070   6.189   1.721   0.817  1.0478  0.2304 -0.5171
11552TIP3    H156071   6.114   1.675   0.855  2.2721 -2.1926 -0.8280
11552TIP3    H256072   6.238   1.753   0.892  0.8534 -0.1614 -0.2169
11553TIP3   OH256073   3.612   1.689  15.050  1.0777  0.0083  0.0500
11553TIP3    H156074   3.612   1.782  15.074 -0.6224 -0.4569  2.1875
11553TIP3    H256075   3.559   1.685  14.970 -1.9789  0.5782  1.8894
11554TIP3   OH256076   4.570   1.400  14.736 -0.5453 -0.1719 -0.7192
11554TIP3    H156077   4.490   1.448  14.715 -1.0403 -0.5961  0.1634
11554TIP3    H256078   4.548   1.308  14.721  0.1556 -0.2166 -1.6258
11555TIP3   OH256079   0.956   4.824   2.553 -1.1280 -0.4302  0.4938
11555TIP3    H156080   0.965   4.782   2.467 -0.4930 -1.3083  0.9753
11555TIP3    H256081   0.909   4.906   2.535  1.1154  0.6037 -1.0509
11556TIP3   OH256082   4.614   0.087  14.945 -0.3462  0.6132 -0.1327
11556TIP3    H156083   4.569   0.171  14.933 -1.2299  0.5866  2.4276
11556TIP3    H256084   4.703   0.110  14.971 -0.1847  0.7159 -0.7551
11557TIP3   OH256085   2.308   5.065  15.975 -0.2819  0.2668 -0.0668
11557TIP3    H156086   2.261   4.982  15.964  0.1874 -0.1284  0.8391
11557TIP3    H256087   2.282   5.096  16.062  0.4983  0.4487  0.1096
11558TIP3   OH256088   3.160   0.472   6.245  0.4733  0.4882  0.3728
11558TIP3    H156089   3.243   0.444   6.283 -0.4386 -1.1981  1.2387
11558TIP3    H256090   3.166   0.568   6.242  1.9368  0.4763  1.5944
11559TIP3   OH256091   2.748   0.907  13.399  0.2298  0.5496 -0.0357
11559TIP3    H156092   2.828   0.960  13.401  2.0096 -1.9753  1.4513
11559TIP3    H256093   2.771   0.832  13.345 -0.3795 -1.2075  2.0168
11560TIP3   OH256094   6.690   3.048   3.861 -0.3138  0.8597 -0.4641
11560TIP3    H156095   6.777   3.020   3.833 -0.7761  0.2368 -1.3187
11560TIP3    H256096   6.643   3.068   3.780 -0.7056  2.0371  0.0236
11561TIP3   OH256097   1.173   5.179  15.110  0.9266  0.2846  0.3980
11561TIP3    H156098   1.115   5.255  15.108  1.1273  0.4266 -0.0327
11561TIP3    H256099   1.114   5.105  15.124  0.8266  0.6074  1.8867
11562TIP3   OH256100   3.954   2.414   3.009  0.8836  0.1109  0.4696
11562TIP3    H156101   4.013   2.351   3.053 -0.3110 -2.1334 -0.9467
11562TIP3    H256102   3.992   2.425   2.922 -0.0835 -0.3852 -0.0301
11563TIP3   OH256103   0.232   3.956   4.354  0.1871  0.6638 -0.2525
11563TIP3    H156104   0.208   3.908   4.434 -0.5248  2.0694  0.4156
11563TIP3    H256105   0.238   4.047   4.382  1.9929  0.9355 -1.3867
11564TIP3   OH256106   5.999   0.584  12.194 -0.7392  0.2507  0.1631
11564TIP3    H156107   6.070   0.549  12.140 -2.6915  0.1174 -2.5087
11564TIP3    H256108   5.980   0.669  12.156  0.1344  1.8455  2.9928
11565TIP3   OH256109   2.833   6.302   2.674  0.2721 -0.3004 -0.1257
11565TIP3    H156110   2.772   6.350   2.730 -0.0217 -0.0734 -0.6361
11565TIP3    H256111   2.868   6.233   2.731  2.0907  1.5718  1.2155
11566TIP3   OH256112   0.067   1.931  11.255 -0.1520 -0.0235 -0.2006
11566TIP3    H156113   0.099   1.841  11.249  0.8798  0.3530 -0.7006
11566TIP3    H256114   0.118   1.979  11.189 -2.3712  0.4786 -1.6549
11567TIP3   OH256115   4.442   2.715   6.199 -0.2029 -0.2942  0.2877
11567TIP3    H156116   4.408   2.627   6.179 -0.8652  0.2973 -1.2884
11567TIP3    H256117   4.378   2.751   6.260 -0.4907 -0.5190  0.1248
11568TIP3   OH256118   1.495   5.133   0.209 -0.4714 -0.1177  0.8624
11568TIP3    H156119   1.417   5.131   0.154  0.1951  2.5120 -0.3576
11568TIP3    H256120   1.466   5.180   0.288 -0.4705 -0.3811  1.0182
11569TIP3   OH256121   3.664   0.004  12.369  0.3982  0.5693  0.1111
11569TIP3    H156122   3.622  -0.057  12.430 -2.4214  0.9923 -1.2743
11569TIP3    H256123   3.716   0.062  12.425  0.1549 -0.7570  1.7958
11570TIP3   OH256124   5.444   5.189  16.489 -0.8948 -0.9705 -0.1343
11570TIP3    H156125   5.444   5.236  16.573  1.5475 -1.9452  0.4897
11570TIP3    H256126   5.358   5.208  16.451 -0.8526  2.2401  1.0397
11571TIP3   OH256127   6.747   3.238   4.914 -0.2661  0.6344  0.7747
11571TIP3    H156128   6.723   3.302   4.982 -1.8044  1.2651 -0.2943
11571TIP3    H256129   6.697   3.160   4.937  0.7312  0.1736  1.4391
11572TIP3   OH256130   2.292   5.704  14.731  0.5038 -0.1847 -0.1811
11572TIP3    H156131   2.204   5.732  14.758  0.7267  0.0810  0.2771
11572TIP3    H256132   2.290   5.609  14.738  0.3920 -0.1503  0.2710
11573TIP3   OH256133   1.976   2.491   6.986  0.0023  0.7720  0.3024
11573TIP3    H156134   1.922   2.440   6.925  1.5126  0.8173 -1.1608
11573TIP3    H256135   1.914   2.545   7.034 -1.3407  0.0391 -0.5464
11574TIP3   OH256136   0.114   5.499   3.291  0.2020 -0.1436 -0.0871
11574TIP3    H156137   0.036   5.546   3.262 -0.9250 -2.0763 -0.3706
11574TIP3    H256138   0.134   5.537   3.377 -2.4259 -1.0606  1.0460
11575TIP3   OH256139   6.344   2.529   2.718 -0.1319  0.0777 -0.1312
11575TIP3    H156140   6.420   2.484   2.755 -0.5507  0.8609  1.7701
11575TIP3    H256141   6.270   2.472   2.740 -0.8825  2.1574  3.6125
11576TIP3   OH256142   1.204   0.795  16.698  0.3977  0.6184 -0.0019
11576TIP3    H156143   1.297   0.801  16.677  0.6677  0.9147  1.2375
11576TIP3    H256144   1.201   0.761  16.787 -0.6684  1.0907  0.1559
11577TIP3   OH256145   4.152   4.088   5.476 -0.3627 -0.3800 -0.7383
11577TIP3    H156146   4.212   4.034   5.528 -2.3258  0.2406  2.4130
11577TIP3    H256147   4.076   4.033   5.462 -1.6968  0.8690  1.0841
11578TIP3   OH256148   0.737   5.606   4.489 -0.2442 -0.3847  0.2183
11578TIP3    H156149   0.696   5.579   4.570  0.3031 -1.6352  0.1057
11578TIP3    H256150   0.764   5.524   4.447  2.2286  0.3336  0.2447
11579TIP3   OH256151   0.915   1.849   5.530  0.4959  0.0436 -0.4172
11579TIP3    H156152   0.960   1.851   5.445 -1.3696 -1.5020 -1.5047
11579TIP3    H256153   0.874   1.935   5.537 -2.1088 -0.8469 -2.7603
11580TIP3   OH256154   1.132   1.128  12.382  0.3796  0.6426 -0.4125
11580TIP3    H156155   1.224   1.104  12.389 -0.2337 -2.0506 -0.2731
11580TIP3    H256156   1.123   1.165  12.294  1.1759 -1.5234 -1.4792
11581TIP3   OH256157   6.467   3.141   3.135 -0.3290  0.2015  0.6541
11581TIP3    H156158   6.563   3.131   3.134 -0.2332  1.0796  0.9188
11581TIP3    H256159   6.449   3.187   3.217 -1.0395 -0.4440  0.8751
11582TIP3   OH256160   3.547   6.443  15.017  0.0062 -0.4307  0.2686
11582TIP3    H156161   3.528   6.465  14.926 -0.7105 -0.6599  0.3622
11582TIP3    H256162   3.485   6.374  15.039  0.3716 -0.5838  0.8414
11583TIP3   OH256163   5.535   4.933   5.350  0.2200 -0.7959  0.9040
11583TIP3    H156164   5.520   4.914   5.442  0.6713  0.3733  1.2386
11583TIP3    H256165   5.595   5.008   5.350  1.1090 -1.4703 -0.3495
11584TIP3   OH256166   1.994   2.349  13.666 -0.3620  0.3597 -0.3656
11584TIP3    H156167   2.011   2.262  13.703 -1.4032  0.3674  0.1672
11584TIP3    H256168   2.080   2.390  13.661 -0.1325  0.3294  2.0197
11585TIP3   OH256169   0.820   5.869   1.464  0.2324  0.0087  0.7285
11585TIP3    H156170   0.751   5.898   1.524 -1.2314  0.4386 -1.0482
11585TIP3    H256171   0.777   5.805   1.407  1.0173  0.9566 -1.0120
11586TIP3   OH256172   6.228   4.633   4.106 -0.2352  0.0427 -0.6876
11586TIP3    H156173   6.324   4.631   4.116 -0.2955 -0.0680 -0.1094
11586TIP3    H256174   6.196   4.571   4.171 -0.7264  0.3861 -0.6001
11587TIP3   OH256175   3.226   5.490  13.446  0.6212 -0.2256  0.5805
11587TIP3    H156176   3.295   5.471  13.509 -0.7623 -0.2870  2.1787
11587TIP3    H256177   3.174   5.558  13.489 -1.9932 -2.2138  0.8114
11588TIP3   OH256178   0.164   6.526  15.479  0.3266  0.1325 -0.4738
11588TIP3    H156179   0.122   6.518  15.393  1.9309 -1.7060 -1.1773
11588TIP3    H256180   0.204   6.613  15.479  1.3410 -0.2971 -2.1257
11589TIP3   OH256181   2.145   5.057  14.391 -0.6598 -0.2629 -0.4298
11589TIP3    H156182   2.163   5.126  14.328 -1.0016 -2.2847 -2.9041
11589TIP3    H256183   2.119   4.981  14.338 -1.0842 -2.0836  2.1520
11590TIP3   OH256184   1.440   0.180   1.027 -0.0616  0.5093 -0.3238
11590TIP3    H156185   1.474   0.182   1.116 -0.6105  0.7462 -0.1157
11590TIP3    H256186   1.346   0.161   1.037 -0.5045  2.3160 -0.7317
11591TIP3   OH256187   6.419   5.261  14.919 -0.6792  0.5658 -0.2583
11591TIP3    H156188   6.483   5.310  14.970 -0.0239  0.7754 -1.2533
11591TIP3    H256189   6.461   5.248  14.834 -1.9271  0.6216 -0.9051
11592TIP3   OH256190   4.633   1.581  16.683  0.7718 -0.1072  0.5494
11592TIP3    H156191   4.718   1.579  16.728  1.4684 -0.0687 -0.7079
11592TIP3    H256192   4.635   1.503  16.627 -0.5706 -0.8037  1.4203
11593TIP3   OH256193   3.150   0.044  15.772  0.3330 -0.3689  0.4434
11593TIP3    H156194   3.101   0.086  15.842 -0.1443  1.1878 -0.7722
11593TIP3    H256195   3.103   0.067  15.692  1.4782 -1.1792 -0.5106
11594TIP3   OH256196   4.986   4.408  17.121 -0.1409  0.1707 -0.5508
11594TIP3    H156197   4.962   4.426  17.212  0.4427  0.3690 -0.4313
11594TIP3    H256198   4.919   4.347  17.090 -1.0170  0.9929 -0.3488
11595TIP3   OH256199   2.607   2.327   5.478  0.7788  0.2153 -0.3617
11595TIP3    H156200   2.695   2.295   5.495  0.2663 -0.9694  0.2150
11595TIP3    H256201   2.583   2.287   5.394  0.5625  0.0167 -0.2068
11596TIP3   OH256202   3.442   4.784  15.390  0.7947  0.4676  0.3136
11596TIP3    H156203   3.358   4.745  15.368  1.1019  0.3901 -0.7801
11596TIP3    H256204   3.477   4.730  15.461  0.1008  0.2679  0.5020
11597TIP3   OH256205   4.587   6.218  15.529  0.7151  0.2105  0.1258
11597TIP3    H156206   4.620   6.285  15.589 -1.9213 -0.8612  2.9941
11597TIP3    H256207   4.540   6.267  15.461  2.3226  1.3643 -0.2254
11598TIP3   OH256208   6.651   0.232   2.161 -0.1290 -0.5643 -0.0015
11598TIP3    H156209   6.733   0.200   2.199  0.1422  0.1022 -0.0259
11598TIP3    H256210   6.677   0.273   2.079 -0.5709 -0.9378 -0.3319
11599TIP3   OH256211   6.090   0.413   4.222  0.4160 -0.3255 -0.3012
11599TIP3    H156212   6.146   0.479   4.262  0.1614 -2.0508  3.3080
11599TIP3    H256213   6.004   0.427   4.261 -0.0186 -1.7934 -0.6539
11600TIP3   OH256214   4.109   4.659   2.950 -0.1150  0.3190 -0.5029
11600TIP3    H156215   4.038   4.693   2.896  0.6396  0.2301 -1.5623
11600TIP3    H256216   4.081   4.571   2.974 -0.4821  0.3898 -0.6679
11601TIP3   OH256217   3.944   3.713  15.280 -0.0573  0.0342  0.2229
11601TIP3    H156218   3.946   3.715  15.185 -1.2169 -0.9350  0.1490
11601TIP3    H256219   3.927   3.621  15.302  0.8631  0.1235  1.3888
11602TIP3   OH256220   6.409   1.914   4.718 -0.0617 -0.4105  0.3717
11602TIP3    H156221   6.344   1.942   4.654 -1.0502 -0.6022  1.2727
11602TIP3    H256222   6.430   1.824   4.693  0.5696 -0.0392 -0.4771
11603TIP3   OH256223   5.429   1.962  14.647 -0.5882  0.2348  0.4897
11603TIP3    H156224   5.361   2.028  14.653 -0.0145  1.0400 -1.1865
11603TIP3    H256225   5.421   1.927  14.558 -0.4063 -1.4608  1.0937
11604TIP3   OH256226   2.851   0.631  16.709 -0.0398  0.0803  0.0174
11604TIP3    H156227   2.892   0.544  16.709  0.2275  0.1892  1.0513
11604TIP3    H256228   2.875   0.668  16.794 -1.7562  0.4130  0.3848
11605TIP3   OH256229   1.650   1.187   4.199 -0.1256  0.1560  0.2890
11605TIP3    H156230   1.576   1.227   4.245 -1.8013 -0.4590 -1.7533
11605TIP3    H256231   1.612   1.149   4.120  2.4606  0.2358 -1.0886
11606TIP3   OH256232   2.494   1.203  14.912 -0.5229 -0.2979 -0.1679
11606TIP3    H156233   2.450   1.285  14.937 -0.4256 -0.7331  1.5718
11606TIP3    H256234   2.583   1.231  14.888 -0.6446  0.1701 -0.0981
11607TIP3   OH256235   6.521   6.419   2.744  0.3100 -0.0391 -0.2919
11607TIP3    H156236   6.482   6.485   2.687  2.2063  1.0795 -0.3850
11607TIP3    H256237   6.616   6.430   2.732  0.8837  0.8633  3.6632
11608TIP3   OH256238   4.704   6.055   1.887  0.2291  0.1237  0.2549
11608TIP3    H156239   4.736   5.964   1.891 -2.1382 -0.8418 -0.9754
11608TIP3    H256240   4.740   6.090   1.806  1.8782  0.6546  1.1619
11609TIP3   OH256241   2.814   2.254  11.548 -0.1998  0.0814  0.3174
11609TIP3    H156242   2.830   2.303  11.629 -0.1261  1.1852 -0.3394
11609TIP3    H256243   2.788   2.167  11.577 -0.1926  0.4672  1.5282
11610TIP3   OH256244   6.071   2.427  14.209  0.4023  0.4092  0.0868
11610TIP3    H156245   6.158   2.466  14.205 -0.4197  2.5174  1.2978
11610TIP3    H256246   6.078   2.359  14.276  1.1136  0.5599  0.1707
11611TIP3   OH256247   0.380   4.641   2.471 -0.7752  0.1086 -0.2783
11611TIP3    H156248   0.442   4.706   2.505 -0.1092 -0.0246 -1.2158
11611TIP3    H256249   0.434   4.581   2.420 -1.4885 -0.7987  0.0149
11612TIP3   OH256250   2.455   3.594  13.453 -0.5054 -0.2444 -0.4864
11612TIP3    H156251   2.436   3.637  13.369 -1.2428 -0.3299 -0.3663
11612TIP3    H256252   2.547   3.615  13.469 -0.1927 -0.6710 -1.5764
11613TIP3   OH256253   4.371   5.407  16.334 -0.2509  0.0248  0.1056
11613TIP3    H156254   4.398   5.456  16.411 -1.4615  0.7363  0.0955
11613TIP3    H256255   4.355   5.474  16.267  0.0617 -0.5313 -0.5375
11614TIP3   OH256256   5.460   3.294  15.219  0.1762  0.4112 -0.2657
11614TIP3    H156257   5.434   3.353  15.149  0.9866  1.1895  0.0679
11614TIP3    H256258   5.515   3.347  15.276  0.9244 -0.6668  0.0507
11615TIP3   OH256259   3.411   4.956  14.151 -0.4942 -0.2338 -0.0987
11615TIP3    H156260   3.361   5.034  14.126  0.0418  0.1864  0.1293
11615TIP3    H256261   3.499   4.988  14.170  0.4107 -1.2251 -2.3471
11616TIP3   OH256262   3.656   3.431   1.158 -0.0071 -1.1992  0.3750
11616TIP3    H156263   3.665   3.368   1.229  1.5607 -1.1063  0.2970
11616TIP3    H256264   3.587   3.492   1.187  0.3112 -1.4106  1.6064
11617TIP3   OH256265   4.135   2.374   3.410  0.4090 -0.5506  0.5312
11617TIP3    H156266   4.194   2.331   3.471  1.7787 -1.7828 -1.5219
11617TIP3    H256267   4.055   2.321   3.411  0.6469 -0.9021  0.8151
11618TIP3   OH256268   1.462   6.342   1.553  0.0199  0.4333  0.1450
11618TIP3    H156269   1.538   6.393   1.579  0.9726 -1.3049  0.9123
11618TIP3    H256270   1.466   6.339   1.457  1.5330 -0.5063  0.2112
11619TIP3   OH256271   2.263   5.075   4.940 -0.6873 -0.3556  0.7663
11619TIP3    H156272   2.182   5.027   4.956 -0.4011 -0.7935  0.9285
11619TIP3    H256273   2.321   5.047   5.011  0.4321 -1.9078 -0.6976
11620TIP3   OH256274   0.465   4.780   0.582  0.2043  0.6925 -0.6903
11620TIP3    H156275   0.536   4.760   0.643 -0.7461 -1.8522 -0.3166
11620TIP3    H256276   0.497   4.751   0.497 -0.6808 -1.4146 -0.3616
11621TIP3   OH256277   5.510   4.792  13.089  0.4461 -0.1385 -0.0899
11621TIP3    H156278   5.550   4.800  13.002  0.4641 -0.0076 -0.0704
11621TIP3    H256279   5.416   4.791  13.071  0.4671 -1.4025 -0.2157
11622TIP3   OH256280   2.995   5.708  10.665  0.3709  0.4839 -0.2401
11622TIP3    H156281   2.909   5.683  10.698 -0.2129  2.4835 -0.0879
11622TIP3    H256282   2.976   5.752  10.582  0.5407  5.4229  1.9848
11623TIP3   OH256283   2.534   2.500   5.679 -1.2695  0.2402 -0.0235
11623TIP3    H156284   2.611   2.555   5.662 -2.7680  1.8917 -1.9077
11623TIP3    H256285   2.524   2.448   5.599 -0.6731 -1.9062  1.2102
11624TIP3   OH256286   4.611   6.312   2.147 -0.1732 -0.0960 -0.2179
11624TIP3    H156287   4.607   6.406   2.164  0.2103  0.3442 -2.3284
11624TIP3    H256288   4.628   6.273   2.233 -1.6874  1.6243  0.9211
11625TIP3   OH256289   6.766   5.256   5.093  0.0487  0.5680 -0.7539
11625TIP3    H156290   6.763   5.330   5.154  1.3313 -0.2623  0.3660
11625TIP3    H256291   6.852   5.261   5.053 -0.9942  1.4586 -3.0255
11626TIP3   OH256292   1.587   5.393  12.010  0.3176 -0.2666 -0.0193
11626TIP3    H156293   1.594   5.443  11.929 -1.8972 -0.4082 -0.3619
11626TIP3    H256294   1.494   5.399  12.034  1.0828  0.8226  3.1831
11627TIP3   OH256295   2.379   6.377  16.957 -0.0967  0.6029  0.5156
11627TIP3    H156296   2.382   6.357  16.863 -0.5620 -1.0288  0.8277
11627TIP3    H256297   2.469   6.362  16.987 -0.6272 -2.2237  0.9350
11628TIP3   OH256298   5.477   4.424  11.895 -0.2058 -0.3871  0.1575
11628TIP3    H156299   5.395   4.380  11.871 -0.4169  1.3740 -2.7404
11628TIP3    H256300   5.544   4.379  11.846 -0.1518  1.1242 -1.2403
11629TIP3   OH256301   2.822   2.973  13.618 -0.0132 -0.0432 -0.0212
11629TIP3    H156302   2.757   3.029  13.575 -0.1983  0.1260  0.4724
11629TIP3    H256303   2.823   3.003  13.709  0.1352 -0.6140  0.1693
11630TIP3   OH256304   1.569   6.130  14.234  0.2876 -0.3938 -0.0004
11630TIP3    H156305   1.509   6.105  14.163 -0.4750 -2.1242  1.1998
11630TIP3    H256306   1.654   6.137  14.191 -0.4265  0.3362 -1.4001
11631TIP3   OH256307   5.249   2.133  14.272 -0.0287 -0.5271 -0.2030
11631TIP3    H156308   5.235   2.049  14.315  3.5159 -0.8848  0.5155
11631TIP3    H256309   5.340   2.131  14.242  0.0618  2.8736 -0.5939
11632TIP3   OH256310   5.147   4.807   3.155 -0.3057  0.1593 -0.4032
11632TIP3    H156311   5.144   4.805   3.251  0.7152  0.4111 -0.3588
11632TIP3    H256312   5.165   4.898   3.133  1.6309 -0.2609 -0.7460
11633TIP3   OH256313   1.259   4.583  16.036 -0.3296  0.0265  0.5025
11633TIP3    H156314   1.306   4.632  16.104  1.6241 -0.4563 -0.4234
11633TIP3    H256315   1.282   4.628  15.954 -3.1257  0.9687  0.1481
11634TIP3   OH256316   4.581   6.172   3.449  0.6735 -0.4451  0.0306
11634TIP3    H156317   4.531   6.103   3.493  0.2983 -0.8216 -0.9735
11634TIP3    H256318   4.524   6.249   3.453 -0.9124 -1.3285 -2.7679
11635TIP3   OH256319   0.690   5.914   5.601  0.0157  0.3124  0.0593
11635TIP3    H156320   0.713   5.979   5.535 -0.2094  2.1791  1.7471
11635TIP3    H256321   0.766   5.909   5.659  0.1977 -1.2773 -0.2536
11636TIP3   OH256322   3.210   1.276   3.623  0.1847  0.5902  0.2384
11636TIP3    H156323   3.203   1.296   3.530  0.6609  2.3618  0.5463
11636TIP3    H256324   3.296   1.309   3.648  0.1119  0.0200  1.2944
11637TIP3   OH256325   0.583   3.756  16.241 -0.0999  0.2173 -0.1048
11637TIP3    H156326   0.648   3.688  16.258 -2.4970 -2.0339  0.8165
11637TIP3    H256327   0.554   3.784  16.328 -1.6016 -0.1468 -0.4622
11638TIP3   OH256328   1.548   0.947   6.171  0.2980  0.5441  0.1665
11638TIP3    H156329   1.494   0.873   6.198  2.1108 -1.2676 -0.9444
11638TIP3    H256330   1.580   0.984   6.254  1.3189 -1.4588  0.7339
11639TIP3   OH256331   3.033   3.364   3.547 -0.3960 -0.1731  0.1761
11639TIP3    H156332   3.083   3.396   3.472 -1.8401 -0.5521 -0.9701
11639TIP3    H256333   3.001   3.443   3.590 -0.4575  0.0122 -0.2116
11640TIP3   OH256334   5.683   3.299   3.876 -0.8313 -0.0289 -0.5218
11640TIP3    H156335   5.774   3.271   3.866 -0.2584  1.4712  0.0917
11640TIP3    H256336   5.682   3.388   3.840 -1.7875  0.3966  0.5026
11641TIP3   OH256337   5.642   5.739   0.244  0.2995  0.0888  0.2425
11641TIP3    H156338   5.714   5.798   0.224  0.0443 -0.2549 -1.9280
11641TIP3    H256339   5.683   5.653   0.253  0.4473  0.2820  1.6073
11642TIP3   OH256340   2.403   5.001   0.403  0.0102 -0.0692  0.6026
11642TIP3    H156341   2.373   4.939   0.470 -0.1836 -0.3598  0.2506
11642TIP3    H256342   2.401   4.951   0.322 -1.5901  0.8259  0.0493
11643TIP3   OH256343   1.054   6.068  13.828  0.0090  0.0044 -0.4667
11643TIP3    H156344   1.082   6.034  13.913  0.9191  0.7467 -0.4657
11643TIP3    H256345   0.958   6.061  13.831  0.0512 -0.3757  0.4467
11644TIP3   OH256346   5.449   5.166  12.395  0.4814 -0.1912  0.3436
11644TIP3    H156347   5.451   5.082  12.441  2.6051 -1.1033 -1.2619
11644TIP3    H256348   5.495   5.149  12.312 -1.7992  1.7525 -1.4686
11645TIP3   OH256349   2.203   0.740  12.710 -0.2450  0.4164 -0.4238
11645TIP3    H156350   2.288   0.696  12.718 -0.4595 -0.2029 -1.4036
11645TIP3    H256351   2.218   0.811  12.649 -0.3901  0.4212 -0.4536
11646TIP3   OH256352   5.977   5.108  12.587  0.0888 -0.0575 -0.1101
11646TIP3    H156353   5.898   5.134  12.635  0.1195 -1.2834  0.6272
11646TIP3    H256354   5.968   5.013  12.575  0.5297  0.0647 -1.7265
11647TIP3   OH256355   3.513   4.887  17.147  0.1620  0.1168 -0.5477
11647TIP3    H156356   3.501   4.817  17.083 -0.6026  1.9517 -2.5124
11647TIP3    H256357   3.597   4.867  17.188  0.1858 -1.6874 -1.3742
11648TIP3   OH256358   5.534   1.472   5.494  0.4221 -0.1497  0.1339
11648TIP3    H156359   5.462   1.425   5.536  0.0918  0.6010  0.4277
11648TIP3    H256360   5.602   1.406   5.482 -0.5347 -0.9987 -0.6932
11649TIP3   OH256361   3.855   2.796   2.711 -0.3483 -0.1211 -0.0687
11649TIP3    H156362   3.874   2.706   2.686  1.6637  0.2988 -0.1530
11649TIP3    H256363   3.800   2.829   2.640 -1.1709 -1.2704 -0.0048
11650TIP3   OH256364   5.922   0.661   3.172 -0.3978 -0.1964  0.3135
11650TIP3    H156365   5.952   0.732   3.229  0.5033 -1.1713  1.0975
11650TIP3    H256366   5.856   0.615   3.224 -0.1335 -0.6261  0.2740
11651TIP3   OH256367   1.075   6.269  14.241 -0.0378  0.0883 -0.3121
11651TIP3    H156368   1.159   6.239  14.206 -0.6939 -0.4216 -1.5116
11651TIP3    H256369   1.027   6.300  14.164 -0.8878  0.5142  0.3796
11652TIP3   OH256370   6.614   2.801  13.796 -0.3368 -0.1829  0.2854
11652TIP3    H156371   6.520   2.817  13.802 -0.3464 -0.6960  1.9617
11652TIP3    H256372   6.654   2.879  13.835 -0.1026 -0.5162  0.7114
11653TIP3   OH256373   5.160   2.149  16.491  0.1808 -0.6789 -0.0363
11653TIP3    H156374   5.110   2.072  16.518 -0.7798 -0.5849 -1.4939
11653TIP3    H256375   5.140   2.215  16.558 -0.6601 -1.0377  0.0775
11654TIP3   OH256376   5.435   2.680   1.386  0.0927  0.0642 -0.1417
11654TIP3    H156377   5.353   2.729   1.374  0.5622  0.7984 -0.3946
11654TIP3    H256378   5.438   2.662   1.480 -1.3225 -1.6909 -0.3879
11655TIP3   OH256379   2.960   2.484   4.592  0.3492  0.2762  0.2833
11655TIP3    H156380   2.952   2.531   4.675  1.5021  2.1920 -0.6125
11655TIP3    H256381   2.898   2.529   4.534  1.5549  0.8267 -0.6266
11656TIP3   OH256382   4.037   4.437  14.565  0.5090  0.5146 -0.2480
11656TIP3    H156383   4.072   4.349  14.579  0.3429  0.5345  0.3268
11656TIP3    H256384   4.070   4.488  14.639  1.3519  1.1716 -1.0505
11657TIP3   OH256385   5.825   0.864   5.048  0.7612  0.2663  0.2642
11657TIP3    H156386   5.768   0.901   4.979 -1.6768  1.8293  2.9004
11657TIP3    H256387   5.880   0.937   5.075  0.0716  0.3503  1.5021
11658TIP3   OH256388   4.465   0.748   4.211  0.0755 -0.2699 -0.2008
11658TIP3    H156389   4.456   0.699   4.292  0.9557 -0.9804 -0.5043
11658TIP3    H256390   4.379   0.788   4.196 -0.6089 -1.5547  0.1783
11659TIP3   OH256391   5.396   4.630  16.709  0.1656 -0.3424 -0.1925
11659TIP3    H156392   5.358   4.692  16.646  0.2162 -0.0746  0.0354
11659TIP3    H256393   5.477   4.673  16.737 -0.4369  0.0935  0.9453
11660TIP3   OH256394   2.781   2.542   4.390  0.3585 -0.1040  0.0148
11660TIP3    H156395   2.726   2.617   4.365  0.3313 -0.6410 -1.6946
11660TIP3    H256396   2.718   2.472   4.409  0.3914  0.2065  1.3306
11661TIP3   OH256397   3.709   6.207  16.621 -0.4504 -0.0719 -0.4585
11661TIP3    H156398   3.688   6.114  16.622  0.4266 -0.2933  1.0167
11661TIP3    H256399   3.624   6.251  16.619 -0.8693 -0.8528 -2.7887
11662TIP3   OH256400   6.208   5.749   4.489 -0.2204  0.7512  0.0828
11662TIP3    H156401   6.265   5.679   4.458 -0.4534  0.1774  0.9149
11662TIP3    H256402   6.162   5.711   4.564 -0.5859  1.6915  0.3494
11663TIP3   OH256403   5.329   2.931   4.685  0.1908 -0.3087  0.2576
11663TIP3    H156404   5.395   2.923   4.617  0.0713  3.0192 -0.4211
11663TIP3    H256405   5.363   2.880   4.758  1.9844 -1.1837 -1.1087
11664TIP3   OH256406   1.413   0.988  16.127 -0.4220 -0.4013  0.4037
11664TIP3    H156407   1.399   0.905  16.081  0.4698 -0.4268  0.1646
11664TIP3    H256408   1.346   1.047  16.090  0.2417 -0.4324 -0.9041
11665TIP3   OH256409   3.932   2.529   4.704 -0.4784  0.2658  0.4880
11665TIP3    H156410   3.847   2.484   4.701  0.2627 -1.1729  0.0786
11665TIP3    H256411   3.996   2.459   4.719  0.8899  0.9489 -1.6853
11666TIP3   OH256412   6.257   5.074  12.250 -0.8396  0.1732 -0.0754
11666TIP3    H156413   6.236   5.047  12.161 -2.3894  1.0996 -0.0229
11666TIP3    H256414   6.227   5.000  12.304 -2.3774  0.6916 -0.1556
11667TIP3   OH256415   4.895   6.496   2.857 -0.5604  0.1959 -0.9393
11667TIP3    H156416   4.918   6.478   2.948  0.1956 -3.0275 -1.6557
11667TIP3    H256417   4.925   6.586   2.843 -0.4376  0.7043  1.8684
11668TIP3   OH256418   4.257   1.922   5.751  0.0527  0.2381 -0.6150
11668TIP3    H156419   4.352   1.919   5.756  0.0108  0.7819  1.3969
11668TIP3    H256420   4.237   2.004   5.706  0.5156 -0.5434 -2.3125
11669TIP3   OH256421   1.821   4.046  13.147  0.1418 -0.0660  0.2835
11669TIP3    H156422   1.861   4.121  13.191  1.5397  0.8664 -2.3427
11669TIP3    H256423   1.895   3.986  13.131 -0.6470 -1.1933  0.7470
11670TIP3   OH256424   4.713   6.424  13.969  0.4601  0.6667  0.0332
11670TIP3    H156425   4.683   6.409  14.059 -1.8514 -2.2360 -1.0590
11670TIP3    H256426   4.637   6.460  13.924  0.3771 -1.2089 -1.4720
11671TIP3   OH256427   1.712   3.163   1.044 -0.5304 -0.1702 -0.1050
11671TIP3    H156428   1.781   3.151   0.978  1.0301 -3.1281  1.8289
11671TIP3    H256429   1.659   3.084   1.037  0.2431 -1.0449  2.6808
11672TIP3   OH256430   1.611   4.104  14.865  0.3054  0.1785  0.5282
11672TIP3    H156431   1.694   4.074  14.902  0.1311  1.7315  2.3119
11672TIP3    H256432   1.629   4.193  14.835  0.0096 -0.4850 -1.7829
11673TIP3   OH256433   0.030   5.768  12.547  0.5173  0.6389  0.1140
11673TIP3    H156434  -0.010   5.681  12.553  0.4663  0.6372 -0.2493
11673TIP3    H256435   0.123   5.750  12.533  0.5321  0.6454  0.2009
11674TIP3   OH256436   1.079   0.546  15.784  0.0479  0.3116  0.3567
11674TIP3    H156437   1.092   0.563  15.878  0.8424 -0.9440  0.4980
11674TIP3    H256438   1.152   0.490  15.760 -0.3316  0.3570 -0.9545
11675TIP3   OH256439   3.258   4.489  16.206  0.7034  0.1680 -0.5137
11675TIP3    H156440   3.186   4.549  16.188 -0.1490  0.2114  2.5632
11675TIP3    H256441   3.322   4.541  16.254  1.1923 -0.7018 -0.1948
11676TIP3   OH256442   3.398   3.454  12.208  0.2715  0.7342  0.1942
11676TIP3    H156443   3.347   3.412  12.139 -0.5956  0.0882  1.2038
11676TIP3    H256444   3.340   3.454  12.284  1.1539  1.5695  0.8905
11677TIP3   OH256445   4.374   3.485   0.707 -0.3247 -0.1207  0.6386
11677TIP3    H156446   4.342   3.525   0.626 -0.2453 -0.1685  0.5829
11677TIP3    H256447   4.402   3.559   0.761  3.4739 -0.1435 -0.9647
11678TIP3   OH256448   4.036   6.339  12.188  0.0155 -0.0370  0.0961
11678TIP3    H156449   3.979   6.330  12.265 -1.3930 -1.1352 -1.0089
11678TIP3    H256450   3.983   6.305  12.115  2.0907 -1.1272 -0.9894
11679TIP3   OH256451   6.037   5.633   4.668  0.6343 -0.2072 -0.1362
11679TIP3    H156452   6.052   5.615   4.761 -2.0743 -0.0552  0.4300
11679TIP3    H256453   5.985   5.713   4.667  1.3507  0.2828 -1.8658
11680TIP3   OH256454   5.952   5.445  15.869  0.4598  0.1671  1.1895
11680TIP3    H156455   6.042   5.437  15.901  0.3577  0.8445  1.6759
11680TIP3    H256456   5.922   5.529  15.905 -0.8105 -0.6620  2.1167
11681TIP3   OH256457   0.399   1.230  13.751 -0.2321 -0.0396 -0.4167
11681TIP3    H156458   0.340   1.213  13.678  0.4282  3.6466 -2.0788
11681TIP3    H256459   0.395   1.325  13.762  4.5637  0.3599 -0.0229
11682TIP3   OH256460   0.549   1.581   3.683  0.1302 -0.6153  0.1788
11682TIP3    H156461   0.557   1.578   3.778 -0.4480 -1.1521  0.2179
11682TIP3    H256462   0.587   1.665   3.658  0.5801 -0.6170  0.8536
11683TIP3   OH256463   6.037   3.533  16.918  0.6576  0.1680 -0.3585
11683TIP3    H156464   6.061   3.490  17.000  0.1948  0.7683  0.1088
11683TIP3    H256465   5.942   3.524  16.913  0.3822  2.1220  0.3648
11684TIP3   OH256466   1.091   0.365   3.023  0.1285 -0.4048  0.0812
11684TIP3    H156467   1.035   0.410   2.959  2.4008 -0.3990 -2.0207
11684TIP3    H256468   1.159   0.429   3.045 -0.5269 -0.4287  2.5598
11685TIP3   OH256469   4.890   6.137   4.181 -1.1007  0.5142 -0.3488
11685TIP3    H156470   4.822   6.082   4.220 -1.3697  1.5335  0.6498
11685TIP3    H256471   4.963   6.076   4.164 -2.0398 -0.4794 -0.9476
11686TIP3   OH256472   3.684   0.429   5.711 -0.1515  0.1021 -0.5167
11686TIP3    H156473   3.637   0.351   5.739 -0.6493  0.4891 -0.2550
11686TIP3    H256474   3.625   0.472   5.649  1.0919 -0.9524 -2.5291
11687TIP3   OH256475   6.758   4.946  12.632  0.2755  0.5492  0.0922
11687TIP3    H156476   6.850   4.921  12.624  0.0838 -0.5370  1.0726
11687TIP3    H256477   6.738   4.990  12.549  1.5201  0.2916 -0.3652
11688TIP3   OH256478   6.526   2.860   0.599 -0.3271 -0.1170 -0.1414
11688TIP3    H156479   6.543   2.768   0.620 -1.3679 -0.0774  1.0357
11688TIP3    H256480   6.581   2.878   0.523  1.3632 -1.1653  0.7767
11689TIP3   OH256481   5.175   4.183   2.329 -0.6693 -0.1338 -0.3247
11689TIP3    H156482   5.134   4.104   2.363 -0.1408 -0.6029 -0.7525
11689TIP3    H256483   5.152   4.184   2.236  0.2626 -0.4010 -0.5691
11690TIP3   OH256484   0.270   3.237   4.066 -0.6796  0.4295 -0.3847
11690TIP3    H156485   0.340   3.262   4.127 -0.1811  0.7815 -1.0852
11690TIP3    H256486   0.212   3.181   4.118  0.8396 -0.9942 -0.1325
11691TIP3   OH256487   0.582   0.737  15.551  0.1156 -0.3247  0.0956
11691TIP3    H156488   0.563   0.762  15.461 -1.3994 -1.8412 -0.0498
11691TIP3    H256489   0.660   0.683  15.546  2.0911  2.3164  0.1594
11692TIP3   OH256490   5.881   5.240   1.362  0.2063 -0.4077 -0.1463
11692TIP3    H156491   5.879   5.146   1.343 -1.6084 -0.1450 -1.4757
11692TIP3    H256492   5.804   5.276   1.317  1.7156  1.9700 -1.0472
11693TIP3   OH256493   0.635   5.870  11.897 -0.6170 -0.1898  0.3104
11693TIP3    H156494   0.632   5.801  11.963  1.2756  0.1770  0.8456
11693TIP3    H256495   0.728   5.877  11.874 -1.0526  0.6757 -1.3553
11694TIP3   OH256496   5.547   4.771  11.336  0.0188  0.3433  0.4356
11694TIP3    H156497   5.524   4.780  11.429 -0.8588  0.5780  0.2045
11694TIP3    H256498   5.515   4.851  11.295 -1.0815 -0.4676 -0.3500
11695TIP3   OH256499   0.767   2.399   3.947  0.0580 -0.4294 -1.0988
11695TIP3    H156500   0.740   2.470   4.005  1.7713  0.4848 -1.3304
11695TIP3    H256501   0.830   2.349   3.998 -1.3006 -1.9622 -0.8607
11696TIP3   OH256502   6.192   3.469  16.326  0.3150  0.5033  0.0391
11696TIP3    H156503   6.245   3.401  16.285  0.6935  0.2879  0.8777
11696TIP3    H256504   6.209   3.547  16.273  0.0724  0.0198 -0.7738
11697TIP3   OH256505   0.624   6.664   4.239 -0.0152  0.1898  1.0178
11697TIP3    H156506   0.696   6.602   4.227 -0.0040 -0.0273  2.0891
11697TIP3    H256507   0.664   6.750   4.234 -0.1522  0.1847 -1.3073
11698TIP3   OH256508   0.459   2.005   4.063  0.1954  0.0539  0.2062
11698TIP3    H156509   0.508   1.959   4.132 -0.3833  0.3875  0.8555
11698TIP3    H256510   0.483   2.097   4.073 -0.6638  0.2477  0.6402
11699TIP3   OH256511   0.338   2.288  15.622 -0.1089 -0.3748  0.0753
11699TIP3    H156512   0.248   2.260  15.633 -0.0911 -0.4226  0.0981
11699TIP3    H256513   0.380   2.216  15.574 -0.2465 -0.0623 -0.5240
11700TIP3   OH256514   5.650   6.548   4.369  0.3773  0.1651 -0.0934
11700TIP3    H156515   5.585   6.493   4.326 -0.8501  0.8463  0.8191
11700TIP3    H256516   5.603   6.588   4.442  1.5968  1.3398  0.0916
11701TIP3   OH256517   2.859   4.080  17.003  0.0195 -0.1197 -0.0714
11701TIP3    H156518   2.915   4.149  16.968 -0.2235  1.4865  2.4244
11701TIP3    H256519   2.891   4.066  17.092 -2.7338 -0.0179  1.0361
11702TIP3   OH256520   4.899   4.970  12.878  0.3153 -0.0065 -0.4801
11702TIP3    H156521   4.912   5.054  12.920  1.2342 -0.5497  0.3658
11702TIP3    H256522   4.980   4.954  12.828  0.0651 -0.2867 -0.8060
11703TIP3   OH256523   4.706   1.825   6.139  0.2518 -0.6953  0.2491
11703TIP3    H156524   4.685   1.815   6.232 -0.9771 -3.6177 -0.2312
11703TIP3    H256525   4.800   1.811   6.134  0.2561 -0.9945  1.0069
11704TIP3   OH256526   4.867   2.267   4.105 -0.1084  0.2429 -0.2715
11704TIP3    H156527   4.843   2.358   4.087 -0.0433  0.5770  1.2174
11704TIP3    H256528   4.952   2.256   4.062  0.0948  1.0298 -0.0985
11705TIP3   OH256529   6.031   6.408  12.630  0.1274  0.2130  0.2520
11705TIP3    H156530   5.977   6.400  12.709 -0.2401 -2.6615 -0.1645
11705TIP3    H256531   5.972   6.385  12.558  0.8043  1.4594 -0.7408
11706TIP3   OH256532   0.005   5.424  14.689  0.2298  0.2269  0.2236
11706TIP3    H156533  -0.005   5.464  14.603  0.3536 -0.3627 -0.0691
11706TIP3    H256534   0.099   5.425  14.705  0.2532 -0.1751  0.1066
11707TIP3   OH256535   0.560   5.191  10.841 -0.8380 -0.3523  0.2468
11707TIP3    H156536   0.550   5.096  10.849 -0.1282 -0.3897  0.7899
11707TIP3    H256537   0.562   5.222  10.932  0.6131 -0.0122  0.1286
11708TIP3   OH256538   1.957   2.041  11.399 -0.2194  0.7274 -0.1501
11708TIP3    H156539   1.937   2.089  11.318 -2.5587  0.9297  0.4855
11708TIP3    H256540   1.908   1.959  11.390 -0.3096  0.6540  0.9520
11709TIP3   OH256541   3.800   4.368   2.732 -0.1680  0.1680 -0.3554
11709TIP3    H156542   3.867   4.339   2.670 -0.4556 -0.0858 -0.5508
11709TIP3    H256543   3.846   4.376   2.815  0.5046  1.6733 -0.8293
11710TIP3   OH256544   0.784   1.638  13.842  0.1308 -0.2086 -0.0408
11710TIP3    H156545   0.697   1.609  13.872 -0.8872  1.8044 -0.8538
11710TIP3    H256546   0.805   1.579  13.769 -1.2352  0.1702 -0.7787
11711TIP3   OH256547   0.058   2.130   5.905 -0.1601  0.4008  0.7950
11711TIP3    H156548   0.148   2.162   5.890 -0.1539  0.1512  0.2671
11711TIP3    H256549   0.054   2.114   5.999 -0.0101  1.5044  1.0092
11712TIP3   OH256550   1.987   3.500   2.788 -0.1947  0.7641  0.7792
11712TIP3    H156551   2.073   3.486   2.827  1.8324  1.4974 -2.9806
11712TIP3    H256552   1.948   3.570   2.841  2.2099  1.5198  1.6681
11713TIP3   OH256553   1.589   1.650   3.403 -0.5334  0.2418  0.8303
11713TIP3    H156554   1.508   1.694   3.429 -1.2782 -0.2446 -0.5426
11713TIP3    H256555   1.599   1.673   3.310  1.3646  0.9609  1.1741
11714TIP3   OH256556   4.121   0.613  14.472  0.4508 -0.4260  0.3037
11714TIP3    H156557   4.038   0.647  14.504 -0.0533 -0.3093 -1.0688
11714TIP3    H256558   4.158   0.566  14.546 -1.6557 -1.9885  0.4360
11715TIP3   OH256559   0.135   3.760   2.766  0.7946 -0.0990  0.5235
11715TIP3    H156560   0.135   3.741   2.672  2.8997  1.2343  0.1968
11715TIP3    H256561   0.112   3.853   2.771 -0.6320 -0.4773  1.4569
11716TIP3   OH256562   4.527   1.623   0.246  0.3379  0.3825 -0.0810
11716TIP3    H156563   4.587   1.580   0.306  0.0644 -0.4652 -0.3868
11716TIP3    H256564   4.578   1.693   0.206  0.9338  0.0602  0.1071
11717TIP3   OH256565   4.502   1.492   5.557  0.6707  0.0640  0.2162
11717TIP3    H156566   4.496   1.467   5.649 -1.7777 -0.1750  0.0748
11717TIP3    H256567   4.453   1.424   5.511  1.6655  0.2988 -1.2659
11718TIP3   OH256568   5.923   3.135  15.040  0.6424  0.3125  0.3561
11718TIP3    H156569   5.988   3.161  15.105  1.0874  1.1910 -0.4117
11718TIP3    H256570   5.972   3.082  14.977 -0.0450 -1.6190  1.3570
11719TIP3   OH256571   4.659   4.903  15.141  0.0111  0.5333 -0.4728
11719TIP3    H156572   4.681   4.885  15.232  1.1673  1.1642 -0.6059
11719TIP3    H256573   4.589   4.841  15.120 -0.7716  0.8570  1.0472
11720TIP3   OH256574   0.637   0.175  11.144 -0.4661 -1.0716 -0.6923
11720TIP3    H156575   0.667   0.196  11.056 -1.1844 -1.7688 -1.1177
11720TIP3    H256576   0.544   0.197  11.144 -0.4246 -0.8581 -0.0347
11721TIP3   OH256577   0.332   6.457   0.971 -0.3848 -0.3836  0.7635
11721TIP3    H156578   0.334   6.421   0.883  1.5610 -1.5589  1.2403
11721TIP3    H256579   0.295   6.387   1.025 -0.1757 -0.2290  1.1088
11722TIP3   OH256580   1.367   0.332  14.842  0.2507  0.2849  0.2334
11722TIP3    H156581   1.330   0.406  14.793  0.4589  0.9830  1.0922
11722TIP3    H256582   1.324   0.255  14.806 -1.4801  0.9982  0.6702
11723TIP3   OH256583   4.295   5.764  12.865 -0.0186  0.6208 -0.1308
11723TIP3    H156584   4.355   5.701  12.907  0.9964  1.6065 -0.0424
11723TIP3    H256585   4.261   5.717  12.789  0.6034 -0.0950  0.0122
11724TIP3   OH256586   6.463   6.498  12.192  0.1527  0.6721  0.4053
11724TIP3    H156587   6.463   6.408  12.226  1.0409  0.5865  0.1939
11724TIP3    H256588   6.404   6.495  12.116  0.3052  0.2256  0.3016
11725TIP3   OH256589   5.612   6.211  14.132 -0.7001  1.2517 -0.2832
11725TIP3    H156590   5.570   6.294  14.108  0.8173  1.8059 -1.1409
11725TIP3    H256591   5.700   6.236  14.159 -1.0597  0.1921  2.1479
11726TIP3   OH256592   6.668   0.304   2.629  0.0968 -0.0877 -0.5681
11726TIP3    H156593   6.661   0.399   2.616  0.9663 -0.1888 -1.9554
11726TIP3    H256594   6.624   0.288   2.713 -2.1810  1.2149 -1.4429
11727TIP3   OH256595   3.023   3.219  14.251  0.3749 -0.4315  0.0877
11727TIP3    H156596   3.116   3.205  14.269  0.7287  0.8131 -0.6337
11727TIP3    H256597   3.018   3.215  14.155 -0.3351 -0.5856  0.1326
11728TIP3   OH256598   0.015   1.377  10.864 -0.4060  0.4878  0.2580
11728TIP3    H156599  -0.021   1.324  10.793  1.9938 -0.4545 -0.3471
11728TIP3    H256600   0.096   1.332  10.890  0.9515  2.9914  0.7540
11729TIP3   OH256601   1.132   4.843   3.397 -0.0382  0.0905 -0.5245
11729TIP3    H156602   1.086   4.896   3.463  1.9482  0.5957  0.5504
11729TIP3    H256603   1.122   4.753   3.427 -1.4108  0.0529 -1.0419
11730TIP3   OH256604   6.138   6.721  11.526  0.3428  0.4581 -0.0604
11730TIP3    H156605   6.099   6.741  11.611  1.0762 -1.5998  0.8250
11730TIP3    H256606   6.187   6.800  11.503  1.8881  0.3422  2.4764
11731TIP3   OH256607   3.606   4.045  10.969 -0.3229 -0.4534  0.1793
11731TIP3    H156608   3.549   4.090  11.031  2.1845  0.7335  1.7790
11731TIP3    H256609   3.602   3.953  10.995 -0.2058 -0.1392  1.3330
11732TIP3   OH256610   2.152   2.420  15.703 -0.1256  0.4351  0.5933
11732TIP3    H156611   2.080   2.436  15.642  1.1702 -1.2210 -1.5054
11732TIP3    H256612   2.132   2.335  15.742  0.4449  0.1855  0.3511
11733TIP3   OH256613   6.450   4.869   5.244  0.3452  0.0557  0.1969
11733TIP3    H156614   6.515   4.813   5.287 -0.3268 -0.5688  0.4318
11733TIP3    H256615   6.377   4.810   5.224  0.0632  0.6323 -0.5333
11734TIP3   OH256616   3.856   2.673   0.239  0.1211 -0.5054  0.3431
11734TIP3    H156617   3.792   2.639   0.301 -2.7245 -0.8929 -2.5176
11734TIP3    H256618   3.842   2.767   0.238  0.6051 -0.4238  0.6835
11735TIP3   OH256619   5.731   4.830   2.735 -0.1714  0.2915 -0.4099
11735TIP3    H156620   5.735   4.856   2.827  0.6528 -2.1843  0.3073
11735TIP3    H256621   5.659   4.882   2.699 -1.0165  0.7513  1.8117
11736TIP3   OH256622   0.781   1.313   5.465 -0.3398  0.1309  0.0707
11736TIP3    H156623   0.834   1.297   5.387  0.9264  0.6175  0.8022
11736TIP3    H256624   0.746   1.402   5.452  1.1313  0.8281  0.7410
11737TIP3   OH256625   3.782   0.692   3.313  0.4409  0.1588 -0.2198
11737TIP3    H156626   3.713   0.735   3.262  0.3675 -1.2467 -1.3650
11737TIP3    H256627   3.833   0.643   3.248  1.4103 -0.2845  0.8438
11738TIP3   OH256628   6.094   5.302  13.579 -0.1178 -0.1450  0.1696
11738TIP3    H156629   6.051   5.274  13.498  2.5864 -1.4383 -0.9562
11738TIP3    H256630   6.123   5.392  13.560  0.8440 -0.5812 -0.4656
11739TIP3   OH256631   2.039   3.576  14.576  1.0259  0.2410  0.3937
11739TIP3    H156632   1.965   3.581  14.636 -0.4232  2.8685 -1.4651
11739TIP3    H256633   2.043   3.483  14.551 -1.7483  0.0262  0.4514
11740TIP3   OH256634   5.879   0.649   0.736 -0.4970  0.8877 -0.0276
11740TIP3    H156635   5.788   0.617   0.734  0.2592 -1.4062 -1.6196
11740TIP3    H256636   5.890   0.696   0.654 -0.7964  3.1731  1.1355
11741TIP3   OH256637   0.241   3.920   4.648 -0.1026  0.5721  0.3375
11741TIP3    H156638   0.229   3.825   4.650  0.8144  0.4513  0.6219
11741TIP3    H256639   0.329   3.934   4.683 -0.3192  1.5466  0.5338
11742TIP3   OH256640   0.221   6.207   4.820 -0.1349  0.1731  0.3388
11742TIP3    H156641   0.260   6.129   4.859 -2.4424 -0.8288  0.8757
11742TIP3    H256642   0.181   6.176   4.738  0.6480  1.2599 -0.4899
11743TIP3   OH256643   1.127   2.364   5.937  0.2702  0.4916  0.6037
11743TIP3    H156644   1.078   2.319   6.006  0.5581  0.2459  0.6526
11743TIP3    H256645   1.127   2.456   5.963  0.5353  0.3726  1.0281
11744TIP3   OH256646   2.725   2.948  16.955  0.1488  0.0421  0.1237
11744TIP3    H156647   2.685   2.912  17.034  1.9865 -1.4326  0.4486
11744TIP3    H256648   2.802   2.995  16.986  0.5830 -0.0762 -0.7418
11745TIP3   OH256649   0.566   5.334  15.320  0.5503  0.1790  0.7457
11745TIP3    H156650   0.596   5.323  15.411 -1.2812  0.1274  1.3853
11745TIP3    H256651   0.523   5.252  15.299 -0.6999  0.8689  0.5139
11746TIP3   OH256652   1.540   4.058   4.102 -0.0907 -0.4799  0.6046
11746TIP3    H156653   1.476   4.129   4.116 -1.0119 -1.3344  0.8519
11746TIP3    H256654   1.602   4.067   4.175  0.0018  0.2726  0.4424
11747TIP3   OH256655   1.160   3.422  15.111 -0.4742 -0.3204 -0.1629
11747TIP3    H156656   1.129   3.333  15.127 -0.7716 -0.1551  0.1777
11747TIP3    H256657   1.236   3.431  15.168  0.1928 -0.7103 -0.9641
11748TIP3   OH256658   0.693   2.551   1.628 -0.0306 -0.4902 -0.5181
11748TIP3    H156659   0.651   2.474   1.589  1.3665 -1.1617 -0.7599
11748TIP3    H256660   0.663   2.624   1.573 -0.0176 -1.0893 -1.3528
11749TIP3   OH256661   2.615   3.372  13.283  0.4344 -0.9331  0.3027
11749TIP3    H156662   2.627   3.291  13.234  0.1623 -1.1005  0.5071
11749TIP3    H256663   2.520   3.385  13.285  0.3733 -1.4469  1.5986
11750TIP3   OH256664   1.969   3.145  13.368 -0.3442  0.5525  0.0555
11750TIP3    H156665   2.014   3.191  13.297 -2.0817  1.6736 -0.3891
11750TIP3    H256666   2.021   3.163  13.446  2.2807 -1.6709 -1.0087
11751TIP3   OH256667   6.570   1.666  16.444 -0.2056  0.2959 -0.4488
11751TIP3    H156668   6.522   1.609  16.384  0.6777  0.0242 -0.9062
11751TIP3    H256669   6.615   1.729  16.388  2.3487 -1.2504 -0.2877
11752TIP3   OH256670   5.010   0.833   0.915 -0.0200  0.2904  0.0275
11752TIP3    H156671   4.951   0.878   0.975 -0.3300 -1.7686  1.3670
11752TIP3    H256672   5.073   0.789   0.972 -1.3258 -3.1534 -0.9558
11753TIP3   OH256673   1.600   5.353   3.536  0.2704  0.8081 -0.2001
11753TIP3    H156674   1.581   5.446   3.523  1.1514  1.5190  2.6299
11753TIP3    H256675   1.527   5.321   3.589  0.3371  0.0882 -0.5402
11754TIP3   OH256676   2.204   0.914   4.968 -0.1883 -0.4736  0.2712
11754TIP3    H156677   2.227   0.867   4.888 -0.3829 -2.4552  1.3188
11754TIP3    H256678   2.280   0.905   5.024  0.1079  1.2663  0.2008
11755TIP3   OH256679   6.019   1.115  14.360 -0.2117 -0.7410  0.2808
11755TIP3    H156680   6.038   1.098  14.452 -0.9207  3.0076  1.2933
11755TIP3    H256681   5.931   1.082  14.347 -0.4548 -0.5027  1.2390
11756TIP3   OH256682   1.837   5.375   2.004 -0.3850 -0.4068 -0.4067
11756TIP3    H156683   1.876   5.295   1.969  1.5763  0.2443  0.1445
11756TIP3    H256684   1.776   5.403   1.936 -0.3825 -1.8381 -1.0407
11757TIP3   OH256685   3.101   1.730   4.352 -0.7143 -0.3839  0.1814
11757TIP3    H156686   3.094   1.644   4.309  1.0494 -0.1250 -0.7402
11757TIP3    H256687   3.154   1.782   4.292 -0.8745  1.0352  1.2223
11758TIP3   OH256688   2.767   0.033   5.973  0.5321 -0.3186 -0.3318
11758TIP3    H156689   2.690   0.024   6.029  0.0717 -1.2522 -1.0892
11758TIP3    H256690   2.798  -0.056   5.958 -0.0254 -0.2238 -2.4300
11759TIP3   OH256691   3.578   3.119   4.436 -0.3565 -0.0856 -0.4540
11759TIP3    H156692   3.573   3.206   4.477 -0.2235 -1.0508  1.7299
11759TIP3    H256693   3.487   3.089   4.434 -0.2215 -0.5767  0.3931
11760TIP3   OH256694   6.419   6.603  16.772  0.5929 -0.3420  0.7130
11760TIP3    H156695   6.504   6.561  16.779  1.3626  1.1300  0.4806
11760TIP3    H256696   6.420   6.672  16.838 -0.0582  0.2512  0.1297
11761TIP3   OH256697   4.143   2.332  12.239 -0.0898 -0.0619 -0.1866
11761TIP3    H156698   4.106   2.261  12.292 -0.0577 -1.5702 -2.0871
11761TIP3    H256699   4.231   2.344  12.273 -0.7861  0.5460  1.5128
11762TIP3   OH256700   0.104   2.148  12.970  0.0893 -0.0547 -0.3753
11762TIP3    H156701   0.065   2.216  13.024  0.5473  0.2827 -0.4639
11762TIP3    H256702   0.109   2.187  12.882 -0.9027 -0.6934 -0.7396
11763TIP3   OH256703   0.117   3.360  16.156 -0.4618 -0.2536 -0.0678
11763TIP3    H156704   0.192   3.332  16.103 -0.1007 -0.5569  0.5844
11763TIP3    H256705   0.150   3.432  16.209 -1.2361  1.0880 -1.3193
11764TIP3   OH256706   6.328   3.505  13.490  0.5920 -0.6632 -0.3937
11764TIP3    H156707   6.418   3.493  13.518  1.2512 -0.9589 -2.5030
11764TIP3    H256708   6.310   3.598  13.505  0.9797 -0.7517  0.6923
11765TIP3   OH256709   3.856   2.142   5.602  0.1010  0.4788  0.1553
11765TIP3    H156710   3.886   2.227   5.569 -0.9854  0.6649 -0.3854
11765TIP3    H256711   3.794   2.164   5.672 -0.4026  0.1474 -0.1802
11766TIP3   OH256712   1.307   1.860   1.875  0.3476 -0.1273 -0.2258
11766TIP3    H156713   1.264   1.916   1.810  0.9485  0.0391 -0.4848
11766TIP3    H256714   1.235   1.811   1.916 -0.4192  2.0517  1.2223
11767TIP3   OH256715   3.057   2.887  14.598 -0.0986  0.1953  0.6146
11767TIP3    H156716   2.969   2.916  14.621 -0.8689 -0.8761 -0.7396
11767TIP3    H256717   3.044   2.834  14.518  2.1873  2.9830 -1.8406
11768TIP3   OH256718   6.475   2.850  14.864  0.0445 -0.5783  0.1770
11768TIP3    H156719   6.493   2.866  14.772 -1.0821 -0.2962 -0.0025
11768TIP3    H256720   6.561   2.834  14.903  0.6175  0.1553 -0.7534
11769TIP3   OH256721   0.465   2.099  13.137 -0.1992 -0.1491  0.3731
11769TIP3    H156722   0.464   2.042  13.060  0.5770  0.1773  0.1132
11769TIP3    H256723   0.485   2.039  13.210  1.5853 -0.1003 -0.0245
11770TIP3   OH256724   2.832   5.555  16.488  0.1974 -0.3595 -0.2248
11770TIP3    H156725   2.793   5.523  16.569  0.8352 -0.5056  0.0292
11770TIP3    H256726   2.905   5.496  16.471  2.0499  1.4974  0.8066
11771TIP3   OH256727   5.306   0.661   2.506 -0.4264 -0.6558 -0.4012
11771TIP3    H156728   5.249   0.737   2.499 -0.9414 -0.9647  0.2747
11771TIP3    H256729   5.391   0.697   2.528  0.0609 -0.0596 -2.9291
11772TIP3   OH256730   2.213   6.408  11.283 -0.0305 -0.6308  0.2422
11772TIP3    H156731   2.200   6.322  11.244 -0.2203 -0.3054 -0.4374
11772TIP3    H256732   2.200   6.469  11.211  1.4047 -0.0880  0.3966
11773TIP3   OH256733   5.542   5.126  14.474  0.1801  0.4974 -0.2334
11773TIP3    H156734   5.558   5.177  14.394  1.6415  1.2898  0.5139
11773TIP3    H256735   5.583   5.178  14.544  1.3056 -1.4494  0.6347
11774TIP3   OH256736   3.319   3.513  10.690  0.1096 -0.0430 -0.2419
11774TIP3    H156737   3.298   3.491  10.600  0.9797 -0.0733 -0.4497
11774TIP3    H256738   3.273   3.594  10.707 -0.9374 -0.6010 -0.3544
11775TIP3   OH256739   4.626   3.805  13.683 -1.2898 -0.3086 -0.0524
11775TIP3    H156740   4.653   3.815  13.774 -0.5873  0.4944 -0.3318
11775TIP3    H256741   4.680   3.734  13.649  0.0147  0.8201 -0.4126
11776TIP3   OH256742   0.995   0.136   2.890  0.4118  0.4643  0.0752
11776TIP3    H156743   1.006   0.200   2.960  1.3683 -1.1030  1.4184
11776TIP3    H256744   0.901   0.118   2.887  0.3274  0.7995  0.7051
11777TIP3   OH256745   0.380   5.494  16.833 -0.2618  0.1328 -0.2113
11777TIP3    H156746   0.411   5.423  16.890 -0.4776 -0.0117 -0.2745
11777TIP3    H256747   0.460   5.530  16.795 -0.2105 -0.7504 -0.9734
11778TIP3   OH256748   3.991   3.532  16.521 -0.6761 -0.3360 -0.0907
11778TIP3    H156749   4.013   3.616  16.560  0.0445 -0.3531 -0.4317
11778TIP3    H256750   3.981   3.473  16.595  0.0030 -0.2108  0.1114
11779TIP3   OH256751   3.557   2.738   4.074  0.4036  0.0966 -0.2969
11779TIP3    H156752   3.625   2.795   4.110 -0.2902  0.3391  0.6608
11779TIP3    H256753   3.520   2.788   4.001  0.0646  0.7264  0.2946
11780TIP3   OH256754   4.372   2.050   5.164 -0.2946 -0.6364 -0.5249
11780TIP3    H156755   4.318   2.106   5.218 -1.5925 -2.4038  0.1138
11780TIP3    H256756   4.406   2.108   5.095 -0.2281  1.2191  1.0024
11781TIP3   OH256757   4.432   3.559  13.750 -0.2515 -0.6961  0.4777
11781TIP3    H156758   4.519   3.594  13.770 -0.3270 -0.0761 -0.1921
11781TIP3    H256759   4.433   3.469  13.782  0.7617 -0.8074  0.1571
11782TIP3   OH256760   2.755   4.567   1.362 -0.0142 -0.3373 -0.2565
11782TIP3    H156761   2.778   4.602   1.447  1.9213 -2.1929  0.0703
11782TIP3    H256762   2.673   4.519   1.377 -0.3723  0.4011  0.2291
11783TIP3   OH256763   1.280   3.166  15.505  0.2093 -0.5454 -0.0600
11783TIP3    H156764   1.222   3.175  15.580  0.6056 -0.4658  0.2403
11783TIP3    H256765   1.319   3.079  15.516  2.2007  0.4505  1.2286
11784TIP3   OH256766   0.693   0.660   4.644  0.2522  0.2496 -0.1786
11784TIP3    H156767   0.718   0.625   4.730 -0.3270  0.4335  0.0743
11784TIP3    H256768   0.685   0.755   4.659 -1.9305  0.0863  0.1402
11785TIP3   OH256769   0.421   4.003   3.530 -0.0027  0.1780 -0.8690
11785TIP3    H156770   0.391   4.051   3.453  1.7476  1.4549 -0.8114
11785TIP3    H256771   0.485   3.941   3.495  0.0532  0.0591 -0.5554
11786TIP3   OH256772   1.748   5.882  12.102  0.0385 -0.1502 -0.6687
11786TIP3    H156773   1.833   5.837  12.094 -0.6644 -1.7407  0.2754
11786TIP3    H256774   1.694   5.843  12.033 -0.3202 -0.1060 -0.4135
11787TIP3   OH256775   5.497   2.842   3.817 -0.4365  0.6346  0.1718
11787TIP3    H156776   5.484   2.749   3.798  1.0640  0.3193  0.5442
11787TIP3    H256777   5.504   2.884   3.731 -1.9860  0.5697 -0.0121
11788TIP3   OH256778   1.051   0.683   5.561  0.0296 -0.8371 -0.4868
11788TIP3    H156779   1.044   0.594   5.596  2.4626 -1.1309 -0.5714
11788TIP3    H256780   1.135   0.715   5.594 -1.2145  1.8432  0.3603
11789TIP3   OH256781   4.734   5.010  13.180 -0.0181  0.1846  0.3741
11789TIP3    H156782   4.789   4.932  13.173 -0.3703  0.0325 -0.9317
11789TIP3    H256783   4.796   5.082  13.195  0.2451 -0.4126  2.4722
11790TIP3   OH256784   5.240   6.521  10.621  0.4062 -0.1695  0.2193
11790TIP3    H156785   5.164   6.549  10.571  0.7620 -0.3074 -0.4186
11790TIP3    H256786   5.238   6.425  10.614  1.2030 -0.1439 -0.6968
11791TIP3   OH256787   1.790   3.448  17.174 -0.1657  0.6087 -0.2421
11791TIP3    H156788   1.741   3.411  17.101  0.2641 -2.4174  0.8818
11791TIP3    H256789   1.881   3.421  17.158  0.1792  1.1913  0.6439
11792TIP3   OH256790   2.359   1.907   4.252  0.0849  0.2385  0.2993
11792TIP3    H156791   2.280   1.935   4.206 -0.6196  0.9685  1.8628
11792TIP3    H256792   2.327   1.843   4.316  0.7762  0.4924  0.9003
11793TIP3   OH256793   1.460   5.452   1.114  0.1798  0.3804 -0.3290
11793TIP3    H156794   1.527   5.395   1.078  0.2337  0.4863 -0.3966
11793TIP3    H256795   1.446   5.420   1.203  1.9546  1.7391  0.5024
11794TIP3   OH256796   4.469   2.684   4.678 -0.0277  0.1279 -0.3519
11794TIP3    H156797   4.449   2.625   4.750  1.1272 -0.3564 -0.3966
11794TIP3    H256798   4.386   2.727   4.657 -0.8212 -1.2310 -0.0846
11795TIP3   OH256799   2.335   4.751  16.585  0.1228  0.2893  0.3878
11795TIP3    H156800   2.386   4.725  16.662 -0.3280  1.4547  1.1103
11795TIP3    H256801   2.380   4.709  16.511 -0.4723 -2.3448  1.4134
11796TIP3   OH256802   6.282   0.238   0.339 -0.0089 -0.3452  0.0174
11796TIP3    H156803   6.226   0.162   0.354  0.9871 -1.1620 -0.3264
11796TIP3    H256804   6.224   0.313   0.353 -0.4886 -1.0867  2.6401
11797TIP3   OH256805   6.153   0.865   0.214  0.3600 -0.5787 -0.1536
11797TIP3    H156806   6.126   0.887   0.125  0.4669 -1.0592 -0.3047
11797TIP3    H256807   6.249   0.862   0.210  0.3350 -1.5360 -0.2503
11798TIP3   OH256808   2.162   4.247  16.299 -0.5002  0.5258  0.2367
11798TIP3    H156809   2.139   4.332  16.337  0.0872  1.0053 -0.4464
11798TIP3    H256810   2.242   4.264  16.249  0.1801 -0.6495  0.8923
11799TIP3   OH256811   4.591   4.116  10.590 -0.4506 -0.1486  0.0378
11799TIP3    H156812   4.639   4.199  10.597  0.8861 -0.8999  0.1131
11799TIP3    H256813   4.499   4.142  10.584 -0.0212  1.3597 -0.4435
11800TIP3   OH256814   0.565   4.661   0.366 -0.2964 -0.1409  0.2178
11800TIP3    H156815   0.540   4.628   0.280 -1.8913  1.2241  0.0951
11800TIP3    H256816   0.603   4.748   0.348 -0.0143 -0.1282  0.8394
11801TIP3   OH256817   1.996   5.917  17.130  0.3675  0.1747 -0.3012
11801TIP3    H156818   2.088   5.925  17.154  0.7576 -0.5072 -1.4957
11801TIP3    H256819   1.972   5.828  17.157  1.0857 -0.9905 -3.1009
11802TIP3   OH256820   4.770   6.538   5.070  0.4140  0.2018 -0.0385
11802TIP3    H156821   4.846   6.588   5.042  1.7005 -2.7731 -2.4531
11802TIP3    H256822   4.805   6.472   5.130 -0.5281 -0.1675  0.1263
11803TIP3   OH256823   0.182   3.496   2.838  0.5211  0.4154  0.4662
11803TIP3    H156824   0.177   3.588   2.809 -2.8028 -0.0922 -0.9684
11803TIP3    H256825   0.192   3.446   2.757 -0.4460 -0.6141  0.9617
11804TIP3   OH256826   3.492   0.783   2.574 -0.3588  0.6870 -0.1157
11804TIP3    H156827   3.432   0.721   2.532 -1.3714  1.5501  0.0327
11804TIP3    H256828   3.515   0.845   2.505 -2.4827  2.4501  0.6667
11805TIP3   OH256829   4.701   1.764   4.140  0.4006  0.3207 -0.2480
11805TIP3    H156830   4.735   1.816   4.068 -1.4451 -0.1505 -1.5236
11805TIP3    H256831   4.614   1.799   4.157  1.1991  1.1826  2.5855
11806TIP3   OH256832   6.229   0.634   0.837  0.1480  0.2220 -0.0236
11806TIP3    H156833   6.208   0.557   0.783 -1.7679 -1.2188  2.5622
11806TIP3    H256834   6.257   0.597   0.921  1.1021  2.3828  0.6739
11807TIP3   OH256835   4.499   2.362   0.914  0.8688  0.2085 -0.1233
11807TIP3    H156836   4.523   2.451   0.887 -0.0418  0.1166 -1.3435
11807TIP3    H256837   4.456   2.374   0.999  0.3532  1.0146 -0.4752
11808TIP3   OH256838   1.059   1.493   0.100  0.1718 -0.2712  0.1562
11808TIP3    H156839   1.122   1.559   0.127  0.7458 -1.7462  2.7476
11808TIP3    H256840   0.974   1.527   0.130  0.3820 -0.3818  0.8949
11809TIP3   OH256841   3.139   6.593  12.789 -0.2260 -0.4849 -0.6779
11809TIP3    H156842   3.216   6.646  12.810 -0.6125  0.3346 -1.2943
11809TIP3    H256843   3.074   6.618  12.854 -0.8234  0.7358 -1.7137
11810TIP3   OH256844   0.758   3.353  13.296 -0.0730  0.4608 -0.2563
11810TIP3    H156845   0.780   3.442  13.322  0.5706  1.1914 -2.9858
11810TIP3    H256846   0.842   3.306  13.297 -0.1704  0.2846 -0.2901
11811TIP3   OH256847   3.663   6.088   2.437 -0.0370 -0.4897  0.1649
11811TIP3    H156848   3.733   6.101   2.373 -0.6035  1.3061 -0.1482
11811TIP3    H256849   3.584   6.078   2.383 -0.7876  2.6728  0.4994
11812TIP3   OH256850   3.071   4.557   1.922 -0.4950  0.1609  0.0527
11812TIP3    H156851   3.093   4.650   1.919  0.9532 -0.1529  0.3615
11812TIP3    H256852   3.120   4.523   1.997 -1.9700 -0.6194  0.7050
11813TIP3   OH256853   3.600   4.000  16.006  1.1831 -0.2937 -0.2361
11813TIP3    H156854   3.656   3.925  15.990  3.4720  0.9584  1.3213
11813TIP3    H256855   3.618   4.060  15.933  3.5359  0.9354  1.2239
11814TIP3   OH256856   3.100   1.833   3.601  0.2121  0.0082  0.1501
11814TIP3    H156857   3.025   1.784   3.632 -0.2804  1.0841  0.7169
11814TIP3    H256858   3.142   1.866   3.681  0.4784  0.5699 -0.2107
11815TIP3   OH256859   4.745   1.161   5.332  0.0333  0.7360 -0.3514
11815TIP3    H156860   4.745   1.177   5.427 -0.6818  1.9008 -0.5262
11815TIP3    H256861   4.653   1.143   5.312  0.0378  1.3443 -0.9437
11816TIP3   OH256862   6.222   0.481   1.419  0.2366  0.7182 -0.3297
11816TIP3    H156863   6.127   0.467   1.423 -0.0039  2.2789 -0.0333
11816TIP3    H256864   6.259   0.410   1.472 -0.5923 -1.1475 -2.1107
11817TIP3   OH256865   6.710   2.011  16.745  0.2555  0.2898  0.2570
11817TIP3    H156866   6.628   1.975  16.711  0.5277 -0.2658  0.1681
11817TIP3    H256867   6.758   1.934  16.776 -0.4567  0.8373  2.9775
11818TIP3   OH256868   0.906   2.335  16.101 -0.1277  0.2436 -0.1667
11818TIP3    H156869   0.862   2.347  16.017  3.1309  2.0572 -1.8249
11818TIP3    H256870   0.898   2.419  16.145 -0.7072 -0.3094  0.8486
11819TIP3   OH256871   2.418   1.465   0.717  0.1192 -0.6502 -0.6635
11819TIP3    H156872   2.363   1.403   0.765  1.2804  0.3098  2.0770
11819TIP3    H256873   2.500   1.417   0.702  0.8626  0.0034  1.0837
11820TIP3   OH256874   4.172   1.173   1.969  0.0111  0.6117 -0.0542
11820TIP3    H156875   4.128   1.217   2.042 -0.0957  0.5963 -0.1088
11820TIP3    H256876   4.248   1.131   2.008 -0.8417 -0.6526  0.3178
11821TIP3   OH256877   3.758   0.873   4.108  0.9726  0.7685  0.0218
11821TIP3    H156878   3.727   0.961   4.129  0.2281  0.0980  1.9380
11821TIP3    H256879   3.843   0.867   4.153  1.5767  0.8753 -1.0654
11822TIP3   OH256880   1.469   1.385   1.325  0.1280  0.4556  0.0516
11822TIP3    H156881   1.432   1.427   1.403  1.5895  0.2906  0.8783
11822TIP3    H256882   1.444   1.441   1.252 -1.9047  0.2219  0.5165
11823TIP3   OH256883   3.878   6.152  13.330  0.0958  0.0774 -0.2387
11823TIP3    H156884   3.844   6.215  13.394 -0.2466  1.8984 -2.1347
11823TIP3    H256885   3.817   6.078  13.337 -0.8543  0.8820  0.4582
11824TIP3   OH256886   5.154   5.914  11.447  0.3406  0.0342  0.3872
11824TIP3    H156887   5.093   5.841  11.461  1.4324 -0.6834  1.7052
11824TIP3    H256888   5.133   5.976  11.517 -0.5604  1.0094 -0.7112
11825TIP3   OH256889   1.498   3.907   3.039  0.3141  0.6304 -0.0143
11825TIP3    H156890   1.571   3.960   3.006 -0.2225  3.0364  2.3035
11825TIP3    H256891   1.454   3.875   2.960  1.0684  3.1791 -1.6021
11826TIP3   OH256892   1.366   0.821   3.460  1.0428  0.1798 -0.0994
11826TIP3    H156893   1.438   0.841   3.400  0.5526  0.8629 -0.4630
11826TIP3    H256894   1.312   0.900   3.461 -0.3509 -0.7221 -0.7529
11827TIP3   OH256895   0.535   5.443  10.989  0.3443  0.7675 -0.3635
11827TIP3    H156896   0.539   5.526  10.942  0.0382  1.7558  1.2880
11827TIP3    H256897   0.556   5.465  11.079 -1.1323 -0.7155  0.3941
11828TIP3   OH256898   3.374   3.836   5.610 -0.1618 -0.2605 -0.3227
11828TIP3    H156899   3.324   3.783   5.547  2.0254 -1.2371 -1.3800
11828TIP3    H256900   3.399   3.915   5.561 -0.6438  0.1991  0.1735
11829TIP3   OH256901   2.925   3.823  12.403 -0.4279 -0.2510 -0.6301
11829TIP3    H156902   3.001   3.871  12.371 -0.1876 -0.5634 -0.5306
11829TIP3    H256903   2.950   3.793  12.490 -1.3299  1.1738  0.1420
11830TIP3   OH256904   4.900   1.601  16.755 -0.1328  0.0792  0.3876
11830TIP3    H156905   4.960   1.654  16.704 -0.6187  1.8212  1.5565
11830TIP3    H256906   4.927   1.510  16.737  0.7149  0.6874 -1.6419
11831TIP3   OH256907   1.167   2.714  14.253  0.4620 -0.2940  0.0500
11831TIP3    H156908   1.246   2.737  14.204  1.4070  0.7975  1.9653
11831TIP3    H256909   1.156   2.785  14.315 -0.5065 -1.7369  1.6203
11832TIP3   OH256910   4.623   1.163  14.136  0.2318 -0.8773  0.0194
11832TIP3    H156911   4.613   1.110  14.215 -0.5937 -0.5823  0.1150
11832TIP3    H256912   4.716   1.186  14.135  0.4851 -1.8330  0.2907
11833TIP3   OH256913   0.671   3.420   1.957 -0.7852 -0.4658 -0.0551
11833TIP3    H156914   0.629   3.362   1.893  0.7496 -2.0257  0.2805
11833TIP3    H256915   0.700   3.362   2.027  0.2080  0.8071  0.6405
11834TIP3   OH256916   0.449   6.108   2.957 -0.1247 -0.1358 -0.2525
11834TIP3    H156917   0.402   6.176   3.004  2.1396  0.4123  1.4086
11834TIP3    H256918   0.521   6.083   3.016  1.6067 -0.9538 -2.5410
11835TIP3   OH256919   0.560   1.042   3.529  0.0421 -0.4762 -0.4052
11835TIP3    H156920   0.502   0.967   3.517  0.1899 -0.4506 -1.4120
11835TIP3    H256921   0.513   1.115   3.489  0.2959 -0.2279 -0.2548
11836TIP3   OH256922   3.123   2.314   1.061 -0.5574  0.0226 -0.1059
11836TIP3    H156923   3.096   2.243   1.119 -1.3331  0.6975  0.3979
11836TIP3    H256924   3.074   2.298   0.980  0.4475 -0.8631 -0.5576
11837TIP3   OH256925   3.531   5.784  16.462 -0.2403  0.3757  0.5458
11837TIP3    H156926   3.458   5.750  16.410  0.5189  0.6249 -0.7035
11837TIP3    H256927   3.502   5.871  16.489 -0.5839  0.2930  0.4569
11838TIP3   OH256928   5.107   4.202  16.725 -0.3907  0.0614 -0.5550
11838TIP3    H156929   5.096   4.222  16.818  0.1929  0.9316 -0.6573
11838TIP3    H256930   5.127   4.286  16.684  0.0896 -0.4189 -1.3524
11839TIP3   OH256931   0.907   0.345   1.193 -0.1014  0.0522  0.2049
11839TIP3    H156932   0.940   0.272   1.245 -0.4003 -0.4617 -0.3187
11839TIP3    H256933   0.834   0.308   1.142 -0.6884  0.8690  0.4237
11840TIP3   OH256934   4.380   6.737   2.056 -0.4113 -0.0548 -0.0310
11840TIP3    H156935   4.320   6.802   2.094  1.0725  1.6661 -0.4816
11840TIP3    H256936   4.429   6.786   1.990  0.1874 -1.8787 -1.0081
11841TIP3   OH256937   4.746   3.429  16.715 -0.5878 -0.0383 -0.2813
11841TIP3    H156938   4.741   3.337  16.690 -0.6494  0.1626 -1.0203
11841TIP3    H256939   4.827   3.460  16.674 -1.0722  0.4797 -0.8533
11842TIP3   OH256940   6.537   1.886   1.302 -0.0330  0.6248 -0.0728
11842TIP3    H156941   6.473   1.862   1.369 -0.9345 -1.1793 -1.4939
11842TIP3    H256942   6.606   1.820   1.310  0.0575  0.6494 -0.6523
11843TIP3   OH256943   5.583   1.358  16.794 -0.1088 -0.2160 -0.1605
11843TIP3    H156944   5.519   1.289  16.815  0.7531 -0.3869  2.1106
11843TIP3    H256945   5.581   1.416  16.869  1.5983  0.4003 -0.5486
11844TIP3   OH256946   3.535   0.156   5.391  0.3505  0.1232  0.2523
11844TIP3    H156947   3.452   0.148   5.343  0.5558 -1.3003  0.1042
11844TIP3    H256948   3.509   0.165   5.483 -0.0796  3.5509 -0.0586
11845TIP3   OH256949   0.455   1.263   4.079 -0.6089  0.1568  0.6510
11845TIP3    H156950   0.451   1.264   3.984  1.3997 -0.3665  0.5033
11845TIP3    H256951   0.527   1.322   4.101 -0.8207  0.0154  1.8157
11846TIP3   OH256952   2.418   1.083  13.383  0.2671 -0.3454  0.1574
11846TIP3    H156953   2.394   1.000  13.424  0.6156 -0.3113  0.4363
11846TIP3    H256954   2.491   1.061  13.325  0.1279 -0.2959 -0.0371
11847TIP3   OH256955   0.089   3.690   4.484  0.0380 -0.2074  0.6032
11847TIP3    H156956   0.040   3.761   4.443 -2.6847 -2.6685 -0.7638
11847TIP3    H256957   0.153   3.664   4.419  1.5177  1.3375  1.3757
11848TIP3   OH256958   3.532   1.633  14.752  0.1715  0.1279 -0.6333
11848TIP3    H156959   3.626   1.625  14.769 -0.0081  2.3619  2.2376
11848TIP3    H256960   3.524   1.706  14.690  0.3185  1.8059  1.2245
11849TIP3   OH256961   4.194   1.971  15.035 -0.3244 -0.4163 -0.1730
11849TIP3    H156962   4.144   1.891  15.018  1.4578 -1.1784 -2.5678
11849TIP3    H256963   4.264   1.943  15.094 -0.0063 -0.5574 -0.6013
11850TIP3   OH256964   0.165   4.239  15.138  0.0315 -0.4640  0.4168
11850TIP3    H156965   0.204   4.325  15.145 -0.5485 -0.2634  1.3552
11850TIP3    H256966   0.116   4.228  15.219 -0.1425 -1.5557  0.1821
11851TIP3   OH256967   3.649   4.124  16.312  0.0706 -0.4631  0.0485
11851TIP3    H156968   3.600   4.201  16.284 -0.0617 -0.9241 -1.0476
11851TIP3    H256969   3.626   4.057  16.247  0.9696 -1.1255  0.4028
11852TIP3   OH256970   5.842   3.701  13.919  0.0324  1.1688  0.0227
11852TIP3    H156971   5.784   3.625  13.910  1.4149  0.2550 -2.0928
11852TIP3    H256972   5.924   3.664  13.953  0.1045  2.0621  0.8510
11853TIP3   OH256973   0.169   1.097  14.448  0.4242 -0.6033  0.6607
11853TIP3    H156974   0.142   1.086  14.540  1.2908 -1.4220  0.8313
11853TIP3    H256975   0.088   1.121  14.403  0.2452  1.2965  1.8706
11854TIP3   OH256976   2.216   6.757  14.724 -0.4769 -0.1195 -0.0490
11854TIP3    H156977   2.120   6.751  14.724 -0.4912  0.0630 -0.3487
11854TIP3    H256978   2.242   6.715  14.642 -0.1347 -2.4266  1.1546
11855TIP3   OH256979   6.709   0.928  14.829 -0.1420 -0.1067  0.3340
11855TIP3    H156980   6.743   0.939  14.918  0.9674 -0.3559 -0.0393
11855TIP3    H256981   6.740   0.841  14.803  0.9103  0.5947 -0.8625
11856TIP3   OH256982   2.735   0.360  16.897 -0.0557  0.2596 -0.1550
11856TIP3    H156983   2.717   0.270  16.921  0.1855  0.0835 -0.6240
11856TIP3    H256984   2.826   0.374  16.921 -0.1658  0.4579  0.1514
11857TIP3   OH256985   6.671   0.198   1.388  0.5541  0.1604 -0.9684
11857TIP3    H156986   6.594   0.246   1.418  1.3825  0.2282  1.2119
11857TIP3    H256987   6.737   0.266   1.373  1.5412 -0.1321  1.5470
11858TIP3   OH256988   6.640   3.105   5.937  0.4161  0.0943 -0.3868
11858TIP3    H156989   6.679   3.112   6.025  0.6729 -1.3939 -0.3585
11858TIP3    H256990   6.546   3.106   5.952  0.4434 -1.3554  0.0548
11859TIP3   OH256991   6.263   2.656   1.784  0.2644  0.0737 -0.6842
11859TIP3    H156992   6.317   2.578   1.782  2.8469  1.7381 -0.7545
11859TIP3    H256993   6.306   2.714   1.847 -2.4022  0.9101  0.5037
11860TIP3   OH256994   3.117   4.947  16.958 -0.5516 -0.2093  0.1016
11860TIP3    H156995   3.072   5.016  17.007 -1.0841  0.6107 -1.4908
11860TIP3    H256996   3.116   4.872  17.018 -3.2253  0.0585  0.5071
11861TIP3   OH256997   4.776   1.944   5.144 -0.3814 -0.1589 -0.3628
11861TIP3    H156998   4.789   1.858   5.185 -0.2030 -0.6031 -1.3285
11861TIP3    H256999   4.797   1.930   5.052  0.1911  1.0582 -0.4313
11862TIP3   OH257000   6.367   6.762   5.062  0.5417 -0.1158  0.4810
11862TIP3    H157001   6.305   6.720   5.002  1.2112 -0.5914  0.1121
11862TIP3    H257002   6.443   6.783   5.008  1.0412 -0.2999  1.1008
11863TIP3   OH257003   0.038   1.300  11.597  0.4450  0.0608 -0.4467
11863TIP3    H157004   0.014   1.302  11.689  1.5258 -0.5733 -0.1380
11863TIP3    H257005   0.133   1.315  11.596  0.7332 -1.5526 -1.3254
11864TIP3   OH257006   5.200   2.017   4.557  0.3060  0.0057  0.4086
11864TIP3    H157007   5.251   1.953   4.605 -0.7479 -0.4073  1.0223
11864TIP3    H257008   5.168   1.970   4.480  1.2167  0.3953 -0.2172
11865TIP3   OH257009   0.568   1.497  13.678 -0.3295 -0.1155 -0.7216
11865TIP3    H157010   0.591   1.579  13.634  0.0947 -0.1788 -0.6205
11865TIP3    H257011   0.574   1.430  13.609  1.1009 -0.3354 -0.4079
11866TIP3   OH257012   5.309   3.819  15.631 -0.0319 -0.1634  0.0543
11866TIP3    H157013   5.344   3.874  15.562  0.5604 -1.0479 -0.3662
11866TIP3    H257014   5.303   3.732  15.592 -0.9218 -0.4195  0.7114
11867TIP3   OH257015   6.243   4.811  10.538 -0.0125 -0.7953 -0.4609
11867TIP3    H157016   6.168   4.803  10.480  0.5681 -2.1576 -1.0620
11867TIP3    H257017   6.225   4.889  10.590 -1.7554 -1.0147 -0.6944
11868TIP3   OH257018   2.427   1.770  17.069  0.6816  0.2286 -0.1442
11868TIP3    H157019   2.512   1.776  17.025  0.3269 -1.0865 -1.0710
11868TIP3    H257020   2.430   1.687  17.116 -0.1210  0.1280 -0.2525
11869TIP3   OH257021   0.744   2.134  16.677  0.7280  0.6819  0.7058
11869TIP3    H157022   0.746   2.221  16.637 -1.4928 -0.0015 -1.0817
11869TIP3    H257023   0.734   2.074  16.603 -1.7999 -0.7795  2.1068
11870TIP3   OH257024   0.687   2.890   4.008 -0.0047  0.7208 -0.1897
11870TIP3    H157025   0.740   2.956   4.053  0.5543 -0.7978  1.5353
11870TIP3    H257026   0.689   2.814   4.067 -2.7342  0.0248 -0.8563
11871TIP3   OH257027   3.894   0.753  11.820  0.4096  0.4817 -0.1556
11871TIP3    H157028   3.961   0.779  11.883  1.0995  0.2193 -0.7565
11871TIP3    H257029   3.944   0.715  11.747 -0.4326 -0.1916 -0.3881
11872TIP3   OH257030   5.770   4.763   5.010  0.4140  0.5692  0.0046
11872TIP3    H157031   5.712   4.713   5.067 -0.7239  0.0388 -1.5440
11872TIP3    H257032   5.723   4.845   4.993  1.1687  1.1391  0.5320
11873TIP3   OH257033   4.280   2.896   5.812 -0.5023 -0.2700 -0.0489
11873TIP3    H157034   4.262   2.970   5.754  0.4066 -0.2797 -0.3459
11873TIP3    H257035   4.255   2.928   5.899  0.3506  0.5743 -0.0972
11874TIP3   OH257036   4.206   2.095  11.326  0.3404  0.5591  0.1970
11874TIP3    H157037   4.256   2.037  11.269 -0.9079  1.0866 -1.4946
11874TIP3    H257038   4.150   2.036  11.376  0.7851  0.1540  0.2314
11875TIP3   OH257039   6.093   1.756   2.075 -0.3677 -0.0605  0.1617
11875TIP3    H157040   6.182   1.752   2.041 -0.3764 -0.2384  0.1593
11875TIP3    H257041   6.101   1.732   2.167 -0.0679  2.2645  0.8162
11876TIP3   OH257042   0.695   5.650  13.427  0.1095 -0.2288  0.2214
11876TIP3    H157043   0.665   5.568  13.466  2.3661 -0.6126  1.3005
11876TIP3    H257044   0.660   5.718  13.484 -1.7766 -0.3540 -0.6803
11877TIP3   OH257045   5.160   4.469  11.360  0.0620 -0.1350  0.3232
11877TIP3    H157046   5.196   4.519  11.287 -1.6232 -0.8069 -1.0319
11877TIP3    H257047   5.162   4.378  11.330  1.3530 -0.7015  2.0057
11878TIP3   OH257048   0.312   1.734  13.904 -0.1904 -0.6633 -0.0576
11878TIP3    H157049   0.261   1.805  13.866  0.3725 -0.1346  0.1469
11878TIP3    H257050   0.259   1.704  13.978  0.2038  0.5095  0.7294
11879TIP3   OH257051   4.349   3.840   3.070  0.4207  0.4352  0.1935
11879TIP3    H157052   4.406   3.906   3.031 -0.3188  0.8366 -0.2308
11879TIP3    H257053   4.367   3.846   3.164  2.5656 -0.8713 -0.0613
11880TIP3   OH257054   2.860   3.456   6.371  0.0269 -0.4718  0.3031
11880TIP3    H157055   2.792   3.409   6.322 -0.1976  0.2920 -0.1416
11880TIP3    H257056   2.942   3.416   6.343 -0.0517  0.3305 -1.1583
11881TIP3   OH257057   0.998   3.582   0.365  0.0319 -0.2564  0.0914
11881TIP3    H157058   1.054   3.633   0.306 -1.7431 -2.1271 -3.5557
11881TIP3    H257059   0.923   3.639   0.382  0.7278  0.4353  0.9520
11882TIP3   OH257060   6.305   0.474   2.106 -0.2988 -0.1280 -0.8901
11882TIP3    H157061   6.318   0.503   2.196 -0.7972 -0.9153 -0.5576
11882TIP3    H257062   6.251   0.395   2.113  0.3745 -0.6966 -1.8180
11883TIP3   OH257063   1.259   3.521   6.125 -0.1605 -0.0338 -0.3171
11883TIP3    H157064   1.285   3.432   6.102  0.5302 -0.0886  0.6467
11883TIP3    H257065   1.248   3.519   6.220 -0.6663  0.7743 -0.3539
11884TIP3   OH257066   4.467   5.620  12.071  0.2273  0.0773  0.6420
11884TIP3    H157067   4.475   5.643  11.979  0.1837 -0.0807  0.5992
11884TIP3    H257068   4.425   5.696  12.111  0.1760  0.1141  0.5184
11885TIP3   OH257069   2.774   5.793  14.924 -0.1039  0.4584  0.0912
11885TIP3    H157070   2.852   5.783  14.871  0.8231  1.4290  1.2220
11885TIP3    H257071   2.806   5.821  15.009 -1.5566 -0.9531  1.1596
11886TIP3   OH257072   2.474   0.623  16.531 -0.1436  0.3821  0.1425
11886TIP3    H157073   2.474   0.675  16.612 -0.0568  1.2144 -0.3766
11886TIP3    H257074   2.536   0.552  16.548 -1.2191 -0.3252  1.3374
11887TIP3   OH257075   0.563   1.715   4.812  0.6115 -0.5196 -0.7888
11887TIP3    H157076   0.555   1.807   4.788 -0.0535  0.1965  1.7958
11887TIP3    H257077   0.474   1.689   4.839  1.1523 -1.3312  0.2958
11888TIP3   OH257078   5.118   6.370   1.940 -0.6841  0.3414 -0.1620
11888TIP3    H157079   5.144   6.304   2.005 -0.4491 -1.9559 -2.4319
11888TIP3    H257080   5.025   6.354   1.925 -0.6268  0.5271 -0.7393
11889TIP3   OH257081   6.168   0.442  11.996  0.4373 -0.0846 -0.4744
11889TIP3    H157082   6.211   0.356  12.000 -1.6152 -1.1302  0.2221
11889TIP3    H257083   6.098   0.430  11.932  0.3831  1.2170 -0.6755
11890TIP3   OH257084   5.402   6.566   1.985  0.3355  0.6467  0.3013
11890TIP3    H157085   5.329   6.563   2.047 -0.2426  0.0224 -0.3959
11890TIP3    H257086   5.406   6.478   1.949  1.6909  0.5625  0.6080
11891TIP3   OH257087   5.291   4.341  14.607 -0.7291  0.0685  0.2661
11891TIP3    H157088   5.211   4.289  14.608 -1.3917  1.0736  0.9821
11891TIP3    H257089   5.264   4.427  14.575  0.2599  0.1464 -0.4448
11892TIP3   OH257090   1.348   3.377  11.749 -0.6467 -0.1293  0.1395
11892TIP3    H157091   1.437   3.345  11.733 -0.8758 -0.4059 -0.6042
11892TIP3    H257092   1.324   3.424  11.669 -1.0816  0.1506  0.4285
11893TIP3   OH257093   3.089   3.079  15.117  0.8965 -0.1882 -0.1379
11893TIP3    H157094   3.072   3.103  15.026  3.8171  1.4383 -0.3568
11893TIP3    H257095   3.079   2.983  15.119 -3.7618  0.0593 -0.9728
11894TIP3   OH257096   4.378   6.653  14.281 -0.0748  0.2024 -0.4526
11894TIP3    H157097   4.299   6.653  14.227  0.0433  1.2507 -0.6402
11894TIP3    H257098   4.346   6.638  14.370 -0.3164 -1.0389 -0.7277
11895TIP3   OH257099   3.998   2.600   6.381 -0.0278  0.0360  0.0042
11895TIP3    H157100   4.047   2.682   6.382 -0.8180  0.5512 -1.0992
11895TIP3    H257101   4.045   2.543   6.441  0.1024  1.5458  1.4070
11896TIP3   OH257102   2.086   4.722   3.044 -0.6167  0.1388  0.4582
11896TIP3    H157103   2.173   4.757   3.024 -0.9556  0.7338  0.0112
11896TIP3    H257104   2.029   4.799   3.047 -1.1941 -0.2833  0.4050
11897TIP3   OH257105   6.131   4.677   2.967  0.2507 -0.0138  0.3424
11897TIP3    H157106   6.204   4.626   3.001 -1.5365 -0.5209  3.9839
11897TIP3    H257107   6.058   4.615   2.961 -0.7106  1.0956 -0.0796
11898TIP3   OH257108   2.823   6.050  16.522  0.4023 -0.2221 -0.6856
11898TIP3    H157109   2.788   5.965  16.550  0.7933 -0.9768 -2.3891
11898TIP3    H257110   2.783   6.113  16.582  1.6683 -1.7634  1.9430
11899TIP3   OH257111   5.062   0.838  13.260 -0.3533 -0.3353  0.1453
11899TIP3    H157112   5.025   0.793  13.184  0.1858  0.3355 -0.5245
11899TIP3    H257113   5.075   0.769  13.325 -0.1882 -1.0254 -0.6113
11900TIP3   OH257114   0.147   0.392   3.613  0.2829 -0.3259 -0.0722
11900TIP3    H157115   0.135   0.413   3.521  0.3201  2.6027  0.5006
11900TIP3    H257116   0.092   0.315   3.627  1.3580 -1.7155 -2.7836
11901TIP3   OH257117   2.009   1.604  16.718 -0.5057  0.6032 -0.6444
11901TIP3    H157118   2.048   1.650  16.792  2.2794 -1.4785 -0.6447
11901TIP3    H257119   2.082   1.591  16.657 -1.7080 -1.6022 -1.7290
11902TIP3   OH257120   5.272   4.454   1.540 -0.1709  0.2488  0.0917
11902TIP3    H157121   5.247   4.365   1.563 -1.7622  1.0217  1.6010
11902TIP3    H257122   5.330   4.482   1.611  0.4369  0.3796 -0.4479
11903TIP3   OH257123   3.132   4.937   3.580  0.0379  1.2500  0.0408
11903TIP3    H157124   3.176   4.999   3.522  0.1494 -0.4411 -1.7620
11903TIP3    H257125   3.110   4.862   3.524 -2.1619  0.6177  1.6241
11904TIP3   OH257126   2.221   0.167   4.579 -0.1276 -0.1232 -0.1517
11904TIP3    H157127   2.221   0.087   4.631  1.4061 -1.1911 -1.7027
11904TIP3    H257128   2.294   0.156   4.518 -0.2627  2.1947 -0.8250
11905TIP3   OH257129   3.925   2.578  11.560  0.1256 -0.1514 -0.4675
11905TIP3    H157130   3.897   2.596  11.650 -1.1016 -0.0768 -0.8390
11905TIP3    H257131   4.000   2.520  11.569  0.8330  0.8912  0.6310
11906TIP3   OH257132   4.943   1.278  14.416  0.3098 -0.0907 -0.1662
11906TIP3    H157133   4.889   1.297  14.339 -0.1483  1.1764  0.4386
11906TIP3    H257134   4.986   1.361  14.436  1.3142 -0.7017  0.2672
11907TIP3   OH257135   3.291   5.862   2.956 -0.5694  0.0933 -0.3858
11907TIP3    H157136   3.336   5.785   2.920 -0.2645 -0.0956  0.3798
11907TIP3    H257137   3.245   5.900   2.881  0.2716 -0.1286 -1.0271
11908TIP3   OH257138   2.537   2.008   6.714  0.4442 -0.2523 -0.6353
11908TIP3    H157139   2.576   2.000   6.627  0.5057 -2.3174 -0.4763
11908TIP3    H257140   2.461   1.950   6.711  0.1915 -0.0025  0.5468
11909TIP3   OH257141   5.572   5.107  10.977 -0.1286 -0.1441 -0.0750
11909TIP3    H157142   5.625   5.085  10.900  0.3115  2.4602 -0.6031
11909TIP3    H257143   5.498   5.156  10.941 -1.8509 -1.9180  0.8719
11910TIP3   OH257144   6.645   1.686   2.174  0.0590 -0.1480 -0.9275
11910TIP3    H157145   6.577   1.624   2.149  0.8577 -1.3681 -0.1561
11910TIP3    H257146   6.631   1.700   2.267  0.6235 -0.0996 -0.8497
11911TIP3   OH257147   6.693   2.502   1.866 -0.3258  0.3004 -0.0198
11911TIP3    H157148   6.684   2.451   1.785  2.5582 -1.3863  0.5939
11911TIP3    H257149   6.745   2.578   1.840  1.6067 -0.8214  0.3586
11912TIP3   OH257150   2.367   0.317  12.877 -0.1745  0.0236 -0.0585
11912TIP3    H157151   2.418   0.238  12.894 -0.1787  0.0127 -0.0960
11912TIP3    H257152   2.432   0.386  12.867 -0.1336 -0.1237 -0.8326
11913TIP3   OH257153   1.854   1.725  14.991  0.0130  0.3201 -0.2985
11913TIP3    H157154   1.847   1.781  15.068 -1.0996 -1.3821  0.9089
11913TIP3    H257155   1.764   1.719  14.958 -0.3175 -2.2668  0.8111
11914TIP3   OH257156   3.364   3.155   0.968 -0.3275 -0.4449 -0.1441
11914TIP3    H157157   3.309   3.187   1.040  1.3817  2.3117  0.0532
11914TIP3    H257158   3.313   3.173   0.889 -0.0545  1.4614  0.0787
11915TIP3   OH257159   2.396   0.983  12.833 -0.1669  0.2040 -0.1970
11915TIP3    H157160   2.415   1.072  12.803  0.4326  0.5565  1.1581
11915TIP3    H257161   2.322   0.955  12.779  0.4584  1.0351 -1.5258
11916TIP3   OH257162   2.959   4.342  15.419 -0.2891  0.1686  0.2912
11916TIP3    H157163   2.875   4.385  15.403  0.7196  2.4943  0.8438
11916TIP3    H257164   2.995   4.388  15.495  1.1877 -1.2542  0.4994
11917TIP3   OH257165   0.878   1.063  15.430 -0.6030 -0.3059  0.4881
11917TIP3    H157166   0.899   0.997  15.365 -1.0167 -0.1964  0.2413
11917TIP3    H257167   0.882   1.017  15.514 -0.2593 -0.4900  0.3705
11918TIP3   OH257168   5.888   2.544  16.222 -0.2101  0.3698 -0.5707
11918TIP3    H157169   5.887   2.544  16.318  0.8764  1.3221 -0.5328
11918TIP3    H257170   5.886   2.451  16.198 -0.3370  0.1190  0.3748
11919TIP3   OH257171   4.696   6.289  14.774 -0.4911  0.1330  0.4642
11919TIP3    H157172   4.707   6.364  14.833 -1.6922  0.0609  0.7943
11919TIP3    H257173   4.623   6.313  14.717  0.7256  0.2485 -1.1051
11920TIP3   OH257174   3.533   1.990   3.735 -0.2749  0.2238 -0.1939
11920TIP3    H157175   3.504   1.933   3.664  0.7668 -0.7868  0.1526
11920TIP3    H257176   3.629   1.981   3.735 -0.2410  0.3760  1.1968
11921TIP3   OH257177   5.865   6.243  13.365  0.0508 -0.1440 -0.2532
11921TIP3    H157178   5.913   6.296  13.428 -0.7270  0.6261 -0.2848
11921TIP3    H257179   5.903   6.264  13.280 -0.3952  0.5493 -0.2911
11922TIP3   OH257180   4.250   4.658  13.514 -0.0588 -0.0183 -0.0734
11922TIP3    H157181   4.222   4.719  13.582  1.6599 -0.2002  0.8492
11922TIP3    H257182   4.281   4.581  13.562 -0.9199 -1.0946 -1.1643
11923TIP3   OH257183   1.517   5.828  16.084 -0.3706 -0.5361  0.3132
11923TIP3    H157184   1.491   5.802  16.172 -1.9072  2.0261  0.7295
11923TIP3    H257185   1.600   5.874  16.096 -2.0970  2.6894  1.0781
11924TIP3   OH257186   2.525   3.057   4.295 -0.3352 -0.6581 -1.4006
11924TIP3    H157187   2.457   3.046   4.229 -2.1551  0.7822  0.1073
11924TIP3    H257188   2.492   3.011   4.372 -1.8284  3.3901  0.7187
11925TIP3   OH257189   2.527   6.385  15.284 -0.0130 -0.0796  0.0904
11925TIP3    H157190   2.589   6.358  15.216  0.5440  0.4968  0.3615
11925TIP3    H257191   2.441   6.368  15.246  0.2718  0.9028 -1.0717
11926TIP3   OH257192   0.749   0.704   0.233 -0.2757  0.9431 -0.4939
11926TIP3    H157193   0.800   0.784   0.243  0.5850  0.2363  1.2379
11926TIP3    H257194   0.811   0.634   0.254 -2.3632  0.1147  3.9719
11927TIP3   OH257195   6.356   1.885   3.376 -0.7534 -0.0518  0.1073
11927TIP3    H157196   6.351   1.952   3.444 -0.8041 -0.6031  0.6558
11927TIP3    H257197   6.448   1.882   3.352 -0.9163  1.0365 -0.7748
11928TIP3   OH257198   1.237   3.677  11.687  0.3183  0.1385 -0.0163
11928TIP3    H157199   1.195   3.594  11.665  1.6845 -0.2972 -1.1372
11928TIP3    H257200   1.297   3.694  11.615  1.0938  1.4024  0.8699
11929TIP3   OH257201   1.212   1.585  16.984  0.1692  0.4006  0.1264
11929TIP3    H157202   1.229   1.565  17.076  1.4133  1.7088  0.2114
11929TIP3    H257203   1.297   1.573  16.941 -0.4508 -0.4487 -0.9283
11930TIP3   OH257204   4.523   5.164  11.900 -0.3433 -0.1657  0.0634
11930TIP3    H157205   4.541   5.128  11.813 -2.3289  1.2945 -1.0399
11930TIP3    H257206   4.599   5.220  11.919 -0.3102  0.2207 -1.1509
11931TIP3   OH257207   4.493   3.107  14.898 -0.4748 -0.2782 -0.0015
11931TIP3    H157208   4.442   3.146  14.968 -0.8411  0.1710 -0.5074
11931TIP3    H257209   4.427   3.070  14.838 -0.1623 -0.9040  0.0311
11932TIP3   OH257210   2.711   5.146   4.104 -0.0955 -0.0237 -0.4971
11932TIP3    H157211   2.781   5.161   4.041  0.9704 -1.0459  0.3933
11932TIP3    H257212   2.723   5.214   4.170 -0.7056  0.5387 -0.9486
11933TIP3   OH257213   5.821   2.861   0.544 -0.0660  0.3767 -0.0140
11933TIP3    H157214   5.755   2.883   0.609 -0.4114  0.8047 -0.5013
11933TIP3    H257215   5.847   2.771   0.565 -0.3071  0.4435  0.5896
11934TIP3   OH257216   5.232   0.032  14.437  0.2187 -0.2075 -0.0380
11934TIP3    H157217   5.327   0.040  14.445  0.0772  1.5425  0.1046
11934TIP3    H257218   5.211   0.074  14.354 -0.6079  1.0546  0.7800
11935TIP3   OH257219   0.807   2.436   0.193 -0.5469  0.1480 -0.6060
11935TIP3    H157220   0.781   2.371   0.128 -2.8554  0.2276  0.1368
11935TIP3    H257221   0.724   2.478   0.218  0.6964  2.3824 -0.0136
11936TIP3   OH257222   6.158   4.427   3.514 -0.2235  0.3983 -0.4479
11936TIP3    H157223   6.145   4.522   3.514  2.9958  0.9454 -0.3752
11936TIP3    H257224   6.241   4.414   3.559 -0.7892 -2.5506 -0.0118
11937TIP3   OH257225   1.917   5.883  11.267  0.4600  0.5961 -0.5940
11937TIP3    H157226   1.970   5.962  11.276 -0.0980  0.9949 -0.7858
11937TIP3    H257227   1.892   5.881  11.175  0.8299 -0.0427 -0.6888
11938TIP3   OH257228   2.338   3.856   0.535  0.4160  0.3213  0.0850
11938TIP3    H157229   2.355   3.878   0.443  1.0983 -0.4436  0.0180
11938TIP3    H257230   2.383   3.924   0.585 -0.2744  0.9578 -0.1416
11939TIP3   OH257231   6.600   5.156  15.422 -0.0700  0.1377  0.0419
11939TIP3    H157232   6.562   5.096  15.487 -0.9687  0.2796 -0.3311
11939TIP3    H257233   6.597   5.107  15.340  0.7204  0.0972  0.0280
11940TIP3   OH257234   1.563   2.251  16.193 -0.0580  1.2979 -0.8869
11940TIP3    H157235   1.597   2.291  16.273  0.3281 -2.7490  1.2056
11940TIP3    H257236   1.636   2.200  16.159 -1.3762 -0.2102 -1.5589
11941TIP3   OH257237   0.503   3.712   4.063  0.0514  0.2588  0.5096
11941TIP3    H157238   0.494   3.807   4.060  1.9659  0.5472 -3.3734
11941TIP3    H257239   0.440   3.679   3.998  0.0715 -1.0591  1.1138
11942TIP3   OH257240   1.172   5.956  11.871 -0.2210  0.0533  0.0788
11942TIP3    H157241   1.195   5.868  11.841  1.4202  0.8206 -1.0276
11942TIP3    H257242   1.076   5.955  11.878 -0.1641 -2.2431  1.5519
11943TIP3   OH257243   3.538   5.271   5.163  0.1823 -0.1420  0.5875
11943TIP3    H157244   3.613   5.213   5.173  0.1416 -0.4304 -0.5555
11943TIP3    H257245   3.569   5.339   5.103 -0.8402 -1.0195 -1.0125
11944TIP3   OH257246   6.738   5.400   0.293 -0.7534 -0.5786  0.3151
11944TIP3    H157247   6.739   5.353   0.209  0.8915  0.1226 -0.1135
11944TIP3    H257248   6.804   5.355   0.345 -0.8358 -0.1923  0.7510
11945TIP3   OH257249   0.823   4.163   5.713 -0.1355 -0.1557  0.0418
11945TIP3    H157250   0.808   4.071   5.692 -0.6070  0.2731 -1.6796
11945TIP3    H257251   0.742   4.191   5.755  1.0937 -1.2173  3.3759
11946TIP3   OH257252   4.604   5.753   3.677  0.0980 -0.6631 -0.0207
11946TIP3    H157253   4.699   5.760   3.686  0.1386 -2.1701  1.1078
11946TIP3    H257254   4.571   5.754   3.767 -0.9455 -0.3103 -0.3929
11947TIP3   OH257255   0.943   2.719   3.696  0.6234  0.1491  0.6015
11947TIP3    H157256   0.994   2.795   3.725 -0.0517  0.5790  0.6770
11947TIP3    H257257   0.862   2.724   3.746  0.7189 -0.8341  0.8724
11948TIP3   OH257258   1.577   2.933   2.280 -0.0490  0.0737  0.3960
11948TIP3    H157259   1.586   2.991   2.205  1.6252  0.4443  0.8547
11948TIP3    H257260   1.561   2.846   2.242  1.2332  0.1736 -0.4215
11949TIP3   OH257261   5.601   3.266  14.685  0.3124  0.9380 -0.4084
11949TIP3    H157262   5.630   3.254  14.775 -0.5407 -0.5733 -0.3087
11949TIP3    H257263   5.599   3.178  14.648 -0.5330  1.4029 -1.5400
11950TIP3   OH257264   1.072   3.553   4.610 -0.5973 -0.6979  0.1193
11950TIP3    H157265   0.980   3.549   4.584 -0.0384 -1.6088 -1.9018
11950TIP3    H257266   1.098   3.462   4.624 -0.0085 -0.4489  0.7196
11951TIP3   OH257267   1.975   0.233  14.285  0.0004 -0.3514  0.3055
11951TIP3    H157268   1.973   0.327  14.271  0.5312  0.3033  3.7634
11951TIP3    H257269   1.885   0.204  14.271 -0.8912  1.2802  2.1870
11952TIP3   OH257270   5.916   3.388   0.621 -0.0895 -0.4315 -0.2169
11952TIP3    H157271   6.007   3.361   0.637  0.3062  1.8060  2.0046
11952TIP3    H257272   5.879   3.400   0.709 -2.1283  0.0083 -1.0833
11953TIP3   OH257273   1.436   4.444   5.875  0.3377 -0.2022  0.0428
11953TIP3    H157274   1.436   4.523   5.930  4.4283  1.4529 -1.9274
11953TIP3    H257275   1.496   4.384   5.918 -2.3377 -2.2587  1.2388
11954TIP3   OH257276   3.733   4.363  10.960 -0.8701 -0.3806  0.1935
11954TIP3    H157277   3.772   4.351  10.874 -2.5602  2.4086 -1.1109
11954TIP3    H257278   3.797   4.328  11.022  1.1423 -0.9248 -2.0881
11955TIP3   OH257279   1.444   0.521  13.715  0.1920 -0.5758  0.4654
11955TIP3    H157280   1.382   0.531  13.643 -1.7254 -0.7274  2.0171
11955TIP3    H257281   1.519   0.475  13.677 -0.7134 -0.5503 -1.4297
11956TIP3   OH257282   0.923   0.604  16.734  0.5176 -0.4030  0.2700
11956TIP3    H157283   0.907   0.683  16.683 -1.4888 -1.1680 -0.3958
11956TIP3    H257284   0.901   0.629  16.824  1.1408  0.1272  0.2838
11957TIP3   OH257285   6.782   5.077  15.097  0.1303  0.2255  0.0463
11957TIP3    H157286   6.771   5.152  15.155  0.3301  0.0988  0.2447
11957TIP3    H257287   6.724   5.010  15.133 -0.0242  0.2699 -0.1136
11958TIP3   OH257288   3.322   6.019  13.568 -0.2096 -0.2769 -0.0523
11958TIP3    H157289   3.280   6.101  13.543 -2.1944 -0.6790  1.6481
11958TIP3    H257290   3.266   5.951  13.532 -0.5318 -0.8389  1.4267
11959TIP3   OH257291   4.833   2.314   3.513 -0.0640  0.0776 -0.3203
11959TIP3    H157292   4.792   2.338   3.430  1.5739 -0.0712 -1.2184
11959TIP3    H257293   4.786   2.365   3.579 -3.7677 -2.3186 -0.7964
11960TIP3   OH257294   2.547   3.775   4.345 -0.4819  0.2329 -0.2427
11960TIP3    H157295   2.454   3.767   4.363 -0.5821  1.1048 -0.3513
11960TIP3    H257296   2.567   3.868   4.357 -0.0764  0.4745 -2.2937
11961TIP3   OH257297   6.146   2.000  12.893 -0.1161 -0.4922 -0.0032
11961TIP3    H157298   6.230   1.968  12.926 -0.9318 -1.6981  1.0371
11961TIP3    H257299   6.098   1.920  12.870 -1.9077 -0.0234  1.8219
11962TIP3   OH257300   3.306   2.313  16.544 -0.0229 -0.7111  0.2400
11962TIP3    H157301   3.330   2.404  16.559 -0.8698 -0.3799 -0.3874
11962TIP3    H257302   3.234   2.297  16.606 -0.7890 -0.5460 -0.5996
11963TIP3   OH257303   3.810   2.415   4.247 -0.4154  0.2136 -0.2198
11963TIP3    H157304   3.827   2.323   4.229  1.6161  0.5931 -0.4009
11963TIP3    H257305   3.758   2.445   4.171 -0.7377 -0.6574 -0.3526
11964TIP3   OH257306   4.139   4.198  11.975  0.0858  0.0092 -0.2022
11964TIP3    H157307   4.069   4.140  11.945 -1.5023  2.4787 -1.6120
11964TIP3    H257308   4.211   4.182  11.913 -0.2725 -0.5258 -0.4912
11965TIP3   OH257309   3.100   2.379  16.725  0.1807 -0.4148 -0.3555
11965TIP3    H157310   3.176   2.390  16.782 -0.7568 -2.0144  1.3164
11965TIP3    H257311   3.033   2.436  16.763 -0.2281 -0.9461 -0.2662
11966TIP3   OH257312   1.677   6.113  16.470 -0.4247 -0.7014 -0.0901
11966TIP3    H157313   1.616   6.175  16.508  1.0962 -0.1580  1.5819
11966TIP3    H257314   1.677   6.133  16.376 -0.9732  0.8968  0.2321
11967TIP3   OH257315   0.195   6.395  16.938  0.3968 -0.4365  0.7397
11967TIP3    H157316   0.168   6.312  16.897  1.8278 -0.5491 -0.0212
11967TIP3    H257317   0.288   6.383  16.957  0.5279  0.8604  0.9722
11968TIP3   OH257318   4.151   6.084  11.077  0.4872  0.1515  0.2058
11968TIP3    H157319   4.230   6.129  11.048 -1.5570  3.5719 -0.5683
11968TIP3    H257320   4.084   6.152  11.081 -2.8366 -2.7787 -0.5321
11969TIP3   OH257321   1.937   6.682  16.514  0.3095  0.6275  0.1148
11969TIP3    H157322   1.928   6.762  16.566  1.7741  1.2207 -0.4825
11969TIP3    H257323   1.976   6.711  16.432  0.9191 -0.7157 -0.0966
11970TIP3   OH257324   2.289   3.602   0.402 -0.7495 -0.4386 -0.0286
11970TIP3    H157325   2.229   3.641   0.339  1.0737  1.1139 -0.9090
11970TIP3    H257326   2.315   3.676   0.458  2.4949 -0.3080 -1.4885
11971TIP3   OH257327   6.300   2.574  14.204 -0.4165  0.7094  0.6608
11971TIP3    H157328   6.379   2.603  14.250 -0.4016  0.7230  0.6266
11971TIP3    H257329   6.236   2.643  14.220  0.2737  1.8818 -1.2318
11972TIP3   OH257330   1.541   2.631  12.518  0.4487 -0.0600 -0.1705
11972TIP3    H157331   1.631   2.628  12.486  0.9989  1.3690  1.0906
11972TIP3    H257332   1.538   2.710  12.573 -0.9346 -1.3164  1.6952
11973TIP3   OH257333   5.335   6.480  13.184  0.1644  0.3204  0.4105
11973TIP3    H157334   5.347   6.549  13.249 -1.6968  2.3468 -1.2304
11973TIP3    H257335   5.380   6.512  13.106  0.1795 -0.8253 -0.0674
11974TIP3   OH257336   1.098   1.964  14.497  0.3870  0.9703  0.1665
11974TIP3    H157337   1.150   2.028  14.545  2.9989 -0.3518 -0.7136
11974TIP3    H257338   1.123   1.879  14.534 -0.6806  0.2280 -0.7318
11975TIP3   OH257339   0.864   2.747  13.455 -0.3684  0.1544  0.2031
11975TIP3    H157340   0.787   2.719  13.405 -0.0112  0.6031 -0.6010
11975TIP3    H257341   0.938   2.706  13.412 -0.0939  0.1694  0.6484
11976TIP3   OH257342   3.897   5.692   0.284  0.3748  0.0100 -0.3122
11976TIP3    H157343   3.844   5.736   0.218 -2.8113 -1.0952  1.2848
11976TIP3    H257344   3.833   5.657   0.346  3.0834 -0.8851  2.1826
11977TIP3   OH257345   6.499   5.907  11.224  0.3428 -0.7440 -0.2696
11977TIP3    H157346   6.444   5.897  11.302  1.8771  0.6352  1.0561
11977TIP3    H257347   6.465   5.986  11.182  0.5346 -0.5858 -0.1256
11978TIP3   OH257348   4.528   3.177   0.236 -0.1183 -0.3532  0.3797
11978TIP3    H157349   4.604   3.187   0.293  0.5683 -0.2669 -0.5131
11978TIP3    H257350   4.535   3.250   0.174 -0.1186 -1.1491 -0.5970
11979TIP3   OH257351   1.134   5.688  14.632  0.1095 -0.3161  0.0186
11979TIP3    H157352   1.225   5.683  14.603  0.6671  2.4625  0.9567
11979TIP3    H257353   1.084   5.709  14.553  0.6886  0.6906 -0.1023
11980TIP3   OH257354   6.010   2.435  11.339  0.1030  0.1441 -0.3137
11980TIP3    H157355   5.983   2.362  11.283 -1.3199  0.4865 -0.1114
11980TIP3    H257356   6.047   2.500  11.279  0.0791 -0.1627 -0.6607
11981TIP3   OH257357   6.306   5.562  11.184  0.1815  0.7363  0.1755
11981TIP3    H157358   6.281   5.530  11.097 -0.9231  0.5496  0.5426
11981TIP3    H257359   6.291   5.487  11.242  2.0668  0.4712  0.3747
11982TIP3   OH257360   4.192   1.415   4.466 -0.3334 -0.2601 -0.3183
11982TIP3    H157361   4.106   1.389   4.433 -0.6218 -1.4168  1.2128
11982TIP3    H257362   4.173   1.474   4.539  0.0935 -1.0813  0.4948
11983TIP3   OH257363   4.805   3.015   0.086 -0.0721  0.1984  0.0521
11983TIP3    H157364   4.804   3.104   0.050 -0.1996 -0.2205 -1.0187
11983TIP3    H257365   4.896   3.000   0.111  0.1328  0.3092 -0.6077
11984TIP3   OH257366   2.131   1.612   1.961  0.1547 -0.1339 -0.0056
11984TIP3    H157367   2.052   1.561   1.942 -0.9969  1.4317  0.4110
11984TIP3    H257368   2.124   1.633   2.054  0.7121  0.6339 -0.1260
11985TIP3   OH257369   3.816   1.405   4.832  0.0674 -0.0829 -0.0197
11985TIP3    H157370   3.803   1.485   4.782  0.1960  0.1206  0.2661
11985TIP3    H257371   3.901   1.418   4.875 -0.6833  0.3670  1.3980
11986TIP3   OH257372   0.236   2.027  11.706 -0.1342 -0.2141  0.2508
11986TIP3    H157373   0.275   1.946  11.671  1.6277 -0.4151  2.4937
11986TIP3    H257374   0.167   1.997  11.765 -0.3377 -0.0133  0.1183
11987TIP3   OH257375   5.173   0.011  10.260 -0.6901 -0.0679 -0.4921
11987TIP3    H157376   5.128  -0.067  10.292  1.1417 -1.4038 -1.0165
11987TIP3    H257377   5.136   0.083  10.311 -2.2359 -1.2888  0.2009
11988TIP3   OH257378   5.841   2.132  12.505  0.5824  0.2478 -0.4986
11988TIP3    H157379   5.811   2.216  12.539  2.1413  1.4258 -1.8721
11988TIP3    H257380   5.763   2.094  12.463  0.1248  1.5746 -0.9072
11989TIP3   OH257381   5.477   0.144   2.834  0.0670 -0.2065 -0.4161
11989TIP3    H157382   5.436   0.195   2.903  0.9042  0.0918 -0.1351
11989TIP3    H257383   5.466   0.197   2.755 -0.4846 -0.3391 -0.4321
11990TIP3   OH257384   2.270   5.759  13.110  0.3493  0.2101 -0.6161
11990TIP3    H157385   2.205   5.819  13.149  1.6659  0.4403  1.4110
11990TIP3    H257386   2.267   5.681  13.165 -0.3749 -1.0921 -2.4119
11991TIP3   OH257387   3.647   3.977  11.437 -0.0648  0.0311  0.0584
11991TIP3    H157388   3.724   3.989  11.492 -0.6420 -0.5230  1.0121
11991TIP3    H257389   3.649   3.884  11.413 -0.5237 -0.0230  0.2298
11992TIP3   OH257390   2.208   0.039  10.483 -0.0630 -0.4842  0.1054
11992TIP3    H157391   2.273  -0.003  10.426 -0.1047 -1.6787  0.8973
11992TIP3    H257392   2.212   0.132  10.460  1.7262 -0.5699 -0.0674
11993TIP3   OH257393   6.125   3.058   2.949 -0.3480 -0.2811  0.5889
11993TIP3    H157394   6.100   2.990   3.011 -0.1780  0.2110  1.2102
11993TIP3    H257395   6.206   3.026   2.909  0.7509  0.3330  2.1959
11994TIP3   OH257396   6.600   1.614   3.673  0.1585 -0.2665 -0.3807
11994TIP3    H157397   6.679   1.568   3.700  0.6908  0.2677 -0.9952
11994TIP3    H257398   6.528   1.561   3.708  0.7296 -1.7285 -1.3360
11995TIP3   OH257399   1.438   1.143  12.893 -0.3410  0.0481 -0.0285
11995TIP3    H157400   1.403   1.232  12.882 -1.7822 -0.4019  0.6449
11995TIP3    H257401   1.465   1.139  12.985  2.1714  0.5725 -0.6579
11996TIP3   OH257402   0.313   3.425   1.527 -0.4708 -0.1406 -0.4599
11996TIP3    H157403   0.336   3.369   1.453 -2.6239  0.3781 -1.6147
11996TIP3    H257404   0.395   3.467   1.552  0.5304 -1.2347 -1.7563
11997TIP3   OH257405   3.631   5.670   1.814 -0.5442  0.4061 -0.5140
11997TIP3    H157406   3.695   5.652   1.745 -2.8808 -1.8253 -2.3120
11997TIP3    H257407   3.578   5.742   1.778  0.6387  1.9983  0.8044
11998TIP3   OH257408   1.235   4.859  16.906 -0.2643 -0.1311 -0.0688
11998TIP3    H157409   1.159   4.906  16.941 -0.0908  0.5125 -0.5403
11998TIP3    H257410   1.240   4.779  16.959 -2.8053 -1.4820 -1.6485
11999TIP3   OH257411   2.067   0.299   0.792  0.1117 -0.5831  0.1814
11999TIP3    H157412   2.002   0.366   0.813  2.1845  2.1467 -1.3860
11999TIP3    H257413   2.029   0.252   0.717 -0.7920 -0.2086  0.3953
12000TIP3   OH257414   4.782   4.614   1.408  0.5648  0.2760 -0.3025
12000TIP3    H157415   4.868   4.572   1.407  0.0546 -0.8136  0.3501
12000TIP3    H257416   4.759   4.621   1.500 -1.7697 -3.1357 -0.4558
12001TIP3   OH257417   3.770   2.039  15.320  0.1693 -0.1736  0.0628
12001TIP3    H157418   3.799   1.950  15.299  2.4207 -0.5487  3.7663
12001TIP3    H257419   3.848   2.081  15.357 -1.5083  2.4446  0.8965
12002TIP3   OH257420   1.601   6.568   1.797  0.2081 -0.5116  0.0223
12002TIP3    H157421   1.622   6.549   1.706  0.4439  2.5526 -0.6762
12002TIP3    H257422   1.516   6.613   1.793  0.7650  0.7229  1.1193
12003TIP3   OH257423   2.455   4.300  13.312 -0.0405  0.3841  0.3079
12003TIP3    H157424   2.371   4.327  13.275 -0.1860 -0.8779 -0.3399
12003TIP3    H257425   2.442   4.303  13.406 -0.7969  0.2583  0.2150
12004TIP3   OH257426   5.648   0.710   2.103 -0.1355 -0.7407  0.0204
12004TIP3    H157427   5.592   0.781   2.071  0.7468  0.0421  0.1670
12004TIP3    H257428   5.594   0.632   2.095 -0.8509 -0.1783 -0.9143
12005TIP3   OH257429   3.099   6.176  11.231  0.5346  0.4279 -0.0903
12005TIP3    H157430   3.158   6.229  11.285  0.4556  0.7834 -0.3491
12005TIP3    H257431   3.062   6.111  11.292  0.6914  0.6207  0.2120
12006TIP3   OH257432   5.751   1.066   3.243 -0.2880 -0.3908  0.7340
12006TIP3    H157433   5.744   1.143   3.186 -3.4388 -0.8348  0.3610
12006TIP3    H257434   5.773   0.994   3.184  2.5254  0.0695  1.0648
12007TIP3   OH257435   3.948   1.679   1.444 -0.1685 -0.4706  0.6431
12007TIP3    H157436   3.868   1.732   1.443 -0.1384 -0.4116  1.0016
12007TIP3    H257437   3.960   1.656   1.537  0.0595 -0.7369  0.5497
12008TIP3   OH257438   2.135   6.431   2.795 -0.1974 -0.2835  0.3441
12008TIP3    H157439   2.089   6.347   2.805 -0.7518 -0.0588 -0.2312
12008TIP3    H257440   2.219   6.408   2.755 -0.8249 -0.4645 -0.9200
12009TIP3   OH257441   1.703   2.921  14.753 -0.7292 -0.2846 -0.3595
12009TIP3    H157442   1.760   2.945  14.826  0.2144  0.1634 -1.2318
12009TIP3    H257443   1.615   2.920  14.791 -0.3201  0.4984  0.6496
12010TIP3   OH257444   1.573   4.393  17.056 -0.3488  0.3580 -0.2727
12010TIP3    H157445   1.480   4.412  17.063 -0.3416  0.4947 -0.5283
12010TIP3    H257446   1.615   4.460  17.111 -0.4208  0.0687  0.1389
12011TIP3   OH257447   3.272   1.746   0.311  0.2720  0.5189 -0.2259
12011TIP3    H157448   3.347   1.711   0.263  0.3614 -1.7118  1.3771
12011TIP3    H257449   3.310   1.790   0.387  0.0132  1.0661 -0.4091
12012TIP3   OH257450   1.973   1.386   2.290  0.4500 -0.4919 -0.2015
12012TIP3    H157451   2.057   1.424   2.314  0.1538  0.6345 -0.8129
12012TIP3    H257452   1.932   1.361   2.373 -0.1391  2.3573  0.4790
12013TIP3   OH257453   6.772   3.042  10.951  0.1052  0.4535 -0.3202
12013TIP3    H157454   6.725   2.961  10.969  1.3230  0.0260  1.1444
12013TIP3    H257455   6.811   3.067  11.035  2.7827  0.5378 -1.4640
12014TIP3   OH257456   6.404   6.205   0.451 -0.1645 -0.9340 -0.0732
12014TIP3    H157457   6.322   6.158   0.467 -0.9908  0.3515 -0.3810
12014TIP3    H257458   6.382   6.297   0.467  1.2867 -0.5938  0.0586
12015TIP3   OH257459   3.728   5.976  14.715 -0.1372  0.5602 -0.0581
12015TIP3    H157460   3.789   5.917  14.759 -0.1527  0.5450 -0.0567
12015TIP3    H257461   3.757   6.063  14.740  2.8507  0.8661 -3.7477
12016TIP3   OH257462   3.027   0.264  14.152 -0.4136 -0.1348  0.3922
12016TIP3    H157463   3.096   0.217  14.106 -0.8641 -1.0963  0.6690
12016TIP3    H257464   2.973   0.303  14.083  0.1634  0.2802  0.1677
12017TIP3   OH257465   2.067   1.310   1.549  0.1776 -0.2379  0.6261
12017TIP3    H157466   2.126   1.235   1.557  0.1520 -0.3885 -0.4207
12017TIP3    H257467   1.980   1.270   1.536 -0.0123 -0.0235  1.2370
12018TIP3   OH257468   1.234   2.155   5.285 -0.0281  0.1749 -0.3575
12018TIP3    H157469   1.173   2.115   5.223 -0.2553 -0.0185 -0.0131
12018TIP3    H257470   1.318   2.116   5.264 -0.1618 -0.1232 -0.3426
12019TIP3   OH257471   4.407   0.416  14.016  0.0588  0.1943 -0.1094
12019TIP3    H157472   4.376   0.474  14.086  1.5337  0.1447  0.6224
12019TIP3    H257473   4.339   0.422  13.949 -1.6664 -0.1729  1.5212
12020TIP3   OH257474   1.878   1.314  14.350  0.4483 -0.2155  0.0836
12020TIP3    H157475   1.923   1.370  14.288  0.3080 -0.0491  0.1293
12020TIP3    H257476   1.823   1.257  14.296  0.0820  0.1440  0.0652
12021TIP3   OH257477   4.616   4.276   1.693  0.0561  0.4327 -0.0631
12021TIP3    H157478   4.669   4.209   1.735 -1.6268 -1.3800 -0.6380
12021TIP3    H257479   4.670   4.354   1.693  1.3951 -0.4031  2.3600
12022TIP3   OH257480   6.309   0.596   4.037  0.2085 -0.1086  0.4518
12022TIP3    H157481   6.234   0.587   3.977  1.7145  0.6411 -1.6424
12022TIP3    H257482   6.357   0.671   4.004  3.4394 -2.2117 -0.0787
12023TIP3   OH257483   5.895   0.773   1.473 -0.1302 -0.1854  0.4507
12023TIP3    H157484   5.850   0.797   1.554 -1.7316 -0.3996 -0.3206
12023TIP3    H257485   5.883   0.849   1.416  1.8025  0.3466  0.6972
12024TIP3   OH257486   4.505   0.192   0.206  0.5072 -0.3067  0.0076
12024TIP3    H157487   4.452   0.116   0.180  0.2044 -0.3268  0.6415
12024TIP3    H257488   4.539   0.227   0.124  0.2481 -0.8371 -0.3369
12025TIP3   OH257489   2.029   5.593  12.244  0.6191  0.4892  0.4110
12025TIP3    H157490   1.969   5.528  12.205  1.9613 -1.0066  0.7200
12025TIP3    H257491   2.039   5.563  12.334  3.4682 -0.6231 -0.1693
12026TIP3   OH257492   4.487   1.498  11.713  0.6673  0.0061  0.1251
12026TIP3    H157493   4.512   1.491  11.621  1.2233  1.5337  0.1354
12026TIP3    H257494   4.487   1.592  11.731 -1.5638 -0.1123  1.1146
12027TIP3   OH257495   2.360   4.940  17.021  0.0474 -0.5324 -0.2841
12027TIP3    H157496   2.415   4.942  16.943  0.2079 -0.1940 -0.1616
12027TIP3    H257497   2.355   5.031  17.050 -0.2003 -0.6250 -0.0313
12028TIP3   OH257498   5.044   5.417   4.248 -0.0667 -0.2079  0.5676
12028TIP3    H157499   5.049   5.364   4.168  0.1735 -0.6906  0.8963
12028TIP3    H257500   5.086   5.363   4.315  1.5312  1.0064  0.6042
12029TIP3   OH257501   3.362   5.188   6.426  0.2076 -0.6809  0.2640
12029TIP3    H157502   3.367   5.260   6.489 -1.5073  0.1960 -0.5494
12029TIP3    H257503   3.453   5.157   6.418  0.8506  0.8221  1.2691
12030TIP3   OH257504   4.050   6.561  14.944  0.1247  0.1808 -0.0610
12030TIP3    H157505   4.142   6.548  14.969 -0.0275  0.3161  0.5903
12030TIP3    H257506   4.044   6.654  14.925  0.5203 -0.1253 -1.8197
12031TIP3   OH257507   2.551   3.176   0.773  0.2051 -0.6296 -0.4768
12031TIP3    H157508   2.620   3.123   0.813  0.5727 -0.4742 -0.8948
12031TIP3    H257509   2.598   3.235   0.714 -0.1315  0.5942  0.4318
12032TIP3   OH257510   2.469   3.184   4.989  0.3558 -0.6223 -0.5187
12032TIP3    H157511   2.435   3.165   4.901 -1.2077  0.0338 -0.1005
12032TIP3    H257512   2.412   3.135   5.048 -0.7060  1.4279  0.2854
12033TIP3   OH257513   5.371   5.413  14.748 -0.2789 -0.1526 -0.0781
12033TIP3    H157514   5.288   5.392  14.790  0.1207  1.5030  1.6767
12033TIP3    H257515   5.423   5.455  14.817  1.8296 -0.6718 -1.2640
12034TIP3   OH257516   2.805   1.598   6.518 -0.3408 -0.2468  0.5313
12034TIP3    H157517   2.726   1.626   6.566  1.2888  4.5839  0.9533
12034TIP3    H257518   2.868   1.579   6.587 -0.6932 -3.1529  0.1752
12035TIP3   OH257519   5.746   6.019   5.726 -0.2307  0.1490  0.1644
12035TIP3    H157520   5.737   6.106   5.765  1.0386  0.6908 -0.6548
12035TIP3    H257521   5.787   5.966   5.795  0.4138  0.6335  0.1693
12036TIP3   OH257522   0.281   4.825  15.838 -0.0558  0.2494  0.0754
12036TIP3    H157523   0.246   4.914  15.837  1.2473  0.7820  0.7310
12036TIP3    H257524   0.375   4.835  15.821 -0.1570 -1.1483 -1.6562
12037TIP3   OH257525   0.679   0.177   3.159  0.5423  0.8221 -0.0244
12037TIP3    H157526   0.681   0.132   3.074  6.2025 -0.2910  0.2853
12037TIP3    H257527   0.668   0.269   3.137 -0.9103  0.3175 -1.6300
12038TIP3   OH257528   5.925   1.766  16.921 -0.2026 -0.7004  0.8071
12038TIP3    H157529   6.006   1.717  16.912  1.3536  1.7489  0.4672
12038TIP3    H257530   5.905   1.796  16.832 -0.8084 -0.2778  1.0738
12039TIP3   OH257531   6.132   4.647   4.717 -0.4802 -0.6963 -0.0451
12039TIP3    H157532   6.045   4.654   4.677 -1.2152  1.7046  1.6981
12039TIP3    H257533   6.117   4.599   4.799 -0.2215 -0.0687  0.3756
12040TIP3   OH257534   0.126   4.189   5.724 -0.3949 -0.5854  0.2157
12040TIP3    H157535   0.102   4.148   5.642 -0.5485 -0.0467 -0.0147
12040TIP3    H257536   0.080   4.273   5.724 -0.1397 -0.4367  0.7008
12041TIP3   OH257537   2.403   1.677   5.808 -0.4483  0.0528 -0.2265
12041TIP3    H157538   2.313   1.686   5.838 -0.2324  1.6612  0.0447
12041TIP3    H257539   2.438   1.603   5.857 -1.1816  0.3545  0.7768
12042TIP3   OH257540   6.318   2.269   1.551 -0.5287  0.0464  0.4414
12042TIP3    H157541   6.344   2.339   1.491  0.4139  0.0030  0.7777
12042TIP3    H257542   6.335   2.305   1.638 -0.3261 -0.4797  0.6259
12043TIP3   OH257543   6.752   1.402   3.365  0.9867 -0.4922  0.4482
12043TIP3    H157544   6.672   1.451   3.345 -0.3285 -1.8137  2.0857
12043TIP3    H257545   6.819   1.470   3.379 -0.3482  0.7769  1.0114
12044TIP3   OH257546   5.134   0.093  16.444  0.1247  0.7260 -0.6051
12044TIP3    H157547   5.162   0.050  16.525  2.0153  0.8734 -1.1173
12044TIP3    H257548   5.075   0.031  16.402  0.2124  0.0602  0.2330
12045TIP3   OH257549   0.361   4.723  13.145  0.4606 -0.2933 -0.4461
12045TIP3    H157550   0.290   4.701  13.205  1.3168 -0.3080  0.6071
12045TIP3    H257551   0.329   4.797  13.095  0.2804  0.7480  1.1418
12046TIP3   OH257552   5.232   3.380  13.909 -0.3204  0.7922 -0.4832
12046TIP3    H157553   5.197   3.408  13.825 -1.5201 -0.0013 -0.2804
12046TIP3    H257554   5.168   3.410  13.974 -0.2105  0.0632 -0.0166
12047TIP3   OH257555   5.015   4.977   6.753 -0.6453 -0.2818 -0.6644
12047TIP3    H157556   4.985   5.035   6.824 -0.7325 -1.0735 -0.0488
12047TIP3    H257557   5.059   5.036   6.692 -2.1452  0.7018 -0.8688
12048TIP3   OH257558   4.995   0.633  13.435  0.0278  0.2907 -0.2194
12048TIP3    H157559   4.902   0.616  13.450 -0.0064  0.8978  0.3002
12048TIP3    H257560   5.030   0.549  13.403 -0.2508 -0.6142  1.6710
12049TIP3   OH257561   2.277   5.501   4.623  0.2591  0.0442  0.2148
12049TIP3    H157562   2.207   5.446   4.659  0.5939  1.1602  2.8240
12049TIP3    H257563   2.233   5.584   4.603  0.6480  0.4957  1.1552
12050TIP3   OH257564   2.752   1.004   6.060  0.3722  0.3660  0.6807
12050TIP3    H157565   2.693   1.048   6.121 -2.0954 -1.3463 -0.3271
12050TIP3    H257566   2.715   1.021   5.974  0.7823 -1.5556  0.0802
12051TIP3   OH257567   0.324   5.756  13.090  0.0351  0.1887 -0.3667
12051TIP3    H157568   0.308   5.667  13.057 -2.0456  0.3650  0.0776
12051TIP3    H257569   0.413   5.752  13.126  0.6833 -1.2026 -1.9461
12052TIP3   OH257570   1.895   5.909   1.744 -0.5577 -0.2249 -0.7864
12052TIP3    H157571   1.938   5.856   1.677 -1.7440 -2.5767  0.1767
12052TIP3    H257572   1.899   5.855   1.823 -0.4729  1.8371  0.6841
12053TIP3   OH257573   0.055   0.036   0.947  0.0418  0.1057 -0.4747
12053TIP3    H157574   0.135   0.039   0.999  0.0101  1.2118 -0.4802
12053TIP3    H257575   0.048  -0.056   0.920  0.5455 -0.2940  0.6889
12054TIP3   OH257576   2.385   1.224  15.330  0.3783  0.1101  0.5169
12054TIP3    H157577   2.385   1.318  15.317 -1.8396  0.3135  1.5008
12054TIP3    H257578   2.442   1.190  15.261  0.4065  2.0882 -0.4993
12055TIP3   OH257579   0.310   0.833  15.562  0.4208  0.2723 -0.4985
12055TIP3    H157580   0.265   0.749  15.551  0.5250 -0.0411  1.1613
12055TIP3    H257581   0.403   0.810  15.568  0.3687  0.3502  1.0161
12056TIP3   OH257582   5.698   5.853  16.808  0.1018  0.2645 -0.4853
12056TIP3    H157583   5.635   5.796  16.764  0.9021  0.5820 -2.1235
12056TIP3    H257584   5.783   5.811  16.793  0.7053  1.8204 -1.6908
12057TIP3   OH257585   0.117   3.391   0.111 -0.1087 -0.0681 -0.1792
12057TIP3    H157586   0.115   3.382   0.207  0.1707  0.5395 -0.1176
12057TIP3    H257587   0.132   3.484   0.096  2.5225 -0.5265 -0.7954
12058TIP3   OH257588   1.354   6.350   5.797 -0.1667  0.4294 -0.2904
12058TIP3    H157589   1.315   6.425   5.753 -1.3091  0.5087  0.8112
12058TIP3    H257590   1.289   6.280   5.787 -0.5225  0.4872  1.3523
12059TIP3   OH257591   4.774   1.767  11.901 -0.5561 -0.1391  0.1233
12059TIP3    H157592   4.723   1.687  11.915 -2.5692  1.2611  1.2144
12059TIP3    H257593   4.769   1.782  11.806 -0.7911 -0.8922  0.0099
12060TIP3   OH257594   6.153   0.896   3.852  0.0187  0.2295 -0.2419
12060TIP3    H157595   6.232   0.845   3.870 -0.0977 -0.1941 -0.8839
12060TIP3    H257596   6.166   0.929   3.763 -0.4408  0.3163 -0.2792
12061TIP3   OH257597   2.321   5.577  17.207 -0.2993 -0.0731  0.2020
12061TIP3    H157598   2.293   5.569  17.299  0.5937 -1.4714  0.3859
12061TIP3    H257599   2.240   5.569  17.157 -0.6387 -0.8547  0.8357
12062TIP3   OH257600   2.625   0.326   3.137  0.1314 -0.3308  0.2613
12062TIP3    H157601   2.689   0.362   3.199  1.0095  0.2311 -0.9471
12062TIP3    H257602   2.630   0.231   3.150  0.7189 -0.2514  0.6554
12063TIP3   OH257603   2.096   1.504  12.309 -0.4057  0.2984  0.1270
12063TIP3    H157604   2.072   1.577  12.365 -2.3237 -0.5979  0.5543
12063TIP3    H257605   2.024   1.496  12.247  1.4023  0.9255 -2.2234
12064TIP3   OH257606   0.628   0.291   1.779 -0.2240 -0.2320 -0.1262
12064TIP3    H157607   0.588   0.314   1.863 -0.5995  1.0292 -0.6173
12064TIP3    H257608   0.562   0.314   1.714  1.3851  2.4206 -1.0021
12065TIP3   OH257609   6.702   0.216  12.041 -0.1187 -0.4365  0.3479
12065TIP3    H157610   6.640   0.285  12.015 -2.1956 -1.3016  2.6023
12065TIP3    H257611   6.785   0.262  12.053 -1.2756  1.6001  1.1582
12066TIP3   OH257612   6.170   4.194   2.340 -0.2384  0.0761 -0.0058
12066TIP3    H157613   6.191   4.265   2.280  0.4644  0.2990  0.4826
12066TIP3    H257614   6.081   4.213   2.369 -0.2595  0.4515 -0.3021
12067TIP3   OH257615   5.104   0.402  14.286  0.1296  0.2788  0.3099
12067TIP3    H157616   5.122   0.417  14.194  1.2296 -1.0558  0.2754
12067TIP3    H257617   5.069   0.485  14.318 -0.5385  0.6737 -1.3583
12068TIP3   OH257618   2.761   6.072   3.694  0.2255 -0.1477  0.1694
12068TIP3    H157619   2.798   6.101   3.611  0.6929 -0.6369  0.2048
12068TIP3    H257620   2.745   5.978   3.682  0.8395 -0.3452  0.8185
12069TIP3   OH257621   5.240   0.363   5.653 -0.4902  0.5604  0.1982
12069TIP3    H157622   5.212   0.447   5.689 -0.9671 -0.0513  1.3070
12069TIP3    H257623   5.298   0.326   5.720 -1.2215 -0.5054  0.2740
12070TIP3   OH257624   5.811   5.470   1.538 -0.5703  0.1017 -0.1257
12070TIP3    H157625   5.730   5.515   1.513 -1.9545 -1.0028  2.1285
12070TIP3    H257626   5.809   5.388   1.489 -1.4847 -0.4753  0.8382
12071TIP3   OH257627   3.711   1.812  13.999 -0.2552 -0.4376  0.1388
12071TIP3    H157628   3.690   1.785  13.910 -1.7967  0.3027  0.2421
12071TIP3    H257629   3.719   1.731  14.049 -2.6893 -0.8425  0.0032
12072TIP3   OH257630   5.366   5.431   0.254 -0.1212  0.0776  0.5271
12072TIP3    H157631   5.360   5.349   0.304 -1.2214  0.4089  0.9675
12072TIP3    H257632   5.283   5.437   0.209 -0.1738  1.1124  0.7433
12073TIP3   OH257633   5.148   3.797  15.844  0.0254 -0.9967 -0.5988
12073TIP3    H157634   5.162   3.718  15.897  3.0292  0.1536  0.5771
12073TIP3    H257635   5.193   3.779  15.762 -0.0951 -0.8470 -0.6978
12074TIP3   OH257636   0.908   1.736  15.818  0.6128  0.4312 -0.1450
12074TIP3    H157637   0.858   1.792  15.877  2.1278  0.6710  0.9576
12074TIP3    H257638   0.948   1.670  15.875 -1.7937 -2.4019 -1.4683
12075TIP3   OH257639   5.218   2.768  13.668 -0.5348  0.3528  0.3223
12075TIP3    H157640   5.291   2.744  13.724 -0.7921  0.2492  0.6183
12075TIP3    H257641   5.141   2.728  13.710 -0.4610 -1.6897 -1.3077
12076TIP3   OH257642   1.603   5.851   1.404  0.6438  0.1784 -0.4793
12076TIP3    H157643   1.512   5.843   1.376  0.9880 -2.2244 -1.1544
12076TIP3    H257644   1.620   5.945   1.404 -1.2165  0.5852 -2.3393
12077TIP3   OH257645   4.304   5.139  16.342  0.6411 -0.1606  0.6409
12077TIP3    H157646   4.340   5.130  16.253 -2.1833 -1.0474 -0.5582
12077TIP3    H257647   4.322   5.229  16.366  1.2317  0.1997 -0.9736
12078TIP3   OH257648   3.605   2.049   4.013  0.5415  0.0269  0.2800
12078TIP3    H157649   3.666   2.114   3.979  0.0479 -0.5235 -1.7775
12078TIP3    H257650   3.574   2.002   3.936 -3.4028  1.0654  1.0183
12079TIP3   OH257651   2.662   4.888   1.821 -0.0584 -0.2506  0.5891
12079TIP3    H157652   2.585   4.943   1.835 -1.3521 -1.1303 -2.2725
12079TIP3    H257653   2.650   4.815   1.882 -0.5877  0.4902  1.3902
12080TIP3   OH257654   3.935   5.095  13.007 -0.3102 -0.0707  0.6956
12080TIP3    H157655   4.027   5.069  13.011 -0.3871 -0.5181 -0.1218
12080TIP3    H257656   3.928   5.149  12.929 -0.7099  0.1059  0.8495
12081TIP3   OH257657   1.092   3.739  17.059 -0.1422 -0.1709 -0.1044
12081TIP3    H157658   1.177   3.723  17.100  0.4350  0.2707 -1.0914
12081TIP3    H257659   1.029   3.697  17.117  0.5809  0.9078  1.5196
12082TIP3   OH257660   5.209   4.672  12.201  0.6084 -0.6476  0.0949
12082TIP3    H157661   5.236   4.693  12.290  1.3472  0.2873 -0.3268
12082TIP3    H257662   5.284   4.628  12.163  0.7559  0.0290 -0.4227
12083TIP3   OH257663   3.419   3.832  13.540  0.0150 -0.3376  0.1779
12083TIP3    H157664   3.360   3.809  13.612  1.4477  1.2843  1.9769
12083TIP3    H257665   3.499   3.784  13.559  0.9066  1.2358  0.5442
12084TIP3   OH257666   0.904   4.227  14.020  0.0280  0.3287 -0.5117
12084TIP3    H157667   0.845   4.297  13.992  0.8857  0.8351 -1.0977
12084TIP3    H257668   0.862   4.191  14.098  0.3258  2.5259  0.7468
12085TIP3   OH257669   5.064   6.439  15.355 -0.1350  0.3072  0.0648
12085TIP3    H157670   5.153   6.406  15.338  0.0286  0.7227  0.1065
12085TIP3    H257671   5.075   6.502  15.426 -0.2585  1.3340 -0.8012
12086TIP3   OH257672   3.850   5.744  14.833  0.2111  0.0139  0.5241
12086TIP3    H157673   3.926   5.699  14.795  0.1831 -0.0338  0.5240
12086TIP3    H257674   3.777   5.683  14.819  0.3435 -0.3488  1.3572
12087TIP3   OH257675   6.727   6.596   3.176  0.7763 -0.6000  0.0722
12087TIP3    H157676   6.679   6.667   3.134 -0.7271 -0.3608  2.0754
12087TIP3    H257677   6.660   6.534   3.203  1.6027 -0.5121  2.5097
12088TIP3   OH257678   0.930   5.170   0.095  0.2275 -0.1561 -0.3149
12088TIP3    H157679   0.918   5.210   0.181 -0.3720  2.0536 -1.3508
12088TIP3    H257680   0.877   5.090   0.098  2.2687 -1.5524  2.1845
12089TIP3   OH257681   0.790   0.730  13.839  0.5866 -0.0072 -0.1453
12089TIP3    H157682   0.821   0.661  13.780  1.2391 -0.4448  0.6967
12089TIP3    H257683   0.719   0.689  13.888  1.4630 -0.3334  0.8813
12090TIP3   OH257684   3.578   5.922  12.384 -0.0195 -0.1139 -0.4374
12090TIP3    H157685   3.648   5.987  12.378  0.1000 -0.0741  1.0104
12090TIP3    H257686   3.528   5.947  12.461  0.6042 -2.2442  0.7473
12091TIP3   OH257687   5.676   1.912  14.400  0.0569 -0.2713  0.5984
12091TIP3    H157688   5.641   1.991  14.442  2.3975  1.2120 -0.0861
12091TIP3    H257689   5.770   1.914  14.417  0.5915 -1.4517 -1.7303
12092TIP3   OH257690   6.040   3.570  11.155  0.0256 -0.3720 -0.2653
12092TIP3    H157691   5.970   3.565  11.220  0.6452  2.3197  0.7580
12092TIP3    H257692   6.006   3.629  11.087  0.7920 -0.0527 -0.3885
12093TIP3   OH257693   3.787   1.068  16.511 -0.0469 -0.0521 -1.2301
12093TIP3    H157694   3.733   0.991  16.494  3.3316 -2.9202 -0.1651
12093TIP3    H257695   3.752   1.105  16.592  0.2158 -2.5656  0.1321
12094TIP3   OH257696   1.655   1.688   3.670 -0.2982  0.5069  0.1930
12094TIP3    H157697   1.651   1.782   3.651  1.2875  0.2647 -1.6899
12094TIP3    H257698   1.663   1.646   3.584  0.4119 -1.2367  1.0543
12095TIP3   OH257699   1.324   3.223   4.719  0.3231  0.0272 -0.5430
12095TIP3    H157700   1.403   3.180   4.686 -0.4513 -2.0317  0.1972
12095TIP3    H257701   1.329   3.213   4.814 -1.2807 -0.9730 -0.5419
12096TIP3   OH257702   4.541   5.519  12.432 -0.7433  1.0709 -0.0121
12096TIP3    H157703   4.488   5.526  12.512  0.0961  1.2769  0.5373
12096TIP3    H257704   4.619   5.470  12.459 -1.2506 -0.4257 -1.1309
12097TIP3   OH257705   1.852   0.856  11.113  0.2925  0.3859 -0.3351
12097TIP3    H157706   1.877   0.826  11.026  0.9316 -0.3164  0.0789
12097TIP3    H257707   1.779   0.916  11.098 -0.2221 -0.4541 -1.2684
12098TIP3   OH257708   0.965   1.034  11.896  0.1992  0.1216  0.5413
12098TIP3    H157709   1.016   0.973  11.949 -0.3349 -0.7990  0.0140
12098TIP3    H257710   0.968   1.116  11.946  1.2693 -0.2075  1.0547
12099TIP3   OH257711   0.423   6.652   3.733  0.4532 -0.1230  0.1417
12099TIP3    H157712   0.435   6.579   3.794  2.4735  0.1770  0.1919
12099TIP3    H257713   0.329   6.660   3.722  0.1434 -1.7647  1.3145
12100TIP3   OH257714   5.460   5.017   6.458  0.5323  0.4143 -0.1914
12100TIP3    H157715   5.452   5.063   6.374 -0.4964  0.6996  0.0444
12100TIP3    H257716   5.494   5.083   6.518  0.5679  0.4208 -0.2186
12101TIP3   OH257717   3.804   1.001  15.804  0.0478 -0.2414  0.8355
12101TIP3    H157718   3.736   1.010  15.738  0.8632 -1.3685 -0.2237
12101TIP3    H257719   3.833   1.091  15.821  0.0797  0.0651 -0.6492
12102TIP3   OH257720   6.005   4.780  13.446 -0.3496 -0.1709 -0.2597
12102TIP3    H157721   6.082   4.760  13.393 -1.2240 -2.1796 -0.8728
12102TIP3    H257722   6.028   4.750  13.534  0.1448  0.7550 -0.0615
12103TIP3   OH257723   0.514   4.352  16.645  0.3145 -0.2651 -0.1172
12103TIP3    H157724   0.477   4.265  16.629 -1.7928  0.6299 -0.3757
12103TIP3    H257725   0.595   4.335  16.693 -0.2581 -2.3428  0.1989
12104TIP3   OH257726   1.929   1.914  14.572 -0.4349 -0.0631 -0.2804
12104TIP3    H157727   1.975   1.979  14.520  1.9224 -1.0836  0.3882
12104TIP3    H257728   1.941   1.832  14.524 -1.2014 -0.4399  0.1437
12105TIP3   OH257729   2.007   6.759  13.907  0.5504  0.3668  0.3177
12105TIP3    H157730   1.937   6.782  13.846 -0.8724  0.1437  1.8187
12105TIP3    H257731   2.047   6.681  13.868  0.6867  1.1232 -1.1016
12106TIP3   OH257732   6.498   4.136   5.390  0.1443 -0.4424  0.4599
12106TIP3    H157733   6.436   4.080   5.436  0.6059 -0.4117  1.1364
12106TIP3    H257734   6.581   4.123   5.437  0.6057 -0.3354 -0.3051
12107TIP3   OH257735   4.137   3.898   1.777 -0.2492  0.2728  0.1636
12107TIP3    H157736   4.154   3.938   1.692  1.5147  0.2913  0.4885
12107TIP3    H257737   4.054   3.937   1.806 -0.7195  0.4873 -1.3875
12108TIP3   OH257738   0.580   4.695  13.925  0.4284  0.5770 -0.1002
12108TIP3    H157739   0.662   4.715  13.970  0.7962  1.3573 -1.0752
12108TIP3    H257740   0.573   4.763  13.858 -1.1062  0.6192  0.0778
12109TIP3   OH257741   0.555   2.245  11.915 -0.1105  0.0502 -0.0559
12109TIP3    H157742   0.560   2.274  12.006 -1.9180 -0.4588  0.2454
12109TIP3    H257743   0.518   2.320  11.869  1.4545  0.5648 -0.5452
12110TIP3   OH257744   5.253   6.103  13.828 -0.1478  0.0240 -0.1081
12110TIP3    H157745   5.169   6.075  13.793 -0.8177 -0.1440  1.5308
12110TIP3    H257746   5.231   6.156  13.904  1.2267  0.1009  0.2687
12111TIP3   OH257747   4.680   0.570   4.164 -0.3367  0.1438 -0.5081
12111TIP3    H157748   4.601   0.624   4.163 -1.5015 -1.4068 -3.4624
12111TIP3    H257749   4.656   0.494   4.217 -0.2564  0.4095 -0.0862
12112TIP3   OH257750   4.326   1.242   5.717  0.4516 -0.2661 -0.5407
12112TIP3    H157751   4.310   1.277   5.629  0.8860 -0.4060 -0.6779
12112TIP3    H257752   4.383   1.167   5.702  0.6799 -0.1777 -0.1227
12113TIP3   OH257753   5.593   0.228   5.681  0.2200 -0.6325  0.5203
12113TIP3    H157754   5.530   0.247   5.750  0.9157 -0.2333  1.0566
12113TIP3    H257755   5.596   0.132   5.678 -0.1337 -0.6534  0.7431
12114TIP3   OH257756   2.621   3.980   2.599 -0.0049  0.4839  0.1064
12114TIP3    H157757   2.694   3.925   2.572  2.1567  3.0332  0.3875
12114TIP3    H257758   2.581   3.932   2.672  0.6414 -1.5052 -0.7839
12115TIP3   OH257759   6.302   3.154  13.693  0.8640 -0.1816  0.5003
12115TIP3    H157760   6.243   3.216  13.649 -0.4384 -0.2820  2.0176
12115TIP3    H257761   6.306   3.079  13.634 -0.6357 -0.2106  0.3866
12116TIP3   OH257762   1.492   2.186  11.567  0.2986 -0.7863  0.2034
12116TIP3    H157763   1.530   2.206  11.482  2.5055  0.2345  1.3446
12116TIP3    H257764   1.448   2.267  11.593  1.9134 -0.1800  1.1452
12117TIP3   OH257765   3.440   2.204  11.792  0.2772  0.7713 -0.0716
12117TIP3    H157766   3.523   2.241  11.761  1.3119 -0.7329  0.7728
12117TIP3    H257767   3.409   2.150  11.719  1.5837 -1.0030  0.6193
12118TIP3   OH257768   0.185   2.062  14.585  0.1153  0.5732 -0.3072
12118TIP3    H157769   0.234   2.129  14.538 -1.2135  0.7109 -1.5535
12118TIP3    H257770   0.158   2.000  14.517  0.0525 -0.4506  0.6109
12119TIP3   OH257771   5.772   3.477  14.653  0.1895  0.1518 -0.2114
12119TIP3    H157772   5.711   3.405  14.639 -0.0442  0.4487 -0.7681
12119TIP3    H257773   5.758   3.503  14.743  0.9264 -1.0864  0.2893
12120TIP3   OH257774   4.184   2.952   0.487  0.1566 -0.5436 -0.1274
12120TIP3    H157775   4.179   3.025   0.550  1.2232 -2.3474  2.2257
12120TIP3    H257776   4.127   2.979   0.415  0.5713  2.6269  0.5543
12121TIP3   OH257777   2.932   2.098   3.282  0.7474 -0.0031 -0.2086
12121TIP3    H157778   2.929   2.110   3.187 -0.3925 -0.6507 -0.2799
12121TIP3    H257779   2.861   2.037   3.300  1.2665 -0.2710  1.0140
12122TIP3   OH257780   0.918   0.547   3.719 -0.5763 -0.3101 -0.1644
12122TIP3    H157781   0.848   0.531   3.655 -1.4383  0.1717  0.6242
12122TIP3    H257782   0.879   0.608   3.782  0.8933  0.7524 -0.2418
12123TIP3   OH257783   5.365   5.026  11.539 -0.0659  0.1460  0.2094
12123TIP3    H157784   5.366   5.059  11.630  0.4888  0.5190  0.0756
12123TIP3    H257785   5.374   4.932  11.548  1.6507  0.2988  0.5073
12124TIP3   OH257786   3.158   3.261   2.386  0.3854 -0.2350  0.1975
12124TIP3    H157787   3.181   3.173   2.356  0.2138 -0.3390  0.3724
12124TIP3    H257788   3.239   3.295   2.424  0.5726 -0.1472 -0.2752
12125TIP3   OH257789   1.011   2.786   4.353  0.4416  0.1104  0.3293
12125TIP3    H157790   0.983   2.762   4.441  0.9143  1.1423  0.7807
12125TIP3    H257791   1.106   2.793   4.359  0.5328 -0.3364 -0.4089
12126TIP3   OH257792   1.578   0.782   3.072  0.1824  0.2434 -0.3252
12126TIP3    H157793   1.673   0.776   3.066  0.2251  1.9972 -2.9133
12126TIP3    H257794   1.546   0.706   3.024  0.2441 -0.2532  0.4001
12127TIP3   OH257795   4.472   4.402  16.490 -0.2554  0.0868 -0.3215
12127TIP3    H157796   4.419   4.328  16.462 -1.2969  0.1931  1.2607
12127TIP3    H257797   4.434   4.478  16.445 -0.4394 -0.0568 -0.4078
12128TIP3   OH257798   0.043   1.229   3.156  0.0248  0.2008  0.4317
12128TIP3    H157799  -0.021   1.249   3.224 -0.1246 -2.4293  1.1740
12128TIP3    H257800   0.114   1.185   3.203  0.5819 -0.3824 -0.9275
12129TIP3   OH257801   5.724   0.514   3.334 -0.3653 -0.4383  0.1252
12129TIP3    H157802   5.769   0.473   3.408  0.6732  1.7888  0.8070
12129TIP3    H257803   5.645   0.551   3.372 -0.8421 -0.9844 -0.3109
12130TIP3   OH257804   1.215   5.218   4.043  0.4220  0.1036 -0.2434
12130TIP3    H157805   1.144   5.270   4.083 -0.8274 -1.0694 -0.8633
12130TIP3    H257806   1.219   5.250   3.953  1.5980  1.0632  0.1214
12131TIP3   OH257807   3.197   0.955  12.748  0.3859  0.3640  0.4644
12131TIP3    H157808   3.197   1.051  12.752 -1.5922  0.3767  2.0077
12131TIP3    H257809   3.130   0.934  12.684  1.4695 -0.0388 -0.5787
12132TIP3   OH257810   0.070   0.156  13.635 -0.6745 -0.4588 -0.3142
12132TIP3    H157811   0.140   0.106  13.675 -0.1476  0.0648 -0.5727
12132TIP3    H257812   0.012   0.180  13.707  0.3888  0.6819  0.1995
12133TIP3   OH257813   6.546   2.137   1.780 -0.2738 -0.5100  0.9218
12133TIP3    H157814   6.473   2.077   1.793 -0.0354 -1.2129 -0.7314
12133TIP3    H257815   6.624   2.081   1.779 -0.1907 -0.5844 -2.5756
12134TIP3   OH257816   2.419   5.355  15.464 -0.0699  0.2686 -0.4114
12134TIP3    H157817   2.485   5.379  15.530  0.2650 -0.9194 -0.2908
12134TIP3    H257818   2.462   5.374  15.380 -0.9318  2.9216 -0.3404
12135TIP3   OH257819   3.617   3.891  15.279 -0.0649 -0.4544 -0.3373
12135TIP3    H157820   3.639   3.982  15.299 -0.4086 -0.4383 -0.0228
12135TIP3    H257821   3.684   3.864  15.216 -0.3737  0.2325 -0.9794
12136TIP3   OH257822   1.728   1.389  13.156 -0.3056 -0.3797 -0.3816
12136TIP3    H157823   1.799   1.425  13.209  0.8189 -0.5286 -1.7304
12136TIP3    H257824   1.672   1.464  13.136  0.0945 -0.0394 -0.2296
12137TIP3   OH257825   3.693   5.072   1.882  0.0200  0.5352 -0.2158
12137TIP3    H157826   3.751   5.011   1.836  0.3544  1.4383 -1.0548
12137TIP3    H257827   3.606   5.033   1.876  0.4994 -0.8179  1.0141
12138TIP3   OH257828   5.565   4.288  13.172  0.0786 -0.0598 -0.3772
12138TIP3    H157829   5.484   4.340  13.172  0.2317  0.1817 -0.7181
12138TIP3    H257830   5.632   4.347  13.205 -0.0830 -0.5913  0.9448
12139TIP3   OH257831   5.415   5.047  13.523 -0.3399 -0.5732 -0.9263
12139TIP3    H157832   5.360   5.018  13.596  1.3235  0.0253  0.6523
12139TIP3    H257833   5.424   4.970  13.467 -1.6205 -1.0628 -0.4918
12140TIP3   OH257834   0.370   6.001  16.843  0.0754 -0.1063  0.5948
12140TIP3    H157835   0.366   5.951  16.762  3.5862 -0.6048  0.5809
12140TIP3    H257836   0.455   6.045  16.841 -0.5833  1.5440  3.0929
12141TIP3   OH257837   4.584   4.840  14.297 -0.6460 -0.2994 -0.3234
12141TIP3    H157838   4.607   4.880  14.213  2.4585 -0.7067  0.2019
12141TIP3    H257839   4.577   4.914  14.358 -0.3843 -0.1664 -0.4517
12142TIP3   OH257840   5.452   6.434   0.585 -0.5581 -0.0261 -0.1210
12142TIP3    H157841   5.457   6.424   0.680  0.4460  0.3533 -0.1155
12142TIP3    H257842   5.381   6.376   0.558 -1.6679  0.7512  0.9867
12143TIP3   OH257843   3.395   3.030  15.168 -0.3200 -0.2381  0.3207
12143TIP3    H157844   3.417   2.999  15.257 -0.8504 -0.8598  0.2418
12143TIP3    H257845   3.302   3.009  15.158 -0.9046  2.0687  0.5209
12144TIP3   OH257846   3.283   0.196   3.258 -0.2443 -0.6766 -0.6086
12144TIP3    H157847   3.342   0.235   3.323  1.0436 -0.6818 -1.7460
12144TIP3    H257848   3.195   0.216   3.291  0.3665 -0.7012  1.1471
12145TIP3   OH257849   3.794   1.035  15.511  0.1252 -0.1475 -0.9303
12145TIP3    H157850   3.786   1.130  15.507 -1.6413 -0.2484 -0.4296
12145TIP3    H257851   3.764   1.004  15.426 -0.1694 -0.3019 -0.7707
12146TIP3   OH257852   0.147   4.328  13.995 -0.0234 -0.0052 -0.4321
12146TIP3    H157853   0.158   4.361  14.084 -0.3523  1.1726 -0.8070
12146TIP3    H257854   0.080   4.385  13.957 -0.2414 -0.8044 -1.2784
12147TIP3   OH257855   1.017   2.604  17.164  0.0380 -0.1777 -0.4371
12147TIP3    H157856   1.077   2.596  17.239 -1.7402  2.3134  1.4201
12147TIP3    H257857   1.072   2.639  17.094  1.6086 -1.9161 -0.1485
12148TIP3   OH257858   6.413   3.235   5.719  0.0359 -0.5151 -0.3497
12148TIP3    H157859   6.403   3.319   5.673  1.3574 -0.5906 -0.8312
12148TIP3    H257860   6.435   3.260   5.809  0.8686 -0.3199 -0.5946
12149TIP3   OH257861   6.444   3.384   2.137 -0.1398 -0.7388  0.1104
12149TIP3    H157862   6.405   3.297   2.146  1.8876 -1.7553 -0.3173
12149TIP3    H257863   6.446   3.400   2.043  0.2523 -0.6068  0.1403
12150TIP3   OH257864   0.541   3.956  15.629 -0.6944  0.2918  0.6634
12150TIP3    H157865   0.607   4.025  15.629  0.2796 -0.6057  0.7316
12150TIP3    H257866   0.521   3.941  15.721 -0.9707  0.5403  0.6444
12151TIP3   OH257867   5.357   6.763  10.579 -0.2205 -0.0101 -0.4659
12151TIP3    H157868   5.412   6.726  10.510  2.6038 -0.4353  1.8160
12151TIP3    H257869   5.305   6.689  10.610 -0.7480 -0.0487 -1.3962
12152TIP3   OH257870   6.210   4.643   2.457 -0.3124 -0.3057  0.0528
12152TIP3    H157871   6.189   4.733   2.481  1.0230 -0.1774  0.8538
12152TIP3    H257872   6.228   4.646   2.363 -0.3331  0.2519  0.0654
12153TIP3   OH257873   5.077   0.567  12.519  0.3774  0.4251 -0.1010
12153TIP3    H157874   5.091   0.483  12.474 -1.8954  1.3455 -2.7782
12153TIP3    H257875   5.005   0.550  12.579  0.0390  0.4034 -0.5088
12154TIP3   OH257876   6.656   0.018   2.483 -0.2422 -0.3256 -0.1441
12154TIP3    H157877   6.718   0.090   2.477  0.4256 -0.8171  0.7289
12154TIP3    H257878   6.595   0.044   2.552 -1.3151  0.3494 -1.2772
12155TIP3   OH257879   1.772   3.507   5.300  0.0561 -0.2332 -0.1081
12155TIP3    H157880   1.850   3.507   5.244  0.2174 -0.4393  0.1118
12155TIP3    H257881   1.781   3.427   5.353 -0.2410 -0.1914  0.0067
12156TIP3   OH257882   5.561   4.460   5.415  0.0003 -0.6015  0.0467
12156TIP3    H157883   5.471   4.428   5.412 -0.1423 -0.3850  1.4235
12156TIP3    H257884   5.612   4.390   5.374 -0.8057 -0.5913 -1.0434
12157TIP3   OH257885   1.195   4.251   0.015 -0.6891 -0.6233  0.2329
12157TIP3    H157886   1.242   4.168   0.022 -1.0657 -0.9694 -0.9907
12157TIP3    H257887   1.116   4.239   0.068 -1.4489 -1.5952 -1.0628
12158TIP3   OH257888   1.399   0.449   1.921  0.6336 -0.2053  0.4106
12158TIP3    H157889   1.331   0.516   1.923  0.8938  0.0664  2.7257
12158TIP3    H257890   1.350   0.366   1.929  0.4798 -0.1126  0.4430
12159TIP3   OH257891   4.938   4.416   3.241 -0.2528 -0.3256  0.6385
12159TIP3    H157892   4.947   4.350   3.173 -1.2155 -1.1733  1.2946
12159TIP3    H257893   4.867   4.383   3.297 -2.3139  2.3031 -0.2174
12160TIP3   OH257894   5.289   0.356  13.239 -0.3476  0.0461 -0.7318
12160TIP3    H157895   5.337   0.432  13.273  0.5830 -0.9427  0.2353
12160TIP3    H257896   5.333   0.335  13.156 -0.4152  0.3843 -0.8532
12161TIP3   OH257897   0.559   4.460   4.659  0.4543 -0.7689  0.1174
12161TIP3    H157898   0.541   4.542   4.705 -1.7594  0.5050 -2.7215
12161TIP3    H257899   0.628   4.482   4.596 -0.0435 -1.0973 -0.5558
12162TIP3   OH257900   5.057   2.457  13.063  0.0566  0.2837 -0.2836
12162TIP3    H157901   5.025   2.375  13.027 -0.1711  0.4046 -0.3575
12162TIP3    H257902   4.988   2.487  13.122  0.5183 -0.0247  0.4314
12163TIP3   OH257903   3.313   5.660  15.605 -0.0234  0.2477  0.0605
12163TIP3    H157904   3.275   5.709  15.532  0.5654  0.1948 -0.2890
12163TIP3    H257905   3.286   5.708  15.683 -1.5276 -0.2643 -0.1072
12164TIP3   OH257906   3.647   2.458   5.494 -0.3926 -0.1447  0.7280
12164TIP3    H157907   3.553   2.439   5.500 -0.8294  1.5499  0.0932
12164TIP3    H257908   3.677   2.409   5.418 -0.9765 -0.0267  0.4139
12165TIP3   OH257909   1.896   3.827  13.869 -0.0233  0.0381 -0.5103
12165TIP3    H157910   1.886   3.875  13.951 -0.2141 -0.2227 -0.3773
12165TIP3    H257911   1.986   3.796  13.870 -0.4748 -1.3652  0.3924
12166TIP3   OH257912   1.787   3.130  12.630 -0.4278  0.3941 -0.1172
12166TIP3    H157913   1.858   3.186  12.661  1.0632 -0.5224 -1.7180
12166TIP3    H257914   1.749   3.094  12.710 -0.3186  2.3159  0.8639
12167TIP3   OH257915   3.819   1.218   0.817  0.0481  0.7358  0.0107
12167TIP3    H157916   3.771   1.135   0.811 -1.9862  1.8890 -0.6851
12167TIP3    H257917   3.863   1.226   0.732  1.2019 -0.1212  0.4934
12168TIP3   OH257918   3.240   1.344  12.174  0.3138 -0.1759 -0.2106
12168TIP3    H157919   3.310   1.320  12.234  0.3651 -0.3525 -0.3391
12168TIP3    H257920   3.216   1.261  12.132  1.9117  0.3170 -2.2005
12169TIP3   OH257921   2.075   5.555   1.776  0.1249 -0.0615 -0.1525
12169TIP3    H157922   2.016   5.481   1.766 -0.3641  0.3486 -0.3492
12169TIP3    H257923   2.086   5.589   1.687 -0.2351  0.5423  0.0277
12170TIP3   OH257924   2.995   6.122   0.790  0.2520  0.3020 -0.2914
12170TIP3    H157925   3.033   6.131   0.877  1.2861 -1.5907 -0.4935
12170TIP3    H257926   3.057   6.167   0.732 -0.8707  2.3236 -0.0236
12171TIP3   OH257927   6.234   4.068  15.537  0.1071  0.9781 -0.2072
12171TIP3    H157928   6.142   4.043  15.543  0.3864  0.0487  0.4568
12171TIP3    H257929   6.257   4.093  15.627  0.1698  2.4810 -0.6146
12172TIP3   OH257930   2.024   3.326  17.018 -0.5779  1.1453  0.0787
12172TIP3    H157931   2.017   3.355  16.927 -1.5777 -0.7796 -0.5253
12172TIP3    H257932   2.104   3.274  17.021 -0.8738  0.6795  0.1120
12173TIP3   OH257933   0.784   0.477   5.423  0.6411  0.0844 -0.2737
12173TIP3    H157934   0.877   0.500   5.436  0.0496  1.8247  1.3903
12173TIP3    H257935   0.771   0.400   5.478  1.3972 -1.0686 -1.6475
12174TIP3   OH257936   4.023   0.421  12.204 -0.3695  0.1086 -0.1366
12174TIP3    H157937   3.951   0.359  12.194  0.3655 -0.5382 -1.8006
12174TIP3    H257938   4.098   0.366  12.227  0.0994  0.4812 -0.7540
12175TIP3   OH257939   1.131   5.553   0.009  0.1099  0.0619 -0.1815
12175TIP3    H157940   1.204   5.611  -0.012  2.4880 -1.9442  1.7488
12175TIP3    H257941   1.155   5.469  -0.031 -1.5061 -0.4731 -0.0875
12176TIP3   OH257942   4.104   6.398   4.780 -0.2933 -0.0950  0.2719
12176TIP3    H157943   4.180   6.443   4.744 -0.0712 -0.2122  0.5947
12176TIP3    H257944   4.062   6.357   4.704 -0.2979  0.3610  0.0268
12177TIP3   OH257945   4.282   4.884   5.985  0.0863 -0.4276  0.1254
12177TIP3    H157946   4.372   4.916   5.987 -0.4083  1.5526 -2.7225
12177TIP3    H257947   4.281   4.820   5.913 -1.0473  0.8248 -1.0361
12178TIP3   OH257948   5.606   1.829   0.338 -0.8612 -0.4285 -0.7290
12178TIP3    H157949   5.572   1.740   0.336  1.6963 -1.8621  4.0506
12178TIP3    H257950   5.540   1.878   0.388 -0.5204 -0.7184  0.0307
12179TIP3   OH257951   3.889   3.085   3.619  0.0225  0.2765  0.1239
12179TIP3    H157952   3.938   3.102   3.538 -0.5945 -1.0092 -0.5592
12179TIP3    H257953   3.846   3.168   3.639  1.6491  1.1475  0.1806
12180TIP3   OH257954   6.170   3.240   6.007  0.9113  0.3397 -0.3027
12180TIP3    H157955   6.146   3.302   6.076  0.3632  0.4678 -0.6099
12180TIP3    H257956   6.111   3.259   5.935 -1.9270 -3.0060  0.8805
12181TIP3   OH257957   3.078   0.913   0.888  0.3714  0.3451 -0.1344
12181TIP3    H157958   3.136   0.951   0.954 -0.1290  1.1930 -0.1767
12181TIP3    H257959   3.107   0.952   0.805  1.0939 -0.8223 -0.4660
12182TIP3   OH257960   6.713   6.434   0.661 -0.1942 -0.2077  0.2365
12182TIP3    H157961   6.674   6.348   0.643  0.2716 -0.6717  1.3308
12182TIP3    H257962   6.796   6.433   0.615 -1.3266  0.7291 -1.9887
12183TIP3   OH257963   3.503   1.571  12.385 -0.7207 -0.1606  0.3494
12183TIP3    H157964   3.540   1.576  12.297  1.0523 -1.1845  0.9809
12183TIP3    H257965   3.576   1.594  12.443 -1.9508  0.8453  1.5479
12184TIP3   OH257966   2.209   4.593   0.948 -0.5206  0.1913 -0.0832
12184TIP3    H157967   2.244   4.646   0.877 -2.0522 -0.0632 -1.0589
12184TIP3    H257968   2.165   4.655   1.005 -0.2210  0.2588  0.0776
12185TIP3   OH257969   4.194   6.556   3.992  0.1263 -0.6051 -0.1709
12185TIP3    H157970   4.166   6.530   4.080 -0.5674  0.9687  0.1095
12185TIP3    H257971   4.113   6.564   3.942  0.1787  1.5860 -0.0341
12186TIP3   OH257972   4.765   1.572  15.325  0.4886 -0.2955  0.2077
12186TIP3    H157973   4.790   1.552  15.235 -0.6888  0.4679 -0.3010
12186TIP3    H257974   4.834   1.631  15.356  1.3674 -1.2448  0.1182
12187TIP3   OH257975   1.499   1.783   1.663  0.7603  0.0860 -0.0653
12187TIP3    H157976   1.443   1.789   1.740  2.9359 -2.7452  1.9185
12187TIP3    H257977   1.465   1.850   1.604 -3.1448  0.1481  1.9265
12188TIP3   OH257978   6.444   6.403  11.301  0.1810  0.1687  0.2353
12188TIP3    H157979   6.457   6.439  11.389 -0.8084 -0.0249  0.4631
12188TIP3    H257980   6.388   6.327  11.314 -2.0378  1.5194 -0.7898
12189TIP3   OH257981   0.271   3.286   0.498 -0.6516 -0.4042 -0.3749
12189TIP3    H157982   0.180   3.311   0.483 -0.3789  0.2735 -0.9485
12189TIP3    H257983   0.311   3.362   0.541  0.6467  1.0223 -3.7578
12190TIP3   OH257984   4.001   3.040  11.967  0.4608 -0.1860 -0.6012
12190TIP3    H157985   4.087   3.002  11.951  0.0095 -1.3112 -0.4139
12190TIP3    H257986   4.019   3.117  12.021  1.2614 -1.1001  0.4850
12191TIP3   OH257987   6.534   4.286   2.919  0.0267  0.6301 -0.0240
12191TIP3    H157988   6.471   4.225   2.958 -0.9798  1.9363  0.4891
12191TIP3    H257989   6.552   4.250   2.832 -0.8624 -0.1569  0.0990
12192TIP3   OH257990   3.568   3.075   5.927 -0.1980  0.7148 -0.1058
12192TIP3    H157991   3.637   3.038   5.983 -1.6719  1.9490  2.7220
12192TIP3    H257992   3.511   3.001   5.907  1.3120 -0.1107 -1.6285
12193TIP3   OH257993   4.231   4.825   1.123  0.4408  0.1304 -0.2548
12193TIP3    H157994   4.302   4.848   1.063  0.1619  0.6882 -0.3699
12193TIP3    H257995   4.159   4.800   1.065  0.7670 -1.1595 -0.1381
12194TIP3   OH257996   6.249   2.208   0.514 -0.0928  0.2404  0.5391
12194TIP3    H157997   6.324   2.165   0.473  2.1945  3.5005  0.8509
12194TIP3    H257998   6.219   2.271   0.448 -1.0901  0.5528  1.2718
12195TIP3   OH257999   3.610   0.324   3.318 -0.4713  1.2520  0.0544
12195TIP3    H158000   3.693   0.365   3.292 -0.3309 -0.0477 -1.7361
12195TIP3    H258001   3.544   0.390   3.299  0.0503  1.9912  0.7125
12196TIP3   OH258002   4.911   2.405   6.389  0.0185 -1.0061 -0.1473
12196TIP3    H158003   4.862   2.430   6.310  1.6037 -0.2236 -0.9160
12196TIP3    H258004   4.881   2.466   6.456  0.7301  0.2337 -0.9102
12197TIP3   OH258005   3.035   5.101   0.396  0.2472 -0.3807  0.1233
12197TIP3    H158006   3.033   5.075   0.488 -1.1263 -1.3291 -0.1480
12197TIP3    H258007   3.105   5.166   0.391  1.3587 -1.4122  1.5399
12198TIP3   OH258008   4.016   5.698  13.922 -0.4042  0.1266 -0.0904
12198TIP3    H158009   4.092   5.722  13.869  1.0206  0.4813  1.9893
12198TIP3    H258010   3.977   5.624  13.875  1.3068 -0.1553 -1.1626
12199TIP3   OH258011   2.203   0.056  11.435  0.2069  0.0157 -0.2879
12199TIP3    H158012   2.262   0.014  11.372 -0.4283 -1.6846  0.1920
12199TIP3    H258013   2.253   0.129  11.470  1.6524 -0.7538 -0.6551
12200TIP3   OH258014   1.120   1.034  14.632 -0.3367 -0.8404  0.2985
12200TIP3    H158015   1.155   1.114  14.671  0.0821 -1.6131  1.5743
12200TIP3    H258016   1.050   1.064  14.575 -0.5221  0.4002  1.1362
12201TIP3   OH258017   3.868   1.999  12.548  0.4606 -0.2386  0.3628
12201TIP3    H158018   3.874   1.935  12.619  0.0383 -0.3292  0.3201
12201TIP3    H258019   3.783   1.982  12.508 -0.0053  0.8865  0.8562
12202TIP3   OH258020   4.226   3.270  16.237 -0.7675  0.0092  0.3673
12202TIP3    H158021   4.293   3.323  16.194  0.1173 -1.7756 -0.5530
12202TIP3    H258022   4.146   3.288  16.188 -0.2806 -0.1925 -0.5067
12203TIP3   OH258023   4.853   0.662   5.918 -0.2460 -0.2187 -0.1949
12203TIP3    H158024   4.854   0.625   5.830 -0.2244  0.7788 -0.6274
12203TIP3    H258025   4.803   0.743   5.910  2.0569  1.3239  0.0759
12204TIP3   OH258026   2.539   4.128  15.358  0.1933 -0.0971  0.4239
12204TIP3    H158027   2.582   4.068  15.296 -0.0683  0.3576 -0.2103
12204TIP3    H258028   2.610   4.159  15.414  0.1900 -1.6846  1.3555
12205TIP3   OH258029   5.964   5.210   3.587  0.1639  0.0439 -0.7703
12205TIP3    H158030   5.998   5.273   3.523 -0.0446 -1.2821 -2.2318
12205TIP3    H258031   6.042   5.177   3.631  0.3186  0.8522 -0.4024
12206TIP3   OH258032   1.487   0.188   3.597  0.5199  0.3118  0.1147
12206TIP3    H158033   1.508   0.281   3.608  0.0253  0.2438  1.9982
12206TIP3    H258034   1.529   0.145   3.672 -0.6246 -0.7490  0.1773
12207TIP3   OH258035   5.582   3.578   1.227  0.4461  0.0239 -0.1621
12207TIP3    H158036   5.494   3.596   1.195  0.1188  0.9087  1.1535
12207TIP3    H258037   5.597   3.486   1.206 -0.1125  0.2875 -1.9085
12208TIP3   OH258038   4.552   2.305  14.752  0.4682 -0.6770 -0.2623
12208TIP3    H158039   4.512   2.269  14.831  2.2086 -1.1066  0.4590
12208TIP3    H258040   4.509   2.258  14.680 -1.2047 -0.2079  0.3852
12209TIP3   OH258041   3.859   4.741   3.800  0.2586 -0.0585  0.0251
12209TIP3    H158042   3.942   4.722   3.756  0.0724 -1.5702  0.2600
12209TIP3    H258043   3.833   4.827   3.767  2.7459  1.2551  1.2548
12210TIP3   OH258044   0.493   4.271  15.321 -0.4765  0.6131  0.6616
12210TIP3    H158045   0.419   4.217  15.293 -1.6649  1.5122  1.9071
12210TIP3    H258046   0.570   4.227  15.287 -1.6098 -0.1550 -1.0147
12211TIP3   OH258047   1.990   0.294  13.685 -0.3178  0.0802 -0.5620
12211TIP3    H158048   1.940   0.217  13.712  1.3029 -1.5821 -2.0311
12211TIP3    H258049   2.080   0.273  13.709  0.0627  1.9164 -0.2627
12212TIP3   OH258050   2.411   5.595   5.364  0.2500 -0.3060  0.1972
12212TIP3    H158051   2.325   5.602   5.321 -0.6782 -1.7384  1.7031
12212TIP3    H258052   2.419   5.502   5.386  1.9897 -0.1079  0.5317
12213TIP3   OH258053   6.331   2.930   0.757  0.1596 -0.0902 -0.5926
12213TIP3    H158054   6.390   2.901   0.688 -0.2840  0.5950 -1.2672
12213TIP3    H258055   6.264   2.862   0.762  1.3966 -1.2982  0.7358
12214TIP3   OH258056   5.287   3.576   2.539 -0.5611 -0.2881  0.4498
12214TIP3    H158057   5.355   3.512   2.517 -1.2680 -0.6568 -0.7996
12214TIP3    H258058   5.256   3.549   2.626  0.3405 -0.5770  0.6953
12215TIP3   OH258059   6.744   0.000   3.959 -0.3967  0.5479  0.7039
12215TIP3    H158060   6.723  -0.065   4.026 -2.0782  0.8586  0.5212
12215TIP3    H258061   6.666   0.055   3.953 -0.3247  0.5233 -1.5173
12216TIP3   OH258062   4.460   2.968   0.081  0.2169 -0.2060  1.2310
12216TIP3    H158063   4.550   2.998   0.063 -0.1734 -0.0086 -0.6683
12216TIP3    H258064   4.442   2.998   0.170  1.4165  1.3278  1.0017
12217TIP3   OH258065   2.743   3.128  12.020 -0.7228  0.4283 -0.3178
12217TIP3    H158066   2.738   3.181  11.941  0.0114 -0.3493 -0.8955
12217TIP3    H258067   2.652   3.118  12.048 -0.9027  1.5819 -0.4689
12218TIP3   OH258068   5.676   3.778   5.546 -0.2262  0.5485 -0.5169
12218TIP3    H158069   5.756   3.803   5.592 -0.1995  2.2124 -1.3747
12218TIP3    H258070   5.704   3.763   5.456 -0.9842  2.0609 -1.0356
12219TIP3   OH258071   3.550   2.917   0.490 -0.2592 -0.1400 -0.0188
12219TIP3    H158072   3.618   2.900   0.426 -0.4161 -1.9654  0.2520
12219TIP3    H258073   3.585   2.881   0.572  0.0141  2.2908  1.0072
12220TIP3   OH258074   4.613   6.188  13.544 -0.2940 -0.0855  0.2268
12220TIP3    H158075   4.644   6.249  13.476 -1.2794  0.5295  0.3122
12220TIP3    H258076   4.689   6.133  13.563 -0.0323 -0.3470 -1.4484
12221TIP3   OH258077   5.241   5.772  13.726  0.5775 -0.3908  0.4358
12221TIP3    H158078   5.241   5.676  13.732  0.4422 -0.5685 -1.6285
12221TIP3    H258079   5.161   5.799  13.770 -0.1252 -1.3370 -0.2317
12222TIP3   OH258080   0.964   3.122  14.410  0.2924  0.4269  0.0646
12222TIP3    H158081   0.943   3.193  14.350 -0.3524 -0.0268 -0.2566
12222TIP3    H258082   0.880   3.078  14.426  0.0250  1.7236  2.8550
12223TIP3   OH258083   1.709   2.858  11.786 -0.0780 -0.2156 -0.0181
12223TIP3    H158084   1.668   2.810  11.714  0.1283 -2.4635  1.2517
12223TIP3    H258085   1.636   2.893  11.836 -0.4635 -2.1410  0.8861
12224TIP3   OH258086   5.854   0.962   2.765 -0.0895 -0.4685  0.2411
12224TIP3    H158087   5.946   0.942   2.786 -0.3517 -1.9899  0.0706
12224TIP3    H258088   5.806   0.941   2.845 -0.1548  1.8400  0.8768
12225TIP3   OH258089   4.214   2.539  15.366  0.0969 -0.2695  0.5702
12225TIP3    H158090   4.256   2.467  15.413 -0.4155  0.2089  1.8049
12225TIP3    H258091   4.263   2.617  15.393 -0.0208 -0.0207  0.0784
12226TIP3   OH258092   6.310   0.689   5.739 -0.4480  0.1411  0.3923
12226TIP3    H158093   6.299   0.779   5.709 -0.8266  0.0570  0.2711
12226TIP3    H258094   6.357   0.696   5.822 -1.5782  0.5261  1.0116
12227TIP3   OH258095   1.096   3.473  15.569 -0.6358  0.3951 -0.0601
12227TIP3    H158096   1.143   3.542  15.522 -1.5369  0.7014 -0.5484
12227TIP3    H258097   1.066   3.414  15.499  0.0373 -0.4435  0.3442
12228TIP3   OH258098   2.040   0.781  10.511  0.0104 -1.0889  0.1654
12228TIP3    H158099   2.042   0.831  10.429  1.9698 -0.7869  0.3326
12228TIP3    H258100   1.969   0.819  10.561  1.1835  1.3367  0.1255
12229TIP3   OH258101   5.505   0.039  14.432  0.0786  0.5078 -0.1871
12229TIP3    H158102   5.541   0.081  14.510  1.1704 -0.0118 -0.3934
12229TIP3    H258103   5.494   0.110  14.369  1.8801  0.5319 -0.5211
12230TIP3   OH258104   3.010   4.090   5.423 -0.0827 -0.2392 -0.3101
12230TIP3    H158105   2.959   4.027   5.372  0.0832 -0.4255 -0.2510
12230TIP3    H258106   2.967   4.091   5.509 -2.5394  2.6782 -1.3992
12231TIP3   OH258107   3.457   6.765  11.298 -0.3422 -0.6715 -0.1677
12231TIP3    H158108   3.373   6.729  11.270 -0.9584  0.1461  0.5966
12231TIP3    H258109   3.492   6.807  11.219 -2.4778  2.3936  0.3340
12232TIP3   OH258110   6.524   5.400   3.367 -0.2556 -0.2858 -0.0782
12232TIP3    H158111   6.479   5.483   3.382  1.3308  0.8122 -1.0625
12232TIP3    H258112   6.579   5.415   3.290  0.6617 -2.0071  0.1671
12233TIP3   OH258113   1.261   3.340  12.407 -0.7756 -0.5226  0.2586
12233TIP3    H158114   1.267   3.299  12.493 -1.2349 -0.6573  0.2294
12233TIP3    H258115   1.168   3.338  12.386 -0.7529  0.1093  0.0526
12234TIP3   OH258116   2.728   2.350   0.801 -0.7006 -0.4199  0.0175
12234TIP3    H158117   2.740   2.303   0.883 -2.1483  1.6675  1.5453
12234TIP3    H258118   2.642   2.321   0.769 -0.6753 -0.3510 -0.1144
12235TIP3   OH258119   4.077   0.947  17.011 -0.5392  0.4222 -0.3214
12235TIP3    H158120   4.076   1.031  16.965 -1.0409  0.6838  0.1616
12235TIP3    H258121   4.165   0.942  17.048 -0.2676  0.3987 -0.9530
12236TIP3   OH258122   1.384   2.770  13.450  0.0983  0.2937  0.4772
12236TIP3    H158123   1.452   2.742  13.389  0.6181 -1.3427  1.7206
12236TIP3    H258124   1.432   2.802  13.526 -0.5363  0.8346  0.6593
12237TIP3   OH258125   2.100   6.168  14.621  0.2191 -0.1201  0.1223
12237TIP3    H158126   2.105   6.261  14.642  1.8653 -0.4910  1.6702
12237TIP3    H258127   2.161   6.127  14.682 -1.2383 -2.3443  0.1984
12238TIP3   OH258128   3.860   0.940   3.039 -0.3282 -0.8990  0.1363
12238TIP3    H158129   3.857   0.850   3.007 -1.4553 -0.5131 -0.9063
12238TIP3    H258130   3.953   0.955   3.059  0.0496 -1.9129 -0.7692
12239TIP3   OH258131   1.224   3.958   4.940 -0.0402 -0.0015 -0.5915
12239TIP3    H158132   1.190   3.879   4.898  0.7362 -0.3425 -0.6016
12239TIP3    H258133   1.255   3.928   5.025  1.0048  0.1239 -0.9144
12240TIP3   OH258134   2.679   6.373   5.161  0.6939 -0.2164 -0.7210
12240TIP3    H158135   2.773   6.367   5.149  0.7130  0.8514 -1.2244
12240TIP3    H258136   2.649   6.428   5.088  0.0858  1.8660  1.0047
12241TIP3   OH258137   4.305   6.629   1.371  0.0895  0.3094  0.6092
12241TIP3    H158138   4.394   6.626   1.407  0.2818  0.6928  0.1716
12241TIP3    H258139   4.249   6.641   1.447  0.3134 -1.0212  1.0183
12242TIP3   OH258140   3.870   4.751   5.525 -0.4579  0.5396 -0.2494
12242TIP3    H158141   3.781   4.715   5.520 -0.0099 -0.4717 -1.1348
12242TIP3    H258142   3.912   4.725   5.443  0.9388  0.2836  0.5185
12243TIP3   OH258143   4.384   5.836  14.004  0.1837 -0.0998  0.4737
12243TIP3    H158144   4.395   5.921  14.048  0.6713  0.7970 -1.3085
12243TIP3    H258145   4.348   5.779  14.073 -3.2597  2.3151  0.9964
12244TIP3   OH258146   1.535   0.207   5.764  0.2420  0.5300  0.5763
12244TIP3    H158147   1.555   0.297   5.790  0.5041 -0.6687  5.5058
12244TIP3    H258148   1.442   0.209   5.741  0.6883  2.2842 -1.4516
12245TIP3   OH258149   2.797   6.354  13.800 -0.2773  0.0075  0.1813
12245TIP3    H158150   2.797   6.316  13.888  0.1431  0.4998  0.3997
12245TIP3    H258151   2.857   6.428  13.806 -0.6856  0.3875 -0.3795
12246TIP3   OH258152   2.962   1.091  13.451 -0.4235  0.2954 -0.1062
12246TIP3    H158153   3.022   1.096  13.526 -2.3705  0.0124  1.5726
12246TIP3    H258154   2.952   1.182  13.422 -0.7434  0.6006  0.9223
12247TIP3   OH258155   0.273   6.217  13.290 -0.4777 -0.2561 -0.4043
12247TIP3    H158156   0.366   6.222  13.312 -0.5939  1.1488 -0.1995
12247TIP3    H258157   0.258   6.123  13.275  1.0612 -0.4651 -0.8669
12248TIP3   OH258158   1.363   5.198  13.839  0.4634 -0.5929  0.1710
12248TIP3    H158159   1.390   5.160  13.755  1.7464 -1.1678  0.8241
12248TIP3    H258160   1.268   5.189  13.840  0.3411  0.0862 -1.5307
12249TIP3   OH258161   5.890   2.268  16.280 -0.0414  0.4939 -0.4891
12249TIP3    H158162   5.985   2.261  16.284  0.0163  1.2456 -0.4594
12249TIP3    H258163   5.863   2.278  16.371 -0.0798  1.0626 -0.5594
12250TIP3   OH258164   1.256   5.219   4.731  0.0982  0.1449 -0.3238
12250TIP3    H158165   1.205   5.241   4.809 -0.4273  0.9921 -0.8878
12250TIP3    H258166   1.194   5.225   4.658  0.1245 -2.4888 -0.6383
12251TIP3   OH258167   3.082   4.933   0.713  0.2300 -0.2465 -0.7931
12251TIP3    H158168   3.103   5.017   0.753 -0.7242 -0.5588  0.4399
12251TIP3    H258169   3.009   4.952   0.654 -0.7488 -0.3635  0.3336
12252TIP3   OH258170   1.250   5.082  14.833 -0.3603  0.1340  0.0778
12252TIP3    H158171   1.308   5.096  14.907 -0.4851  0.4852  0.1109
12252TIP3    H258172   1.171   5.043  14.871 -0.1435 -0.3686  0.0286
12253TIP3   OH258173   1.629   1.023  12.751 -0.2110 -0.7169  0.3253
12253TIP3    H158174   1.567   1.081  12.795 -0.5259  1.6209 -2.8298
12253TIP3    H258175   1.588   0.937  12.755 -1.8776  0.0725  1.4478
12254TIP3   OH258176   5.524   4.511  14.437  0.3827  0.2888 -0.6429
12254TIP3    H158177   5.552   4.420  14.438 -0.4541  0.0242 -0.2844
12254TIP3    H258178   5.512   4.534  14.529  0.1414  0.6156 -0.7536
12255TIP3   OH258179   4.585   3.859  17.161 -0.1646  0.3081  0.1077
12255TIP3    H158180   4.618   3.825  17.245  0.4888  0.9104  0.1070
12255TIP3    H258181   4.660   3.907  17.124  0.0146 -1.0943 -1.4689
12256TIP3   OH258182   1.158   1.587   1.390  0.1156  0.7062 -0.0335
12256TIP3    H158183   1.218   1.541   1.449  0.9626  0.6319 -0.9127
12256TIP3    H258184   1.095   1.521   1.363  0.7528  0.2914 -0.5386
12257TIP3   OH258185   1.291   0.732   2.343 -0.0658 -0.1217 -0.0943
12257TIP3    H158186   1.333   0.812   2.312  0.4274  0.4185  1.8066
12257TIP3    H258187   1.199   0.743   2.320 -0.3557  1.8648  1.6661
12258TIP3   OH258188   2.438   6.250   6.204  0.1923 -0.3839  0.6983
12258TIP3    H158189   2.525   6.261   6.165  0.3615 -0.1209  1.1338
12258TIP3    H258190   2.389   6.199   6.140  0.9342 -1.2892  0.8437
12259TIP3   OH258191   2.045   4.826   4.477  0.0522  0.1361 -0.2286
12259TIP3    H158192   2.062   4.736   4.450  0.1541  0.5221 -1.5474
12259TIP3    H258193   2.124   4.853   4.524 -0.7067 -1.0268  1.8140
12260TIP3   OH258194   2.489   4.464   6.306  0.4616  0.4477 -0.0948
12260TIP3    H158195   2.461   4.519   6.378  1.4290 -2.2519  2.5629
12260TIP3    H258196   2.585   4.466   6.310  0.5205 -0.2873 -0.8577
12261TIP3   OH258197   2.314   0.800  14.304  0.2038  0.1692  0.2864
12261TIP3    H158198   2.224   0.789  14.334  0.0193  0.8223 -0.0158
12261TIP3    H258199   2.316   0.756  14.218  0.0785  0.4585  0.1341
12262TIP3   OH258200   3.056   3.755   4.271  0.5389  0.6161  0.2911
12262TIP3    H158201   3.016   3.834   4.235 -0.1588 -0.3967 -1.2755
12262TIP3    H258202   3.150   3.767   4.256  0.2915  0.3392 -1.7244
12263TIP3   OH258203   0.960   3.419   3.865 -0.0236  0.2594  0.4584
12263TIP3    H158204   0.991   3.366   3.938  2.4908  0.8453 -0.1079
12263TIP3    H258205   0.995   3.506   3.882  0.5766  0.4215 -1.3852
12264TIP3   OH258206   0.393   2.805  13.066  0.1132 -0.2808  0.0764
12264TIP3    H158207   0.451   2.831  13.137 -0.3485  0.7151  0.1071
12264TIP3    H258208   0.375   2.886  13.018 -3.3535  0.0493  1.6343
12265TIP3   OH258209   1.060   2.815   0.568 -0.3426 -0.1542  0.2061
12265TIP3    H158210   1.111   2.896   0.560 -1.1882  0.4479  0.6959
12265TIP3    H258211   1.014   2.807   0.485 -1.0654  0.4493  0.5349
12266TIP3   OH258212   4.641   3.908  14.176 -0.1224 -0.3280 -0.5333
12266TIP3    H158213   4.648   3.986  14.231 -1.5018  0.5565 -1.5428
12266TIP3    H258214   4.556   3.871  14.198 -1.1243  0.5678 -2.6676
12267TIP3   OH258215   4.843   6.311  11.191 -0.0849  0.1616 -0.3617
12267TIP3    H158216   4.824   6.398  11.156 -1.3085  0.6942  1.5016
12267TIP3    H258217   4.760   6.263  11.181 -0.0464 -0.1032  0.5000
12268TIP3   OH258218   4.505   0.649  11.427 -0.1067  0.0228  0.4228
12268TIP3    H158219   4.510   0.682  11.516 -1.0725  0.2960  0.3869
12268TIP3    H258220   4.413   0.658  11.403  0.1113 -0.1944 -0.5459
12269TIP3   OH258221   6.615   4.259   4.466 -0.4101  0.2138 -0.3683
12269TIP3    H158222   6.643   4.169   4.482  0.7727  0.7561  0.8520
12269TIP3    H258223   6.645   4.308   4.543 -0.2056  1.8252 -1.4098
12270TIP3   OH258224   5.338   6.720  11.720  0.1970 -0.0925  0.8330
12270TIP3    H158225   5.314   6.703  11.628  1.5508 -3.0889  0.9109
12270TIP3    H258226   5.265   6.685  11.770  0.0656  0.2925  0.9066
12271TIP3   OH258227   4.732   6.645   3.278  0.1652 -0.1790  0.5103
12271TIP3    H158228   4.662   6.582   3.295 -0.5133 -0.0696 -1.6104
12271TIP3    H258229   4.690   6.730   3.286  0.0300 -0.1114 -0.7316
12272TIP3   OH258230   6.109   3.381   3.606  0.2377 -0.2962  0.3871
12272TIP3    H158231   6.091   3.414   3.694 -0.7773  0.9258 -0.2438
12272TIP3    H258232   6.026   3.341   3.578 -0.3376  1.7308 -1.0034
12273TIP3   OH258233   2.235   2.468   0.293  0.1060  0.3004  1.0551
12273TIP3    H158234   2.221   2.550   0.246  0.7711  0.3852  0.9947
12273TIP3    H258235   2.284   2.413   0.232  1.6547  0.6880  1.8821
12274TIP3   OH258236   5.494   1.874  16.646 -0.5616 -0.2051  0.7355
12274TIP3    H158237   5.585   1.899  16.628  0.3986 -1.3637  3.3794
12274TIP3    H258238   5.463   1.837  16.564  0.7214  1.8334 -0.7635
12275TIP3   OH258239   3.163   4.193  13.808  0.3051 -0.2960  0.1254
12275TIP3    H158240   3.074   4.210  13.839  0.4538  0.3027  0.2299
12275TIP3    H258241   3.166   4.233  13.721  1.3385  2.2471  1.2615
12276TIP3   OH258242   0.189   6.012   0.451  0.0988  0.2003 -0.0263
12276TIP3    H158243   0.113   5.975   0.497 -0.2415 -0.3976 -1.0364
12276TIP3    H258244   0.184   5.974   0.363  0.3444  1.8572 -0.7773
12277TIP3   OH258245   5.602   6.334   3.887 -0.6163 -0.0110  0.4372
12277TIP3    H158246   5.539   6.269   3.918  0.3560 -1.3598 -0.2575
12277TIP3    H258247   5.679   6.282   3.863  0.0421  1.3678 -0.5673
12278TIP3   OH258248   5.325   6.221   5.743 -0.4019  0.0722  0.3855
12278TIP3    H158249   5.307   6.284   5.812 -1.0036 -0.3054  0.5878
12278TIP3    H258250   5.261   6.151   5.757 -0.9442  0.2685 -0.9062
12279TIP3   OH258251   6.762   5.166  12.015  0.5440 -0.2889  0.2253
12279TIP3    H158252   6.826   5.105  12.052  0.6006  0.5274  1.5423
12279TIP3    H258253   6.795   5.185  11.927  0.9672 -1.4893  0.1055
12280TIP3   OH258254   2.438   2.654  12.814 -0.6686 -0.6201  0.2836
12280TIP3    H158255   2.351   2.693  12.819 -0.6851 -0.7963  1.9692
12280TIP3    H258256   2.497   2.725  12.840 -0.7206 -1.6301  3.7011
12281TIP3   OH258257   0.798   4.071  15.646  0.0797  0.1278  0.5510
12281TIP3    H158258   0.877   4.095  15.597 -0.5659 -0.4129 -0.8030
12281TIP3    H258259   0.786   4.143  15.708  1.0264  0.7541  0.0381
12282TIP3   OH258260   5.209   5.829  15.275  0.0240 -0.0604 -0.0703
12282TIP3    H158261   5.208   5.733  15.274  2.2501 -0.1672  1.3062
12282TIP3    H258262   5.183   5.854  15.187 -0.8490 -1.9067 -0.3894
12283TIP3   OH258263   6.377   5.144   2.363  0.1632  0.2259  0.2310
12283TIP3    H158264   6.440   5.115   2.428 -0.2321  0.2533  0.6327
12283TIP3    H258265   6.312   5.194   2.413  1.5647  3.0652 -0.6147
12284TIP3   OH258266   5.743   3.978   2.968  0.5550  0.1760 -0.7129
12284TIP3    H158267   5.715   4.016   3.052  1.3255  0.0256 -0.3749
12284TIP3    H258268   5.677   4.007   2.906 -1.3875 -1.6863  0.3725
12285TIP3   OH258269   6.713   6.055   1.646 -0.3119 -0.1627 -0.7109
12285TIP3    H158270   6.779   6.017   1.588 -1.3219 -3.4166  0.1082
12285TIP3    H258271   6.719   6.004   1.727 -2.9729  0.2592 -0.1532
12286TIP3   OH258272   2.645   1.643   4.268  0.1113 -0.3175  0.2124
12286TIP3    H158273   2.728   1.619   4.228  0.5057 -1.4548  1.6137
12286TIP3    H258274   2.578   1.602   4.212  0.6046 -1.1769  0.2364
12287TIP3   OH258275   4.642   1.065  13.710 -0.4948  0.1751 -0.1963
12287TIP3    H158276   4.704   1.134  13.686  1.2964 -0.6558  1.7041
12287TIP3    H258277   4.564   1.112  13.737  0.3229  1.4355  0.0868
12288TIP3   OH258278   4.612   2.581  16.621 -0.3655  0.0904 -0.2200
12288TIP3    H158279   4.547   2.511  16.632 -0.3120  0.2307  1.1661
12288TIP3    H258280   4.567   2.648  16.570 -1.8395  0.7923  1.8610
12289TIP3   OH258281   1.101   1.194  12.104  0.4164  0.1911  0.2217
12289TIP3    H158282   1.175   1.155  12.058 -0.6484  0.5836 -1.9260
12289TIP3    H258283   1.118   1.289  12.099 -0.5663  0.3248 -0.9520
12290TIP3   OH258284   0.518   2.532  15.252 -0.3563  0.1488 -0.3866
12290TIP3    H158285   0.474   2.584  15.184 -1.4175 -1.5102 -1.0406
12290TIP3    H258286   0.610   2.533  15.227 -0.4197  1.3034 -0.6418
12291TIP3   OH258287   5.426   0.674  13.890  0.1384  0.3548 -0.8260
12291TIP3    H158288   5.392   0.706  13.974 -0.5677 -0.4090 -0.8086
12291TIP3    H258289   5.501   0.731  13.871  0.7157  0.1179  0.6314
12292TIP3   OH258290   0.904   1.036  13.477  0.3364  0.1058 -0.7114
12292TIP3    H158291   0.832   0.974  13.490  0.4191 -0.3017 -1.9983
12292TIP3    H258292   0.926   1.067  13.564  0.7127 -2.1496  0.0493
12293TIP3   OH258293   4.218   0.016   2.306  0.3220 -0.2492 -0.3762
12293TIP3    H158294   4.172   0.089   2.347 -1.0376  0.2255 -2.5616
12293TIP3    H258295   4.156  -0.057   2.310  1.3338 -1.0974  0.9987
12294TIP3   OH258296   2.966   0.638  16.978  0.6604 -0.7666  0.1900
12294TIP3    H158297   3.004   0.559  17.018 -1.2150 -0.1674  3.5087
12294TIP3    H258298   3.037   0.701  16.977  1.3687 -1.5399  0.4877
12295TIP3   OH258299   2.900   2.230  17.026 -0.5021 -0.1621  0.4926
12295TIP3    H158300   2.911   2.324  17.015 -2.1776 -0.1005 -1.0692
12295TIP3    H258301   2.914   2.215  17.120 -0.1330  1.6073  0.7563
12296TIP3   OH258302   6.701   2.993   4.675 -0.2733  0.0505  0.7452
12296TIP3    H158303   6.752   2.955   4.747 -1.0648 -0.3923  1.0925
12296TIP3    H258304   6.715   3.087   4.683  1.8332 -0.1289 -0.2071
12297TIP3   OH258305   1.981   1.297  11.791  0.0960 -0.1576  0.1632
12297TIP3    H158306   2.020   1.351  11.860 -0.2629 -0.5982  0.7130
12297TIP3    H258307   1.905   1.347  11.762 -0.5539 -0.6052  1.0512
12298TIP3   OH258308   6.358   1.836  12.992 -0.2430  0.2148  0.1673
12298TIP3    H158309   6.327   1.754  12.954  2.0764 -0.4639 -0.4391
12298TIP3    H258310   6.405   1.809  13.071 -0.1619  1.0460  0.4145
12299TIP3   OH258311   2.370   4.497  11.542 -0.5004 -0.0007  0.0560
12299TIP3    H158312   2.457   4.527  11.567 -0.3072 -0.1490 -0.4370
12299TIP3    H258313   2.377   4.476  11.449 -1.3841  1.1662 -0.2993
12300TIP3   OH258314   0.574   0.686   2.634  0.0999  0.7637  0.1437
12300TIP3    H158315   0.485   0.703   2.604  0.0201  0.8534  0.4311
12300TIP3    H258316   0.624   0.764   2.610  0.5369 -0.0300 -1.7089
12301TIP3   OH258317   4.978   5.926  15.034 -0.0863  0.3618 -0.0711
12301TIP3    H158318   4.941   5.964  14.955  0.1759  0.8116  0.0199
12301TIP3    H258319   5.029   5.997  15.073  0.7745 -0.2026 -0.1401
12302TIP3   OH258320   5.628   5.928  16.402 -0.3510 -0.1621 -0.4013
12302TIP3    H158321   5.542   5.897  16.373 -0.1333 -1.0682 -0.1006
12302TIP3    H258322   5.664   5.855  16.452  0.1017  0.6499  0.4798
12303TIP3   OH258323   1.849   0.861   0.085  0.8991  0.1689  0.2667
12303TIP3    H158324   1.776   0.806   0.108  0.7128  0.3114  0.0256
12303TIP3    H258325   1.811   0.949   0.074  1.0677  0.2063 -0.0468
12304TIP3   OH258326   2.075   4.677  10.611 -0.6677 -0.5772  0.1914
12304TIP3    H158327   2.127   4.745  10.569 -0.7899 -0.6737 -0.1208
12304TIP3    H258328   2.119   4.595  10.589 -0.2502 -0.5704  0.9628
12305TIP3   OH258329   2.624   2.126  11.929  0.0088  0.3913  0.4733
12305TIP3    H158330   2.542   2.095  11.967  0.2677 -0.7973  0.1077
12305TIP3    H258331   2.613   2.114  11.835 -0.2118  2.2973  0.2190
12306TIP3   OH258332   5.897   2.572   3.597 -0.3542 -0.9552  0.2928
12306TIP3    H158333   5.851   2.645   3.639  0.2306  0.5884 -1.5782
12306TIP3    H258334   5.857   2.567   3.510  1.3827 -1.1064 -0.5364
12307TIP3   OH258335   1.936   2.041   6.450 -0.7755 -0.4466 -0.3031
12307TIP3    H158336   2.011   2.070   6.501 -0.6996 -1.1857  0.0138
12307TIP3    H258337   1.867   2.028   6.515 -0.9533 -0.5007 -0.5009
12308TIP3   OH258338   4.252   5.544  16.835  1.2617  0.6713 -0.2174
12308TIP3    H158339   4.225   5.504  16.752 -0.6417  0.7905  0.2893
12308TIP3    H258340   4.333   5.499  16.858  1.4567  0.1544 -1.7868
12309TIP3   OH258341   1.731   4.403  12.819 -0.2623  0.2848 -0.0545
12309TIP3    H158342   1.765   4.321  12.784 -1.5069  0.2545 -1.2875
12309TIP3    H258343   1.788   4.471  12.783 -1.2310  0.2115 -1.8410
12310TIP3   OH258344   1.182   3.215  16.982  0.6531 -0.6161  0.1994
12310TIP3    H158345   1.219   3.282  16.926  1.4409 -0.4758  0.8780
12310TIP3    H258346   1.102   3.254  17.017 -0.0301 -0.8334 -1.0757
12311TIP3   OH258347   3.347   3.482   2.683  0.3958 -0.3206 -0.0730
12311TIP3    H158348   3.354   3.433   2.765  1.1949 -0.7628 -0.3904
12311TIP3    H258349   3.381   3.421   2.617 -0.2435  0.0318 -0.7289
12312TIP3   OH258350   1.336   2.103  16.869 -0.2798  0.1602 -0.0579
12312TIP3    H158351   1.377   2.107  16.783  1.3547  0.1096  0.6800
12312TIP3    H258352   1.245   2.127  16.853  0.2634  1.3706 -1.6224
12313TIP3   OH258353   5.153   1.265  14.765  0.2112 -0.5780  0.0830
12313TIP3    H158354   5.152   1.205  14.839  2.3644 -0.4467  0.2861
12313TIP3    H258355   5.093   1.336  14.790 -0.9795 -1.7257  0.6011
12314TIP3   OH258356   4.769   2.840   1.026  0.0944  0.0591  0.1132
12314TIP3    H158357   4.779   2.795   1.110  0.6687  0.6147  0.3527
12314TIP3    H258358   4.716   2.917   1.046  0.3386  0.2604 -0.0054
12315TIP3   OH258359   2.551   4.316   2.215 -0.1328  0.2794 -0.5755
12315TIP3    H158360   2.613   4.243   2.226 -0.9874 -0.3248  0.4769
12315TIP3    H258361   2.605   4.391   2.192  0.6655 -0.9531 -3.1286
12316TIP3   OH258362   4.008   6.196   0.263 -0.0368  0.8651  0.2083
12316TIP3    H158363   3.951   6.122   0.284  0.7748  0.1144 -0.1410
12316TIP3    H258364   4.077   6.192   0.329  0.5627  0.6715 -0.4118
12317TIP3   OH258365   6.590   3.211   4.128 -0.2127 -1.1549  0.1710
12317TIP3    H158366   6.495   3.216   4.123 -0.0859  0.9642 -1.3378
12317TIP3    H258367   6.617   3.176   4.043  0.3498 -3.1257  1.0954
12318TIP3   OH258368   2.458   4.374  14.906 -0.0119  0.2225 -0.2605
12318TIP3    H158369   2.412   4.299  14.943  1.4219 -2.3930 -3.3297
12318TIP3    H258370   2.532   4.388  14.965 -1.9532  1.4051  2.0690
12319TIP3   OH258371   1.464   6.049   4.445 -0.2263 -0.3714 -0.4825
12319TIP3    H158372   1.380   6.095   4.444  0.2100  0.6283  2.1243
12319TIP3    H258373   1.529   6.117   4.429  0.2661 -0.5091  0.8239
12320TIP3   OH258374   3.885   1.055  13.143  0.4120 -0.3455  0.4359
12320TIP3    H158375   3.803   1.013  13.118 -0.5677  1.4360  0.4745
12320TIP3    H258376   3.866   1.093  13.229  2.0119 -1.7924  1.4813
12321TIP3   OH258377   4.615   4.348   3.022  0.3577  0.2780 -0.0922
12321TIP3    H158378   4.685   4.289   2.993 -1.6508 -2.6495  0.6382
12321TIP3    H258379   4.568   4.371   2.942 -1.9348 -3.4619 -0.0416
12322TIP3   OH258380   0.526   3.470   3.312 -0.0100  1.1458  0.6357
12322TIP3    H158381   0.616   3.491   3.336  0.3447  0.8514 -0.3757
12322TIP3    H258382   0.473   3.539   3.352  0.5455  0.7422  2.1246
12323TIP3   OH258383   3.057   2.068   0.780 -0.2900  0.3390 -0.4539
12323TIP3    H158384   2.980   2.079   0.836  1.5930  1.2550  2.1585
12323TIP3    H258385   3.078   1.975   0.786 -0.7762  0.2059 -0.6786
12324TIP3   OH258386   0.948   5.160  13.343  0.9244 -0.3282  0.0951
12324TIP3    H158387   0.971   5.235  13.397  2.0419 -0.7855  0.2799
12324TIP3    H258388   1.008   5.165  13.268  1.7233 -1.5712  0.6132
12325TIP3   OH258389   0.247   1.632  16.546 -0.3866  0.0382 -0.1728
12325TIP3    H158390   0.339   1.658  16.552 -0.5979  0.6518  0.7292
12325TIP3    H258391   0.247   1.558  16.485  0.7744 -0.3260  0.2293
12326TIP3   OH258392   5.498   3.360   0.906  0.2949  0.3652  0.0830
12326TIP3    H158393   5.586   3.396   0.906  0.6878 -0.5637  0.3258
12326TIP3    H258394   5.510   3.267   0.887 -0.4376 -0.2194  2.2321
12327TIP3   OH258395   1.590   6.073   2.720 -0.3020  0.2827  0.7882
12327TIP3    H158396   1.622   5.990   2.754  0.2983 -0.0573 -0.5150
12327TIP3    H258397   1.495   6.065   2.722 -0.2749 -1.1002 -0.7418
12328TIP3   OH258398   2.913   5.840  15.149 -0.2809 -0.2941 -0.9837
12328TIP3    H158399   2.984   5.904  15.153  0.6192 -1.1378 -2.4758
12328TIP3    H258400   2.866   5.851  15.232  2.7726 -1.0711  1.0244
12329TIP3   OH258401   5.968   4.399   4.679  0.3245  0.3033 -0.1604
12329TIP3    H158402   6.014   4.334   4.731  1.7126  0.3321 -1.2818
12329TIP3    H258403   5.892   4.424   4.732  1.3300 -0.1118  1.5304
12330TIP3   OH258404   2.089   6.611   5.195 -0.0953 -0.2039 -0.1838
12330TIP3    H158405   2.051   6.591   5.281 -1.5450  0.7029 -0.5804
12330TIP3    H258406   2.016   6.601   5.134  0.2553  1.6321 -0.9746
12331TIP3   OH258407   5.862   2.884  16.318 -0.4935 -0.1051 -0.0972
12331TIP3    H158408   5.911   2.878  16.236 -1.7668 -1.1808 -0.8296
12331TIP3    H258409   5.890   2.966  16.357  0.1782  0.4154 -1.6087
12332TIP3   OH258410   2.114   5.435  17.174 -0.6735  0.0201 -0.2343
12332TIP3    H158411   2.176   5.365  17.155 -0.6971 -0.0161 -0.1783
12332TIP3    H258412   2.043   5.423  17.110  0.0557  0.9321 -1.2514
12333TIP3   OH258413   1.588   1.793  11.264  0.4908  0.2634 -0.9561
12333TIP3    H158414   1.637   1.787  11.346 -0.6015  0.1276 -0.2997
12333TIP3    H258415   1.652   1.768  11.197  1.1469 -0.5515 -0.0642
12334TIP3   OH258416   5.105   3.123  17.143  0.0034 -0.0763 -0.4087
12334TIP3    H158417   5.086   3.201  17.092 -0.5815  0.5021  0.6465
12334TIP3    H258418   5.063   3.052  17.095 -1.4481  0.6108 -0.1992
12335TIP3   OH258419   5.606   6.025  15.134 -0.4401  0.6270 -0.4065
12335TIP3    H158420   5.581   5.932  15.137 -1.0683  0.7907 -0.3007
12335TIP3    H258421   5.653   6.035  15.052  1.1085 -0.1381  0.3448
12336TIP3   OH258422   2.873   0.437  13.332 -0.3728 -0.0869 -0.5221
12336TIP3    H158423   2.859   0.507  13.396  1.2790  0.7353 -0.9919
12336TIP3    H258424   2.846   0.357  13.377 -0.1906  0.5900  0.8379
12337TIP3   OH258425   5.282   6.127   1.316  0.0917 -0.1885  0.1339
12337TIP3    H158426   5.355   6.065   1.321  1.1680  1.0640  0.3827
12337TIP3    H258427   5.277   6.149   1.223  0.8057  0.6017  0.2723
12338TIP3   OH258428   2.560   0.195   2.616  0.2187 -0.0248  0.1607
12338TIP3    H158429   2.591   0.106   2.635  1.8457  0.5150  0.1513
12338TIP3    H258430   2.547   0.195   2.521  2.9841  0.5305 -0.2852
12339TIP3   OH258431   2.637   2.461   0.073 -0.2462 -0.2030  0.7375
12339TIP3    H158432   2.547   2.436   0.053 -0.4743  2.7072 -3.0127
12339TIP3    H258433   2.631   2.553   0.098  1.6296 -0.1660  1.1764
12340TIP3   OH258434   3.553   3.617  15.322 -0.0528  0.5606  0.4920
12340TIP3    H158435   3.569   3.710  15.337 -0.7031  0.7276  0.1885
12340TIP3    H258436   3.459   3.610  15.309 -0.0571 -0.1891  0.8214
12341TIP3   OH258437   5.177   1.806   2.521  0.0328 -0.5096  0.4978
12341TIP3    H158438   5.167   1.866   2.595  1.4064  0.4811 -0.0693
12341TIP3    H258439   5.103   1.745   2.529 -0.2310 -0.0120  2.2738
12342TIP3   OH258440   4.601   4.086  16.896 -0.2384  0.4159 -0.1178
12342TIP3    H158441   4.557   4.011  16.855 -1.8862  1.8794 -1.1950
12342TIP3    H258442   4.683   4.096  16.847  1.3464 -2.2092  1.7569
12343TIP3   OH258443   2.757   6.652  12.090  0.5032  0.6629  0.2604
12343TIP3    H158444   2.786   6.662  12.180  0.2947 -1.1390  0.5629
12343TIP3    H258445   2.667   6.620  12.097  0.4490  0.6041 -0.5931
12344TIP3   OH258446   3.452   4.202  10.824 -0.1989 -0.3705 -0.1828
12344TIP3    H158447   3.508   4.141  10.871 -0.3417  0.5923  1.2873
12344TIP3    H258448   3.485   4.289  10.849 -2.6311  0.2397  1.1536
12345TIP3   OH258449   1.453   2.422  15.369 -0.1330  0.3246  0.4384
12345TIP3    H158450   1.385   2.361  15.398 -0.7019 -0.0833 -1.6157
12345TIP3    H258451   1.461   2.484  15.441 -2.1511 -0.0472  1.0627
12346TIP3   OH258452   0.909   4.793   2.274  0.5302  0.0475 -0.3697
12346TIP3    H158453   0.872   4.768   2.190  2.1128  0.1363 -1.1309
12346TIP3    H258454   1.001   4.810   2.256  1.3002 -1.5058  1.6671
12347TIP3   OH258455   3.845   5.852  11.201  0.0797  0.0938 -0.8361
12347TIP3    H158456   3.821   5.936  11.162  1.0842  1.0830  0.5827
12347TIP3    H258457   3.762   5.805  11.209 -1.1152  2.3396  1.4718
12348TIP3   OH258458   5.376   5.503  13.707 -0.2144  0.0037  0.1945
12348TIP3    H158459   5.455   5.455  13.683 -0.5999 -0.2728 -0.5818
12348TIP3    H258460   5.338   5.453  13.779 -0.1940 -0.4104 -0.0793
12349TIP3   OH258461   5.775   6.078   4.331 -0.1261 -0.2339 -0.0814
12349TIP3    H158462   5.784   6.173   4.322  0.6876 -0.0115  2.3352
12349TIP3    H258463   5.853   6.051   4.379 -0.4807 -2.0985 -0.4828
12350TIP3   OH258464   2.088   2.444   1.571 -0.2700 -0.0862  0.0726
12350TIP3    H158465   2.030   2.517   1.549 -2.0117 -1.5773 -0.5123
12350TIP3    H258466   2.139   2.475   1.647  0.1890  2.2713 -1.1211
12351TIP3   OH258467   2.813   2.798  14.085 -0.5285  0.4196 -0.0916
12351TIP3    H158468   2.852   2.719  14.124  1.5806  1.6003  0.3490
12351TIP3    H258469   2.888   2.851  14.059 -1.7722  0.4347 -4.4229
12352TIP3   OH258470   5.813   2.768  11.540  0.0703  0.6318 -0.2148
12352TIP3    H158471   5.808   2.673  11.541  1.1432  0.5609  0.5621
12352TIP3    H258472   5.765   2.795  11.619 -0.7566  0.7784 -0.7583
12353TIP3   OH258473   6.087   5.131   4.566 -0.1344  0.5140  0.0656
12353TIP3    H158474   6.114   5.052   4.613 -2.9915 -0.3544  0.4177
12353TIP3    H258475   6.116   5.203   4.622  0.6180 -0.3567  0.8242
12354TIP3   OH258476   4.992   4.271   0.492 -0.0327 -0.6587  0.0385
12354TIP3    H158477   5.084   4.247   0.487  0.4525  0.8635  0.9762
12354TIP3    H258478   4.992   4.367   0.486 -1.5504 -0.6380  0.0374
12355TIP3   OH258479   0.974   3.032   3.879  0.1102  0.3951 -0.0663
12355TIP3    H158480   1.058   3.062   3.844 -0.0584  1.3221  0.3026
12355TIP3    H258481   0.911   3.047   3.808  0.4001 -1.2734 -0.7393
12356TIP3   OH258482   6.513   5.532   2.502 -0.2286 -0.1788  0.5378
12356TIP3    H158483   6.423   5.499   2.494 -0.8033  1.4893 -0.5212
12356TIP3    H258484   6.524   5.590   2.427  1.7502 -0.3198  0.6650
12357TIP3   OH258485   1.094   2.459  12.369  0.8593 -0.3674  0.0630
12357TIP3    H158486   1.102   2.481  12.277 -1.5682  0.7066  0.0335
12357TIP3    H258487   1.172   2.496  12.410  0.0537  2.8068 -0.9935
12358TIP3   OH258488   3.692   2.234  12.362  0.4860 -0.0114 -0.1150
12358TIP3    H158489   3.603   2.225  12.330  0.5862 -1.2918 -0.0731
12358TIP3    H258490   3.745   2.250  12.284  0.0849  2.1268 -0.0144
12359TIP3   OH258491   6.260   1.961  14.453 -0.2823  0.1032 -0.3712
12359TIP3    H158492   6.305   2.045  14.450  0.6349 -0.3670 -0.1881
12359TIP3    H258493   6.238   1.942  14.361  1.2608 -0.3604 -0.6816
12360TIP3   OH258494   0.348   3.220  13.485 -0.0570 -0.0256 -0.5469
12360TIP3    H158495   0.344   3.125  13.501 -1.2335 -0.1366 -1.3975
12360TIP3    H258496   0.263   3.253  13.514  0.4552  0.8231  0.0147
12361TIP3   OH258497   3.080   2.952   3.964  0.1331 -0.2135  0.2661
12361TIP3    H158498   2.996   2.907   3.971 -0.3204  0.5399 -0.2238
12361TIP3    H258499   3.068   3.034   4.011  1.2519 -0.9664  1.9702
12362TIP3   OH258500   6.107   6.704  13.222 -0.0346 -0.2365  0.3765
12362TIP3    H158501   6.174   6.731  13.159 -0.2443  0.1399  0.3153
12362TIP3    H258502   6.116   6.766  13.294  0.5717 -0.9932  0.9707
12363TIP3   OH258503   3.538   6.267   5.952 -0.0722  0.5574 -0.2053
12363TIP3    H158504   3.474   6.222   6.007 -1.0009 -0.6095 -2.1306
12363TIP3    H258505   3.534   6.221   5.868  1.5435  2.0238 -1.1529
12364TIP3   OH258506   3.403   1.400   4.079 -0.1461  0.1116 -0.0067
12364TIP3    H158507   3.446   1.418   4.162  2.1549 -0.2482 -1.0251
12364TIP3    H258508   3.446   1.457   4.016  1.6334 -2.9056 -1.7903
12365TIP3   OH258509   0.201   0.972   6.450 -0.1762 -0.1827  0.0854
12365TIP3    H158510   0.121   1.019   6.427 -0.5470 -0.8157  0.0819
12365TIP3    H258511   0.260   0.987   6.376 -0.0319  0.8549  0.3878
12366TIP3   OH258512   3.845   4.683   0.649 -0.0656  0.0280  0.9455
12366TIP3    H158513   3.827   4.666   0.742  1.5563  0.2429  1.3152
12366TIP3    H258514   3.927   4.732   0.648 -1.2768  2.1845 -0.4902
12367TIP3   OH258515   5.234   4.586  14.531 -0.1251 -0.5041  0.2325
12367TIP3    H158516   5.246   4.680  14.517 -1.9399 -0.2191  0.3724
12367TIP3    H258517   5.174   4.559  14.462 -0.1778 -1.4234  0.6219
12368TIP3   OH258518   5.115   5.484   0.093 -0.6120 -0.4053  0.1547
12368TIP3    H158519   5.081   5.525   0.172  1.4651 -0.2584  1.0402
12368TIP3    H258520   5.088   5.542   0.022 -1.2719  0.2421  0.9163
12369TIP3   OH258521   2.822   2.847  12.538 -0.4185  0.2008  0.0818
12369TIP3    H158522   2.831   2.786  12.612  0.3494  1.0947  0.7419
12369TIP3    H258523   2.892   2.822  12.479 -0.8675 -0.3402 -0.2397
12370TIP3   OH258524   0.354   1.378  16.577  0.7918  0.6575  0.3298
12370TIP3    H158525   0.445   1.374  16.547  0.7920  3.4124 -0.3441
12370TIP3    H258526   0.360   1.403  16.669  0.7243  0.5448  0.3638
12371TIP3   OH258527   6.059   0.995   5.703  0.0199  0.0101  0.0272
12371TIP3    H158528   6.150   0.965   5.694 -0.6373 -1.8347 -0.9424
12371TIP3    H258529   6.056   1.035   5.790  2.3222  2.3531 -0.8275
12372TIP3   OH258530   5.540   3.574  16.783  0.6863 -0.3252 -0.4339
12372TIP3    H158531   5.565   3.542  16.696  1.8770  1.0761 -0.6522
12372TIP3    H258532   5.458   3.622  16.767  1.3589  0.6855 -0.9868
12373TIP3   OH258533   5.340   0.912  10.659  0.8411 -0.3934  0.4494
12373TIP3    H158534   5.263   0.859  10.679 -1.3652  2.0919 -0.8021
12373TIP3    H258535   5.322   0.949  10.572  3.4361  0.3909  0.1492
12374TIP3   OH258536   3.751   5.105  13.665 -0.4483  0.2941  0.1126
12374TIP3    H158537   3.739   5.169  13.736 -0.6500  0.0051  0.3417
12374TIP3    H258538   3.829   5.136  13.618 -0.1291  0.3141  0.6496
12375TIP3   OH258539   6.138   4.448   4.296 -0.1429  0.8057  0.3197
12375TIP3    H158540   6.159   4.377   4.236 -2.2223  0.9079 -0.6371
12375TIP3    H258541   6.192   4.432   4.373  0.3859 -1.0608 -0.3916
12376TIP3   OH258542   0.897   0.341  14.646 -0.2792 -0.2264 -0.5723
12376TIP3    H158543   0.811   0.300  14.644  1.4573 -4.4931  1.1067
12376TIP3    H258544   0.911   0.364  14.738  0.9622 -1.1561 -0.5023
12377TIP3   OH258545   5.049   0.904  13.684 -0.9640 -0.1367  0.4204
12377TIP3    H158546   5.095   0.843  13.627 -0.4409 -1.7188  2.3996
12377TIP3    H258547   4.965   0.862  13.702 -0.5537 -0.4021  1.8875
12378TIP3   OH258548   4.429   1.211   0.744 -0.1704 -0.0390 -0.0254
12378TIP3    H158549   4.352   1.181   0.792 -0.1407 -2.2889 -1.2695
12378TIP3    H258550   4.399   1.288   0.696 -1.3766 -0.3393  0.2213
12379TIP3   OH258551   4.134   6.201   1.901  0.1668  0.3911  0.8574
12379TIP3    H158552   4.107   6.137   1.835  1.0241 -1.0077  1.8101
12379TIP3    H258553   4.133   6.285   1.855  0.8128 -0.5470 -0.9659
12380TIP3   OH258554   6.639   3.229  13.561  0.0433 -0.0328 -0.2421
12380TIP3    H158555   6.668   3.159  13.620 -0.5825 -0.3683 -0.3210
12380TIP3    H258556   6.613   3.184  13.481  2.8238  0.5898 -1.6078
12381TIP3   OH258557   2.385   4.153   3.883  0.0622  0.2731  0.0236
12381TIP3    H158558   2.329   4.210   3.936  0.0054  1.0450 -0.8473
12381TIP3    H258559   2.405   4.205   3.805 -0.9077 -1.3010 -1.3312
12382TIP3   OH258560   5.942   1.693  15.861  0.4434 -0.2046 -0.5720
12382TIP3    H158561   5.983   1.649  15.787 -0.9698  0.2103 -1.6357
12382TIP3    H258562   5.943   1.786  15.837  1.1832  0.1046  0.5550
12383TIP3   OH258563   6.154   2.975  14.372  0.4672  0.3788  0.0297
12383TIP3    H158564   6.232   2.925  14.394  0.7921  1.2042  0.8055
12383TIP3    H258565   6.107   2.920  14.309  2.0014  0.1595 -0.9818
12384TIP3   OH258566   4.294   5.739  15.233  0.1005  0.3020 -0.1424
12384TIP3    H158567   4.241   5.670  15.274 -0.6232  0.7549 -0.2936
12384TIP3    H258568   4.280   5.816  15.287 -0.2140  0.6896 -0.7612
12385TIP3   OH258569   6.088   3.694   0.762  0.5640 -0.6694 -0.1752
12385TIP3    H158570   6.018   3.649   0.809  1.4161 -0.8916  0.9198
12385TIP3    H258571   6.150   3.721   0.830  0.7878  0.9101 -0.9494
12386TIP3   OH258572   1.076   4.471  12.431  0.4164 -0.2226 -0.0799
12386TIP3    H158573   1.152   4.491  12.486  2.5429 -1.6769 -2.3059
12386TIP3    H258574   1.112   4.452  12.345 -2.3673 -2.1896 -0.9652
12387TIP3   OH258575   4.318   0.104  11.897 -0.3750 -0.2832  0.3858
12387TIP3    H158576   4.271   0.146  11.825  1.0753  2.7251  1.0417
12387TIP3    H258577   4.403   0.082  11.859  0.0668  0.4762  0.9253
12388TIP3   OH258578   1.384   4.304  14.650  0.2873  0.3077  0.1370
12388TIP3    H158579   1.416   4.377  14.703  2.6216 -0.3779 -0.2216
12388TIP3    H258580   1.293   4.326  14.631  0.7484  2.8206  0.5171
12389TIP3   OH258581   2.643   2.372  12.074 -0.1189 -0.2277  0.2437
12389TIP3    H158582   2.738   2.379  12.063 -0.1679  1.7245  0.5946
12389TIP3    H258583   2.616   2.303  12.014  1.5798 -1.1933  0.5304
12390TIP3   OH258584   1.687   3.720  13.052  0.5796  0.1627  0.0775
12390TIP3    H158585   1.649   3.802  13.083  0.4157  0.1918 -0.2022
12390TIP3    H258586   1.647   3.653  13.108  0.2537  0.2112 -0.0927
12391TIP3   OH258587   1.068   4.855   1.501 -0.1491  0.0009  0.1949
12391TIP3    H158588   1.147   4.904   1.480  0.6449 -0.4774  1.8849
12391TIP3    H258589   0.996   4.907   1.464  0.8667  1.0169 -0.3827
12392TIP3   OH258590   4.226   1.658   2.820  0.6986  0.2869 -0.7289
12392TIP3    H158591   4.185   1.686   2.739  1.3370  0.9765 -0.8242
12392TIP3    H258592   4.265   1.737   2.856 -2.5517  0.8303  2.1099
12393TIP3   OH258593   1.979   0.481   1.953 -0.3402 -0.0021  0.1540
12393TIP3    H158594   1.946   0.547   2.015 -0.6987  1.4774 -1.5260
12393TIP3    H258595   1.918   0.484   1.880  1.4490  0.1495 -1.4070
12394TIP3   OH258596   2.906   3.301   6.109  0.3125  0.3169  0.1633
12394TIP3    H158597   2.946   3.243   6.173  0.4760 -0.1431 -0.3497
12394TIP3    H258598   2.814   3.307   6.136 -0.4292 -2.4645 -1.3460
12395TIP3   OH258599   0.361   5.880  11.115  0.5424 -0.1686 -0.3749
12395TIP3    H158600   0.293   5.837  11.167  3.0656 -3.6530  0.3986
12395TIP3    H258601   0.322   5.891  11.028 -1.9322  0.8026  0.7546
12396TIP3   OH258602   4.016   0.784  15.004  0.0235  0.1824  0.2045
12396TIP3    H158603   4.088   0.783  14.940 -1.6245 -1.6040 -1.7842
12396TIP3    H258604   4.012   0.875  15.034  0.0940  1.5003 -3.2718
12397TIP3   OH258605   2.504   5.022  11.931 -0.0607  0.3444  0.0458
12397TIP3    H158606   2.445   5.014  11.855  0.9185 -0.3978 -0.6661
12397TIP3    H258607   2.447   5.012  12.007 -0.9723  0.4246 -0.6136
12398TIP3   OH258608   3.366   3.755   3.698  0.3252  0.0764  0.6024
12398TIP3    H158609   3.347   3.680   3.755 -1.0185  1.0856  1.5649
12398TIP3    H258610   3.291   3.814   3.711  0.3242  0.6768 -1.6940
12399TIP3   OH258611   6.770   4.396   3.172 -0.1849 -0.1356  0.2567
12399TIP3    H158612   6.862   4.391   3.198 -0.5012  0.0375  1.4745
12399TIP3    H258613   6.756   4.319   3.116  1.1930  0.9205 -1.6597
12400TIP3   OH258614   0.123   2.804  11.111 -0.2788 -0.4459  0.4164
12400TIP3    H158615   0.042   2.755  11.097 -1.3984  0.6363  2.6429
12400TIP3    H258616   0.138   2.800  11.205  0.5747  1.9272  0.4585
12401TIP3   OH258617   1.886   3.396   0.275 -0.1131 -0.0682 -0.2318
12401TIP3    H158618   1.959   3.386   0.335 -0.1890  0.7714  0.0227
12401TIP3    H258619   1.924   3.434   0.196 -0.0963 -0.6838 -0.5220
12402TIP3   OH258620   1.911   1.199   0.759  0.6728 -0.4779 -0.5494
12402TIP3    H158621   1.945   1.131   0.701  0.4740 -0.6563 -0.4576
12402TIP3    H258622   1.960   1.278   0.735  1.2404 -0.7602 -0.3328
12403TIP3   OH258623   6.164   5.307   4.336 -0.3370  0.5389  0.3691
12403TIP3    H158624   6.207   5.226   4.309 -0.1931  1.0535 -1.0785
12403TIP3    H258625   6.219   5.342   4.406  0.0925 -0.1699  0.3905
12404TIP3   OH258626   6.782   5.994  15.756 -0.1752  0.4889  0.2251
12404TIP3    H158627   6.733   5.974  15.836 -0.2067 -0.2127  0.0387
12404TIP3    H258628   6.715   6.002  15.688 -0.0689 -0.0454  0.0526
12405TIP3   OH258629   3.267   5.672   4.154 -0.1398 -0.4462 -0.0904
12405TIP3    H158630   3.325   5.596   4.149 -0.1558 -0.4139 -3.5366
12405TIP3    H258631   3.304   5.726   4.223  0.7124 -2.8773  1.4919
12406TIP3   OH258632   2.422   6.127   1.649 -0.1719 -0.3188  0.1686
12406TIP3    H158633   2.342   6.169   1.616 -0.9867 -0.5989  1.6950
12406TIP3    H258634   2.407   6.118   1.743  0.6638 -2.5868  0.1334
12407TIP3   OH258635   1.815   3.966  11.046 -0.1235 -0.2594  0.4503
12407TIP3    H158636   1.818   3.972  10.950 -1.4690  0.5549  0.4311
12407TIP3    H258637   1.825   4.056  11.076 -0.2279 -0.4410  1.0488
12408TIP3   OH258638   0.472   2.108  16.805 -0.1697 -0.3428 -0.4792
12408TIP3    H158639   0.421   2.086  16.727  0.6117 -0.7434 -0.8909
12408TIP3    H258640   0.560   2.076  16.786  0.8819  2.4587 -0.7911
12409TIP3   OH258641   3.356   6.702   5.691 -0.3513  0.5599 -0.4450
12409TIP3    H158642   3.404   6.621   5.675 -1.6776 -0.5647  0.9851
12409TIP3    H258643   3.369   6.720   5.784 -1.5724  0.9725 -0.3327
12410TIP3   OH258644   1.929   5.882   0.772 -0.2599 -0.5323 -0.0485
12410TIP3    H158645   1.912   5.914   0.683  1.0408 -0.5347 -0.3132
12410TIP3    H258646   1.992   5.811   0.761 -0.5915 -0.9746  0.8255
12411TIP3   OH258647   3.530   2.383   3.457  0.0095 -0.0084  0.8528
12411TIP3    H158648   3.594   2.336   3.403 -1.4148 -0.0924 -0.8758
12411TIP3    H258649   3.447   2.338   3.439 -1.1881  2.3662  0.1303
12412TIP3   OH258650   3.862   1.004   5.537  0.1184 -0.7053  0.1178
12412TIP3    H158651   3.885   1.073   5.474 -2.1559 -0.9644 -1.1086
12412TIP3    H258652   3.879   1.043   5.623  2.0003  0.1583 -0.5776
12413TIP3   OH258653   1.824   3.484   0.582  0.3249 -0.5201 -0.4539
12413TIP3    H158654   1.852   3.573   0.560 -2.2806  0.4634 -0.2455
12413TIP3    H258655   1.890   3.428   0.543  0.9308  1.4577 -2.5205
12414TIP3   OH258656   4.098   5.500   5.952 -0.0083  0.5225  0.4128
12414TIP3    H158657   4.193   5.493   5.962 -0.0466  0.3753  0.6768
12414TIP3    H258658   4.070   5.410   5.935 -0.3582  0.1906  2.5375
12415TIP3   OH258659   4.095   5.732  13.647  0.2487 -0.2626  0.0639
12415TIP3    H158660   4.024   5.682  13.607  0.1636 -0.0258 -0.0877
12415TIP3    H258661   4.175   5.687  13.621  0.3443  1.0128 -2.0942
12416TIP3   OH258662   5.069   5.999  12.835 -0.1806  0.0922 -0.5760
12416TIP3    H158663   5.036   6.074  12.883 -0.6907 -0.3878 -0.1587
12416TIP3    H258664   5.142   6.033  12.783  0.7209  0.5221  0.9214
12417TIP3   OH258665   6.749   0.242  15.799  0.1543  0.1781 -0.4434
12417TIP3    H158666   6.667   0.268  15.840  0.9115  0.7570  0.7419
12417TIP3    H258667   6.804   0.320  15.805  1.5821 -0.8918  0.8442
12418TIP3   OH258668   0.890   4.240  16.105  0.0161  0.0147  0.2973
12418TIP3    H158669   0.951   4.312  16.125 -0.7542  0.3515  1.5166
12418TIP3    H258670   0.872   4.250  16.012  2.1566 -0.3669 -0.2265
12419TIP3   OH258671   3.265   3.021  13.925 -0.2915  0.2650  0.0912
12419TIP3    H158672   3.271   3.082  13.851  0.3127  0.2810  0.1434
12419TIP3    H258673   3.293   3.073  14.001  1.1981 -0.3269 -0.0164
12420TIP3   OH258674   3.883   6.018   2.272 -0.2555  0.3008  0.4886
12420TIP3    H158675   3.883   6.037   2.178 -1.7975 -0.3803  0.3186
12420TIP3    H258676   3.876   5.923   2.277  0.7532  0.2543  1.3141
12421TIP3   OH258677   3.871   0.628  15.331  0.2555 -0.4598  0.2487
12421TIP3    H158678   3.871   0.685  15.408 -1.1917  0.7168 -0.5662
12421TIP3    H258679   3.837   0.545  15.363 -0.5581  0.0865  0.8532
12422TIP3   OH258680   1.417   2.237   0.428 -0.1225  0.2405  0.4246
12422TIP3    H158681   1.342   2.184   0.455 -0.8077  0.7036 -0.5307
12422TIP3    H258682   1.479   2.174   0.391 -0.1462 -0.1093  0.9713
12423TIP3   OH258683   2.408   4.937   1.812 -0.7236  0.7831 -0.0096
12423TIP3    H158684   2.353   4.868   1.850  0.0826  1.1345  1.9296
12423TIP3    H258685   2.346   5.007   1.789 -1.1367  1.2881  2.3890
12424TIP3   OH258686   0.407   0.160  12.481  0.1604 -0.0924  0.1858
12424TIP3    H158687   0.486   0.212  12.470 -0.6425  0.7465 -2.4732
12424TIP3    H258688   0.387   0.164  12.574  1.2356  2.7064  0.3721
12425TIP3   OH258689   0.666   0.195   1.107 -0.0411  0.0467  0.0908
12425TIP3    H158690   0.638   0.185   1.198 -1.4307  0.2333 -0.2895
12425TIP3    H258691   0.659   0.108   1.070  2.7636 -0.5251  0.7124
12426TIP3   OH258692   4.053   2.538  16.948  0.0876  0.8832 -0.2329
12426TIP3    H158693   4.097   2.457  16.921 -1.5627 -0.6422  1.4187
12426TIP3    H258694   4.023   2.577  16.865 -0.6118 -1.1379 -0.9992
12427TIP3   OH258695   2.678   0.050   3.943  0.2913 -0.0760 -0.5374
12427TIP3    H158696   2.705   0.048   4.035  0.4667  1.0352 -0.5477
12427TIP3    H258697   2.589   0.014   3.943  0.1998  0.1353  0.1054
12428TIP3   OH258698   1.903   3.464  14.232  0.1299  0.2475 -0.4284
12428TIP3    H158699   1.841   3.529  14.199 -1.0234 -0.4659  0.2572
12428TIP3    H258700   1.966   3.453  14.162  0.8695  2.7250 -0.2368
12429TIP3   OH258701   6.679   3.813  14.301  0.4070 -0.2718  0.0380
12429TIP3    H158702   6.748   3.870  14.269  2.6282 -1.7314  1.9219
12429TIP3    H258703   6.712   3.725  14.286 -1.1365 -1.0262  0.8434
12430TIP3   OH258704   2.270   4.760  16.059 -0.2848 -0.3839 -0.3011
12430TIP3    H158705   2.364   4.780  16.069 -0.5286 -0.0043  1.7480
12430TIP3    H258706   2.263   4.718  15.974  1.9898 -1.7185  0.0842
12431TIP3   OH258707   2.433   6.052   2.674  0.2795  0.2993  0.0949
12431TIP3    H158708   2.414   6.078   2.764 -2.0897 -0.8290  0.0013
12431TIP3    H258709   2.494   5.979   2.682  1.9675  1.7026  0.6184
12432TIP3   OH258710   1.414   5.097   2.355  0.0805 -0.1833  0.2708
12432TIP3    H158711   1.382   5.013   2.388 -1.4226 -0.0925 -0.8714
12432TIP3    H258712   1.506   5.081   2.336  0.0348 -1.3203  0.8668
12433TIP3   OH258713   2.984   0.089  16.954  0.6947 -0.3855 -0.3395
12433TIP3    H158714   3.030   0.056  16.876  0.3534 -2.2608  0.2114
12433TIP3    H258715   3.046   0.152  16.992  2.5034 -2.2140 -0.0807
12434TIP3   OH258716   3.925   5.437  17.018  0.2492  0.5211  0.1204
12434TIP3    H158717   3.923   5.421  17.112  0.5133  0.3933  0.1060
12434TIP3    H258718   3.833   5.437  16.991  0.0721  1.9855  0.6103
12435TIP3   OH258719   6.765   2.624  16.601 -0.4964  0.1936  0.5698
12435TIP3    H158720   6.816   2.704  16.593  1.0841 -0.9642 -2.2427
12435TIP3    H258721   6.687   2.639  16.547 -0.3522 -0.0627  0.2911
12436TIP3   OH258722   5.972   6.307   3.127 -0.0975 -0.3141  0.1567
12436TIP3    H158723   6.028   6.258   3.187  0.7131  1.2394  0.7446
12436TIP3    H258724   5.915   6.359   3.185  1.1064  1.6640 -0.3381
12437TIP3   OH258725   0.348   2.095   1.100  0.0515  0.3093  0.6545
12437TIP3    H158726   0.409   2.151   1.149  2.1353  0.4782 -1.8972
12437TIP3    H258727   0.362   2.120   1.008 -1.2128 -2.2717 -0.3271
12438TIP3   OH258728   1.907   3.743  12.872  0.2906  0.7267 -0.0174
12438TIP3    H158729   1.860   3.812  12.825 -0.2527  0.3101 -0.0875
12438TIP3    H258730   1.854   3.726  12.949 -0.4692 -0.7579 -0.8201
12439TIP3   OH258731   1.510   6.322  17.122  0.2285  0.5799 -0.2210
12439TIP3    H158732   1.506   6.248  17.183 -0.4953  1.2803  0.6020
12439TIP3    H258733   1.479   6.285  17.039  1.3713 -0.4160 -0.2366
12440TIP3   OH258734   0.768   2.029  15.027 -0.1698  0.3567  0.3843
12440TIP3    H158735   0.810   1.948  15.055 -1.8253 -0.9509 -0.7309
12440TIP3    H258736   0.840   2.080  14.988  0.4591 -1.8387 -1.5688
12441TIP3   OH258737   0.346   1.969  11.387 -0.6364 -0.1048  0.0191
12441TIP3    H158738   0.411   1.970  11.316 -0.6883  0.7600 -0.0229
12441TIP3    H258739   0.262   1.971  11.342 -0.8827 -4.2183 -0.0704
12442TIP3   OH258740   1.513   0.226   1.657  0.6662 -0.2235  0.0381
12442TIP3    H158741   1.578   0.296   1.662  0.3519  0.0454  0.4160
12442TIP3    H258742   1.475   0.221   1.745 -2.3462  2.0914 -0.9575
12443TIP3   OH258743   3.150   0.743  13.154  0.0518  0.7880 -0.0998
12443TIP3    H158744   3.123   0.658  13.120  0.0614  0.9970 -0.6333
12443TIP3    H258745   3.186   0.723  13.241 -0.4486  0.3209  0.0100
12444TIP3   OH258746   2.177   6.595  11.637  0.0289 -0.1810 -0.0433
12444TIP3    H158747   2.178   6.530  11.708  1.2641  0.2527  0.3620
12444TIP3    H258748   2.222   6.553  11.564  0.8625  0.2128  0.2315
12445TIP3   OH258749   3.952   2.415  15.603  0.2854  0.5836  0.3892
12445TIP3    H158750   3.982   2.506  15.593 -0.5983  0.8596  0.2098
12445TIP3    H258751   3.864   2.423  15.638  0.9130 -0.2531  2.2642
12446TIP3   OH258752   5.287   2.261  15.958  0.0440 -0.0170 -0.3267
12446TIP3    H158753   5.306   2.177  16.001 -0.6757 -0.5703 -1.0520
12446TIP3    H258754   5.369   2.310  15.964  0.1957 -0.3913  0.9501
12447TIP3   OH258755   2.122   3.768   0.262  0.1064 -0.0911  0.0232
12447TIP3    H158756   2.095   3.851   0.301  0.2866 -0.1100  0.1928
12447TIP3    H258757   2.054   3.748   0.198  0.2276  0.3507 -0.2495
12448TIP3   OH258758   4.767   6.542  13.674 -0.1927  0.3439 -0.2399
12448TIP3    H158759   4.841   6.531  13.734 -0.3012 -0.3236 -0.2176
12448TIP3    H258760   4.732   6.629  13.694 -1.0219 -0.3616  1.5678
12449TIP3   OH258761   1.534   1.416  12.039  0.1638  0.0983 -0.1918
12449TIP3    H158762   1.503   1.428  11.949  1.2563 -1.6594 -0.8591
12449TIP3    H258763   1.533   1.321  12.052 -0.3543  0.3410  1.8115
12450TIP3   OH258764   1.400   2.011  16.287 -0.5379  1.2225  0.5900
12450TIP3    H158765   1.458   2.076  16.248 -0.5896  2.0699  1.8670
12450TIP3    H258766   1.312   2.040  16.262 -0.4934  0.4494 -0.5731
12451TIP3   OH258767   0.463   6.356   3.300  0.5017 -0.3927  0.2301
12451TIP3    H158768   0.557   6.374   3.305  0.4351  0.0037  0.1004
12451TIP3    H258769   0.430   6.378   3.387  0.4871 -0.2697  0.1942
12452TIP3   OH258770   1.933   1.664   3.775 -0.0305 -0.2475 -0.2109
12452TIP3    H158771   1.963   1.604   3.844 -2.3927 -1.4158 -0.0828
12452TIP3    H258772   1.838   1.654   3.775 -0.6035  3.6790 -0.0972
12453TIP3   OH258773   4.850   5.652   0.247  0.2801 -0.2057 -0.0399
12453TIP3    H158774   4.819   5.585   0.308  1.4536 -1.8499 -1.1691
12453TIP3    H258775   4.773   5.672   0.194 -0.0551 -0.7447  0.2291
12454TIP3   OH258776   4.059   0.925  14.420 -0.2802 -0.0953  0.0696
12454TIP3    H158777   4.013   0.868  14.481  0.4146 -2.2160 -1.2651
12454TIP3    H258778   4.151   0.902  14.430  0.1794  1.7208  0.3510
12455TIP3   OH258779   3.555   1.011  15.642  0.5285  0.0313 -0.4419
12455TIP3    H158780   3.506   0.961  15.707  2.0146 -0.3237  0.4497
12455TIP3    H258781   3.576   0.947  15.574 -1.3025  0.4741 -1.4831
12456TIP3   OH258782   2.271   5.929  12.743  0.1437  0.0173 -0.0413
12456TIP3    H158783   2.264   5.884  12.658 -1.2774  0.0342  0.0469
12456TIP3    H258784   2.181   5.947  12.768  0.6342  2.6966  0.0669
12457TIP3   OH258785   3.486   3.058  16.311  0.0345  0.2250  0.0136
12457TIP3    H158786   3.462   3.010  16.231 -0.7221  0.8274 -0.1393
12457TIP3    H258787   3.444   3.010  16.382  0.2986 -0.0328 -0.0050
12458TIP3   OH258788   5.220   4.366   3.282  0.8394 -0.2555 -0.0807
12458TIP3    H158789   5.174   4.329   3.207  4.1188 -0.6852 -2.0246
12458TIP3    H258790   5.257   4.290   3.328 -0.1245  0.0949  1.3755
12459TIP3   OH258791   0.081   6.086  16.151 -0.5072 -0.3963  0.3803
12459TIP3    H158792   0.145   6.052  16.089 -0.1564  0.6005  0.1769
12459TIP3    H258793   0.008   6.023  16.148 -0.5247 -0.3370 -1.0765
12460TIP3   OH258794   1.426   6.309   2.440 -0.1150 -0.0851  0.3262
12460TIP3    H158795   1.464   6.239   2.386 -0.2242  1.7367 -2.3131
12460TIP3    H258796   1.488   6.321   2.512  2.0663 -0.1875 -1.4127
12461TIP3   OH258797   5.871   5.448   1.880 -1.2380 -0.1447 -0.0836
12461TIP3    H158798   5.899   5.375   1.936 -2.0587 -0.4431 -0.0424
12461TIP3    H258799   5.934   5.518   1.898 -0.1228 -1.0182 -0.5266
12462TIP3   OH258800   3.481   0.944  11.704 -0.4288  0.1151 -0.0758
12462TIP3    H158801   3.442   0.891  11.773  0.3053 -0.5385 -0.1497
12462TIP3    H258802   3.565   0.971  11.740 -0.8280  1.3105 -0.0104
12463TIP3   OH258803   3.819   0.045   2.696 -0.5628  0.1647 -0.5550
12463TIP3    H158804   3.778   0.101   2.761 -0.0590 -0.4832  0.3539
12463TIP3    H258805   3.899   0.091   2.671 -0.2729 -0.0265  0.0076
12464TIP3   OH258806   3.569   6.540   0.012 -0.4117  0.5492 -0.1989
12464TIP3    H158807   3.601   6.609  -0.047  1.2348  0.1241  0.1516
12464TIP3    H258808   3.475   6.555   0.017 -0.0530  3.1366  0.2997
12465TIP3   OH258809   2.352   6.090  14.353  0.0900 -0.1523 -0.4446
12465TIP3    H158810   2.430   6.071  14.300  0.0016 -0.1914 -0.5600
12465TIP3    H258811   2.365   6.040  14.433 -0.6963 -1.6526 -1.2129
12466TIP3   OH258812   1.223   3.086   1.099  0.5528  0.1298 -0.6295
12466TIP3    H158813   1.272   3.097   1.017 -1.8647  1.1566 -2.0496
12466TIP3    H258814   1.132   3.079   1.072 -0.3991  1.0088  2.0224
12467TIP3   OH258815   6.215   3.518  11.845  0.4172  0.6106 -0.5689
12467TIP3    H158816   6.212   3.509  11.940  0.6611  0.8201 -0.5415
12467TIP3    H258817   6.139   3.468  11.814 -0.2183  1.3222 -0.2101
12468TIP3   OH258818   2.412   0.162  13.651 -0.2234  0.3771  0.1464
12468TIP3    H158819   2.443   0.089  13.705 -0.3559  0.4822  0.3695
12468TIP3    H258820   2.344   0.204  13.705 -0.5151  0.3492 -0.1988
12469TIP3   OH258821   3.251   3.624   5.447  0.0408 -0.5202 -0.6795
12469TIP3    H158822   3.167   3.669   5.444  0.8071  1.1988  1.4191
12469TIP3    H258823   3.252   3.578   5.531  0.2983 -2.5088 -1.7030
12470TIP3   OH258824   4.316   0.541  14.281  0.3427 -0.3957 -0.2634
12470TIP3    H158825   4.397   0.547  14.331 -0.1253 -0.3670  0.5015
12470TIP3    H258826   4.247   0.549  14.346 -0.3519 -3.6618 -0.3997
12471TIP3   OH258827   5.704   1.298   0.962 -0.2052 -0.5265  0.4594
12471TIP3    H158828   5.758   1.274   1.037 -1.5133  1.5738  2.1846
12471TIP3    H258829   5.766   1.304   0.889  1.4167 -0.8315  1.7652
12472TIP3   OH258830   6.300   6.430   4.639  0.0876 -0.7632 -0.0605
12472TIP3    H158831   6.251   6.408   4.718  2.1573 -0.9436  1.2756
12472TIP3    H258832   6.320   6.523   4.649 -1.1879 -0.3221 -1.3297
12473TIP3   OH258833   1.174   2.097   4.217  0.6598 -0.6277  0.2687
12473TIP3    H158834   1.220   2.027   4.169 -0.9841 -0.9068 -1.0251
12473TIP3    H258835   1.199   2.084   4.308  0.4292 -2.9395  0.0745
12474TIP3   OH258836   1.120   1.303   2.669 -0.0702 -0.1112  0.3185
12474TIP3    H158837   1.094   1.395   2.665  0.6252  0.0589 -0.9531
12474TIP3    H258838   1.072   1.262   2.598 -0.1687 -0.6789  0.7106
12475TIP3   OH258839   2.257   1.637  12.612 -0.3589 -0.0080 -0.1679
12475TIP3    H158840   2.188   1.699  12.591 -3.2068 -3.0286 -0.6729
12475TIP3    H258841   2.220   1.582  12.681  2.5249 -0.3889  1.2425
12476TIP3   OH258842   5.313   1.041   5.255 -0.1549 -0.1107 -0.5892
12476TIP3    H158843   5.326   1.096   5.178 -0.7175 -0.2492 -0.7849
12476TIP3    H258844   5.287   1.102   5.324  1.0348  0.1117 -0.3092
12477TIP3   OH258845   4.473   0.572  10.766  0.3697  0.3684 -0.0613
12477TIP3    H158846   4.461   0.666  10.785  1.0400  1.0497 -2.5905
12477TIP3    H258847   4.416   0.556  10.690  1.1046 -1.0080 -0.3458
12478TIP3   OH258848   0.169   4.104   5.981 -0.2248 -0.4049 -0.4331
12478TIP3    H158849   0.155   4.182   6.035 -1.8349 -0.7061 -0.3766
12478TIP3    H258850   0.137   4.129   5.894  2.0974 -0.0176 -1.2742
12479TIP3   OH258851   4.371   5.584   5.836 -0.3991  0.0728  0.0039
12479TIP3    H158852   4.402   5.497   5.809 -0.3837 -0.2930  1.1413
12479TIP3    H258853   4.363   5.578   5.931  1.8076  2.0331  0.3813
12480TIP3   OH258854   2.309   5.033  11.716 -0.2991  0.1836  1.0951
12480TIP3    H158855   2.299   5.118  11.674 -0.2573 -0.8189 -1.0724
12480TIP3    H258856   2.244   4.977  11.673  0.5623 -1.2010  1.5379
12481TIP3   OH258857   6.032   2.477   4.346 -0.5198 -0.1512  0.0803
12481TIP3    H158858   5.939   2.464   4.324 -0.4533 -0.2064 -0.1749
12481TIP3    H258859   6.074   2.493   4.261 -0.2376 -0.4772  0.1579
12482TIP3   OH258860   5.437   3.954   2.798  0.1735  0.1688  0.3569
12482TIP3    H158861   5.503   3.885   2.800  1.7260  1.5404 -0.1634
12482TIP3    H258862   5.486   4.033   2.773 -1.2935  1.7019  1.9823
12483TIP3   OH258863   4.814   5.114   0.893  0.1107 -0.1216  0.2280
12483TIP3    H158864   4.755   5.143   0.823  1.0400  0.9570 -0.1465
12483TIP3    H258865   4.858   5.037   0.857  0.0503 -0.0082 -0.0935
12484TIP3   OH258866   2.348   6.124   5.534  0.1310 -0.2355  0.2541
12484TIP3    H158867   2.441   6.130   5.553  0.3922 -0.6621 -0.8242
12484TIP3    H258868   2.338   6.040   5.488 -0.5772  0.3906 -0.7647
12485TIP3   OH258869   2.324   1.640   1.168 -0.9635  0.2484 -0.3256
12485TIP3    H158870   2.287   1.704   1.108 -1.2021  0.4364  0.0160
12485TIP3    H258871   2.392   1.596   1.118 -0.3149  1.2556 -0.3422
12486TIP3   OH258872   0.875   1.371   0.440  0.0012 -0.0367 -0.3734
12486TIP3    H158873   0.867   1.313   0.364  3.6392 -0.9011 -0.2589
12486TIP3    H258874   0.940   1.436   0.414  0.2319  0.5213  1.4753
12487TIP3   OH258875   1.808   5.564   4.544 -0.2312  0.2012 -0.2743
12487TIP3    H158876   1.852   5.483   4.517 -2.7986 -1.7565  1.0250
12487TIP3    H258877   1.761   5.592   4.466 -0.1944 -0.1671 -0.4324
12488TIP3   OH258878   0.174   0.874  13.172  0.2922 -0.2780  0.2107
12488TIP3    H158879   0.195   0.808  13.107  1.0367  1.7474 -1.7341
12488TIP3    H258880   0.204   0.837  13.255  1.5971 -1.9465 -0.9575
12489TIP3   OH258881   6.479   3.273  16.878  0.0708 -0.6872 -0.0267
12489TIP3    H158882   6.510   3.189  16.845 -1.6448 -0.9833 -1.0363
12489TIP3    H258883   6.555   3.331  16.876  0.4190 -1.0926 -3.2067
12490TIP3   OH258884   6.087   2.504   0.335 -0.1134 -0.4752  0.6767
12490TIP3    H158885   6.077   2.416   0.298 -0.3674 -0.5952  1.0197
12490TIP3    H258886   6.180   2.510   0.359  0.1010 -0.3172 -0.1618
12491TIP3   OH258887   1.454   4.452  11.248 -0.8152 -0.1730 -0.2701
12491TIP3    H158888   1.450   4.367  11.205  2.3638 -0.3113 -0.5446
12491TIP3    H258889   1.382   4.502  11.209 -0.6399 -1.6370 -2.6513
12492TIP3   OH258890   3.788   4.014   1.284 -0.1845  0.4433  0.2778
12492TIP3    H158891   3.790   3.943   1.220  0.7169  0.8061 -0.1044
12492TIP3    H258892   3.877   4.047   1.287 -0.4256  1.0671  1.0199
12493TIP3   OH258893   6.587   1.665  16.735 -0.0095 -0.6554 -0.4067
12493TIP3    H158894   6.526   1.600  16.769 -0.9219 -0.2023 -1.1253
12493TIP3    H258895   6.570   1.667  16.641  1.1938 -0.5812 -0.6417
12494TIP3   OH258896   3.591   1.203   2.664  0.1860  0.3202  0.2458
12494TIP3    H158897   3.513   1.210   2.720  0.3880  2.1437  0.3517
12494TIP3    H258898   3.664   1.217   2.724  0.4454  1.4151 -0.3071
12495TIP3   OH258899   3.673   2.833  15.020 -0.0102  0.2250 -0.0214
12495TIP3    H158900   3.705   2.747  14.993  1.2080  1.1313 -1.6578
12495TIP3    H258901   3.740   2.866  15.080 -0.2167  0.2584  0.1940
12496TIP3   OH258902   1.245   0.226  14.328  0.5862 -0.3795  0.2749
12496TIP3    H158903   1.184   0.292  14.361  1.5892  0.3856  0.6455
12496TIP3    H258904   1.218   0.145  14.370 -1.9089 -0.6899 -1.6688
12497TIP3   OH258905   5.785   5.046   4.612 -0.1634 -0.5036 -0.0426
12497TIP3    H158906   5.753   4.972   4.559  0.3304 -1.9415  1.5659
12497TIP3    H258907   5.874   5.062   4.580 -0.6643  0.1557 -1.1428
12498TIP3   OH258908   4.063   0.640  16.076  0.4293 -0.4664  0.4261
12498TIP3    H158909   4.126   0.589  16.025 -0.2219  0.8833 -1.8781
12498TIP3    H258910   4.064   0.726  16.035  0.0085  0.8001  2.9147
12499TIP3   OH258911   2.873   1.442   2.883  0.2804  0.1836 -0.5363
12499TIP3    H158912   2.803   1.404   2.831 -0.3288  0.0440  0.3624
12499TIP3    H258913   2.865   1.400   2.969  0.5479  1.2266  0.0189
12500TIP3   OH258914   5.016   1.012   1.368 -0.4847 -0.1225 -0.1891
12500TIP3    H158915   5.041   1.080   1.430 -1.9819  0.0856  0.2309
12500TIP3    H258916   4.994   0.936   1.422 -2.1222  0.1638 -0.3931
12501TIP3   OH258917   6.200   1.116  13.956 -0.1760 -0.0910  0.3789
12501TIP3    H158918   6.288   1.144  13.982  0.3020 -0.0277 -1.2270
12501TIP3    H258919   6.213   1.031  13.916 -1.2105 -1.2623  2.3539
12502TIP3   OH258920   2.859   0.229  14.389 -0.0964 -0.1733 -0.7636
12502TIP3    H158921   2.880   0.240  14.296  1.4764 -1.8973 -0.6738
12502TIP3    H258922   2.868   0.316  14.426  1.6674  0.1617 -1.8335
12503TIP3   OH258923   3.710   4.985  16.379 -0.2530  0.3089  0.1697
12503TIP3    H158924   3.723   4.933  16.299 -1.6958 -0.5839  0.4773
12503TIP3    H258925   3.782   4.960  16.436 -1.2652 -1.9227  0.5706
12504TIP3   OH258926   1.098   3.403   3.500 -0.2508 -0.2491 -0.3051
12504TIP3    H158927   1.096   3.497   3.516  0.1831 -0.0557 -1.3140
12504TIP3    H258928   1.132   3.394   3.411  0.2662 -1.3854 -0.0212
12505TIP3   OH258929   4.464   4.808   3.043  0.6539 -0.3292 -0.2542
12505TIP3    H158930   4.527   4.748   3.085 -1.2042 -2.5671 -0.4548
12505TIP3    H258931   4.459   4.778   2.953 -0.5349 -0.0430 -0.2938
12506TIP3   OH258932   2.988   0.577   0.535  0.1166  0.4512  0.4022
12506TIP3    H158933   3.012   0.521   0.461 -0.2826  1.3209 -0.3968
12506TIP3    H258934   3.072   0.603   0.573  0.3330 -1.7073  1.6214
12507TIP3   OH258935   5.061   3.793   5.863 -0.5281  0.0330  0.4337
12507TIP3    H158936   5.081   3.780   5.956 -0.3422 -1.0367  0.2570
12507TIP3    H258937   4.965   3.791   5.859 -0.5889  1.3486  0.7590
12508TIP3   OH258938   1.242   3.676  15.829 -1.2355  0.2231  0.3091
12508TIP3    H158939   1.193   3.637  15.902  1.0285 -1.6950  0.9053
12508TIP3    H258940   1.333   3.677  15.858 -0.5819  1.8006 -1.5469
12509TIP3   OH258941   0.588   0.688  10.720  0.5220 -0.4180  0.2321
12509TIP3    H158942   0.631   0.605  10.738  1.3902 -0.0505 -0.1406
12509TIP3    H258943   0.615   0.745  10.792  1.1729  0.0012 -0.3387
12510TIP3   OH258944   2.388   0.714   1.752  0.3105 -0.5599 -0.1146
12510TIP3    H158945   2.349   0.726   1.838 -0.0047 -0.5952 -0.2509
12510TIP3    H258946   2.473   0.673   1.769  0.1203 -0.8404  0.1613
12511TIP3   OH258947   2.180   3.369   2.953  0.6842  0.3349 -0.3180
12511TIP3    H158948   2.263   3.322   2.960  1.9096  2.2733 -0.7852
12511TIP3    H258949   2.136   3.328   2.879  2.5079  0.9971 -1.8710
12512TIP3   OH258950   2.973   4.426   5.076 -0.0859  0.6538  0.0722
12512TIP3    H158951   2.918   4.354   5.106 -1.1833  0.8964 -1.2202
12512TIP3    H258952   3.055   4.385   5.050  0.0151  0.1527  1.1550
12513TIP3   OH258953   5.566   4.812  16.849 -0.1405 -0.0601  0.0705
12513TIP3    H158954   5.513   4.876  16.801  0.1099 -0.7998 -1.2518
12513TIP3    H258955   5.543   4.825  16.940 -2.4710 -0.2257 -0.4360
12514TIP3   OH258956   6.529   5.684  11.042  0.1151 -0.9063  0.1014
12514TIP3    H158957   6.606   5.740  11.032 -0.8991  0.4157 -0.6282
12514TIP3    H258958   6.474   5.731  11.105  0.0324 -2.0259  0.9054
12515TIP3   OH258959   2.353   3.577  15.092 -0.2145  0.5920 -0.0943
12515TIP3    H158960   2.397   3.658  15.067  1.1231  0.1008  0.5640
12515TIP3    H258961   2.349   3.525  15.012  0.9978  0.3922 -0.0358
12516TIP3   OH258962   4.645   6.614   2.031  0.6666 -0.0011 -0.0653
12516TIP3    H158963   4.639   6.619   2.126  2.2547 -1.6963  0.1796
12516TIP3    H258964   4.558   6.640   2.000  0.1007  0.5276  1.8252
12517TIP3   OH258965   0.324   5.484  13.108  0.3414 -0.3187  0.0956
12517TIP3    H158966   0.249   5.429  13.087  1.9012 -2.2679 -0.7560
12517TIP3    H258967   0.346   5.462  13.198 -0.4215  0.6931  0.5474
12518TIP3   OH258968   3.291   3.950   1.321  0.0101  0.7587  0.6766
12518TIP3    H158969   3.377   3.932   1.359 -0.2254 -2.3493  0.0040
12518TIP3    H258970   3.229   3.928   1.390 -0.3286 -2.6285 -0.5068
12519TIP3   OH258971   4.437   1.076   4.811  0.3740  0.0330  0.3408
12519TIP3    H158972   4.435   0.988   4.849 -0.7092  0.0766  0.4142
12519TIP3    H258973   4.439   1.134   4.887  0.6336  0.0864  0.2953
12520TIP3   OH258974   1.704   4.471  14.005 -0.0886 -0.5666 -0.0075
12520TIP3    H158975   1.710   4.411  13.930  0.4225 -0.7461  0.1803
12520TIP3    H258976   1.717   4.416  14.082 -2.4045 -0.7178  0.3489
12521TIP3   OH258977   1.748   3.922  17.020  0.0691 -0.2256  0.1779
12521TIP3    H158978   1.701   4.000  17.049 -1.1760 -1.6999  2.4110
12521TIP3    H258979   1.838   3.934  17.051 -0.4003 -0.1806  1.5818
12522TIP3   OH258980   5.678   2.675   6.077 -0.5241  0.0508 -0.5158
12522TIP3    H158981   5.607   2.732   6.107  0.3150  0.9065 -0.1061
12522TIP3    H258982   5.635   2.593   6.054 -1.5686  0.3676  0.2569
12523TIP3   OH258983   0.821   4.016   0.704  0.3697  0.2375 -0.1319
12523TIP3    H158984   0.858   3.993   0.790 -0.1175 -0.5995 -0.1335
12523TIP3    H258985   0.894   4.055   0.656  1.4326 -1.8308 -0.3058
12524TIP3   OH258986   3.923   2.973   5.503 -0.5829 -0.0868 -0.3847
12524TIP3    H158987   4.011   3.002   5.528 -0.1145 -1.5810 -0.1850
12524TIP3    H258988   3.898   3.032   5.432  0.9491 -0.1734 -1.0412
12525TIP3   OH258989   3.140   4.700  16.480 -1.2717  0.5083  0.1082
12525TIP3    H158990   3.118   4.607  16.475 -1.0319  0.4235  0.5566
12525TIP3    H258991   3.061   4.745  16.452 -0.6100  0.1354 -2.6574
12526TIP3   OH258992   2.687   6.683   1.543 -0.1857  0.0086  0.3602
12526TIP3    H158993   2.644   6.731   1.615 -1.3859 -1.0120  0.3590
12526TIP3    H258994   2.656   6.593   1.552  2.6279 -1.0137  0.8296
12527TIP3   OH258995   1.148   1.866   0.015  0.1081  0.2267  0.0747
12527TIP3    H158996   1.209   1.808   0.060  0.5641  0.7379  0.1217
12527TIP3    H258997   1.063   1.822   0.023  0.0645  0.5433  1.8991
12528TIP3   OH258998   4.719   3.964   2.164 -0.6274 -0.0254  0.3768
12528TIP3    H158999   4.814   3.964   2.174 -0.6503  0.3408  0.6307
12528TIP3    H259000   4.690   4.041   2.214 -0.8322  1.4508 -1.8865
12529TIP3   OH259001   4.633   1.274  11.708 -0.2274 -0.1897 -0.1435
12529TIP3    H159002   4.583   1.356  11.709 -1.3357 -0.8531 -0.6194
12529TIP3    H259003   4.663   1.265  11.617  0.9935  0.3211  0.1819
12530TIP3   OH259004   4.105   0.581  12.996 -0.1942 -0.3613  0.0784
12530TIP3    H159005   4.188   0.565  13.041 -0.4606  0.1601  0.7817
12530TIP3    H259006   4.063   0.651  13.047 -1.2968 -0.9709  0.0452
12531TIP3   OH259007   3.724   0.892  15.247 -1.1789  0.3018 -0.0763
12531TIP3    H159008   3.684   0.930  15.169 -0.5774  0.2867 -0.3958
12531TIP3    H259009   3.706   0.798  15.240 -0.5079  0.2063 -0.5653
12532TIP3   OH259010   5.141   3.537  14.149 -0.1362  0.3454  0.5333
12532TIP3    H159011   5.211   3.534  14.214  0.6334  0.3235 -0.2713
12532TIP3    H259012   5.067   3.495  14.191  0.8261 -1.1162  0.8309
12533TIP3   OH259013   6.366   0.567  17.043  0.0064 -0.2795  0.2927
12533TIP3    H159014   6.426   0.551  16.971 -1.3698  1.3510 -1.3090
12533TIP3    H259015   6.400   0.646  17.086  0.6054 -1.0247  1.2240
12534TIP3   OH259016   4.838   4.771  13.667  0.5083  0.1943 -0.3189
12534TIP3    H159017   4.905   4.715  13.630 -0.9621 -1.2754 -0.8849
12534TIP3    H259018   4.768   4.711  13.693 -0.3831  1.6078  0.7289
12535TIP3   OH259019   5.245   2.116  15.466  0.8645 -0.0523 -0.3211
12535TIP3    H159020   5.331   2.117  15.507  1.3410 -2.9341 -1.0609
12535TIP3    H259021   5.187   2.083  15.535  0.4346  1.2842 -0.0199
12536TIP3   OH259022   4.822   5.526  13.634 -0.2092  0.1494  0.0385
12536TIP3    H159023   4.881   5.504  13.562  1.2091  1.7988  0.6287
12536TIP3    H259024   4.736   5.537  13.592  0.6016  1.1749 -1.4343
12537TIP3   OH259025   1.382   2.039  13.529  0.0377 -0.3398  0.2145
12537TIP3    H159026   1.407   2.128  13.503 -2.9418  0.3273 -0.7496
12537TIP3    H259027   1.398   2.037  13.624  1.1245  0.8456  0.0873
12538TIP3   OH259028   4.633   4.973  15.584  0.3406  0.3487  0.2095
12538TIP3    H159029   4.681   4.994  15.664 -0.5007  2.0023  0.3092
12538TIP3    H259030   4.668   5.033  15.518  0.1775 -0.1742 -0.3594
12539TIP3   OH259031   5.022   2.132   4.721 -0.0822 -0.1025  0.7019
12539TIP3    H159032   5.060   2.217   4.700 -2.6167  0.5307 -1.9074
12539TIP3    H259033   5.076   2.068   4.674 -0.3771  0.4584 -0.4186
12540TIP3   OH259034   0.332   2.763   0.519  0.2010 -0.1273 -0.0785
12540TIP3    H159035   0.358   2.849   0.552 -0.8040 -0.3430  1.3428
12540TIP3    H259036   0.294   2.781   0.433  0.1524  0.8265  0.1348
12541TIP3   OH259037   3.224   1.610  12.416 -0.0295 -0.1437  0.6729
12541TIP3    H159038   3.215   1.705  12.411 -1.7030 -0.2597  0.8132
12541TIP3    H259039   3.316   1.593  12.397 -0.1837  1.3222 -1.8676
12542TIP3   OH259040   0.206   4.962   4.100  0.3007  0.4095  0.6790
12542TIP3    H159041   0.195   4.999   4.188 -1.6074  0.9305  0.2687
12542TIP3    H259042   0.145   5.012   4.046 -0.3470 -1.5009 -0.4570
12543TIP3   OH259043   4.831   5.656   5.802 -0.1053 -0.0822  0.1574
12543TIP3    H159044   4.810   5.654   5.896  2.7209  0.7029  0.9215
12543TIP3    H259045   4.864   5.568   5.783 -0.7476 -0.2625 -0.1310
12544TIP3   OH259046   1.912   5.295  13.371 -0.0446  0.1118  0.9743
12544TIP3    H159047   1.894   5.270  13.280 -1.9485  0.9467  1.0612
12544TIP3    H259048   2.006   5.308  13.375  0.0696  0.0824 -0.9002
12545TIP3   OH259049   4.202   5.486   1.115 -0.4245 -0.3357 -0.0215
12545TIP3    H159050   4.213   5.538   1.035 -0.9567 -0.9192 -0.4888
12545TIP3    H259051   4.290   5.478   1.151 -0.2084  0.0965 -0.4391
12546TIP3   OH259052   2.659   1.386   0.573 -0.1300  0.6126  0.4791
12546TIP3    H159053   2.631   1.328   0.502  0.6386  0.7059  0.0847
12546TIP3    H259054   2.693   1.326   0.640  1.1809  0.5990 -0.1584
12547TIP3   OH259055   0.131   5.254   6.141 -0.4233  0.8712  0.1012
12547TIP3    H159056   0.213   5.217   6.109 -1.2944 -0.3240 -0.8127
12547TIP3    H259057   0.158   5.319   6.206  1.4094  2.6542 -2.2279
12548TIP3   OH259058   6.682   3.540   4.376  0.2462 -0.0142  0.1131
12548TIP3    H159059   6.619   3.612   4.375 -1.5615 -1.5398  0.3126
12548TIP3    H259060   6.753   3.573   4.432 -1.7245  0.7018  2.4125
12549TIP3   OH259061   4.763   4.707   3.585 -0.4188  0.2413  0.4296
12549TIP3    H159062   4.738   4.626   3.628  0.2147 -0.8483 -1.1256
12549TIP3    H259063   4.859   4.706   3.586 -0.3439 -0.3026 -1.7186
12550TIP3   OH259064   1.090   3.322  10.422  0.1573 -0.0621  0.0236
12550TIP3    H159065   1.035   3.389  10.462  0.6742  0.5165 -0.2222
12550TIP3    H259066   1.079   3.334  10.328  0.5030 -0.1124 -0.0245
12551TIP3   OH259067   5.309   4.999   3.037 -0.4721 -0.7164 -0.3916
12551TIP3    H159068   5.394   4.956   3.047 -0.4361 -0.7006 -0.6155
12551TIP3    H259069   5.301   5.014   2.942 -0.9559 -1.1866 -0.4274
12552TIP3   OH259070   0.677   3.563  13.818 -0.6106  0.2967  0.3127
12552TIP3    H159071   0.705   3.655  13.815 -0.6545  0.2930 -1.9269
12552TIP3    H259072   0.582   3.568  13.832 -0.7092  0.6207 -0.4473
12553TIP3   OH259073   2.772   4.640   3.941 -0.4807  0.0763 -0.1964
12553TIP3    H159074   2.749   4.548   3.956  0.1997 -0.2284 -0.9542
12553TIP3    H259075   2.728   4.687   4.011 -1.0340 -0.8044  0.0641
12554TIP3   OH259076   2.596   0.197  15.609  0.3681  0.3266 -0.3549
12554TIP3    H159077   2.549   0.280  15.600  0.5766  0.2697 -2.4412
12554TIP3    H259078   2.528   0.134  15.634 -0.7147  0.3051 -3.0074
12555TIP3   OH259079   1.462   6.592   3.560  1.1380 -0.3042  0.0647
12555TIP3    H159080   1.476   6.519   3.499  0.2035 -0.1612 -0.3343
12555TIP3    H259081   1.413   6.657   3.509 -0.0026 -0.3390  1.0653
12556TIP3   OH259082   5.225   1.109   4.591  0.2297  0.3260 -0.0730
12556TIP3    H159083   5.154   1.057   4.553 -0.0889 -0.1874  1.1741
12556TIP3    H259084   5.202   1.200   4.569 -1.0359  0.2016  0.6166
12557TIP3   OH259085   3.302   0.342  11.538 -0.6186  0.4198  0.1689
12557TIP3    H159086   3.305   0.312  11.447 -0.5419  0.1250  0.2697
12557TIP3    H259087   3.343   0.429  11.535 -0.8482  0.5216 -0.1192
12558TIP3   OH259088   3.741   2.317  12.628 -0.1726 -0.1211 -0.4588
12558TIP3    H159089   3.713   2.270  12.549  1.5351 -1.0587 -0.5559
12558TIP3    H259090   3.688   2.279  12.698 -0.8834 -0.1015 -0.9700
12559TIP3   OH259091   5.225   2.697  16.197  0.3033  0.3819  0.8845
12559TIP3    H159092   5.294   2.720  16.135  0.8652  0.0070  1.3585
12559TIP3    H259093   5.216   2.775  16.252  0.4272  0.3875  0.8954
12560TIP3   OH259094   6.370   6.005   4.898  0.0309  0.3522  0.0367
12560TIP3    H159095   6.296   6.057   4.867 -1.1364 -0.6592  1.0019
12560TIP3    H259096   6.335   5.916   4.908  1.5180 -0.2653  0.0219
12561TIP3   OH259097   2.108   6.746  16.950  0.0586  0.6165  0.2717
12561TIP3    H159098   2.161   6.706  16.882 -0.4200  1.4675 -0.6118
12561TIP3    H259099   2.038   6.682  16.966 -1.0641  1.2973 -1.5815
12562TIP3   OH259100   2.077   2.834  13.571 -0.1556  0.3700 -0.6377
12562TIP3    H159101   2.075   2.743  13.542  0.1958  0.0885  0.1903
12562TIP3    H259102   1.987   2.864  13.564 -0.6938 -0.7104  1.1025
12563TIP3   OH259103   6.071   1.902  15.259 -0.4042  0.5741 -0.4371
12563TIP3    H159104   6.139   1.918  15.325  0.6824  0.4912 -1.5109
12563TIP3    H259105   6.095   1.818  15.220 -1.3299  0.3799 -0.6077
12564TIP3   OH259106   4.500   5.242   3.696  0.1999  0.2065  0.2272
12564TIP3    H159107   4.484   5.148   3.686  2.3283 -0.2968  1.1387
12564TIP3    H259108   4.413   5.282   3.689 -0.8271 -1.8730  0.4690
12565TIP3   OH259109   4.566   1.005  16.875 -0.0349  0.3257  0.0389
12565TIP3    H159110   4.596   0.915  16.885 -0.8952 -0.0069 -0.3256
12565TIP3    H259111   4.630   1.044  16.814  0.8960  0.2572  0.9433
12566TIP3   OH259112   2.240   5.738  10.542  0.3663 -0.2058 -0.4123
12566TIP3    H159113   2.224   5.767  10.631 -1.5077 -0.9674 -0.4612
12566TIP3    H259114   2.201   5.806  10.487  1.4822  0.2441 -0.6782
12567TIP3   OH259115   5.289   2.206   0.558 -0.2584 -0.3536  0.3640
12567TIP3    H159116   5.208   2.210   0.609 -1.2212  0.4677 -1.1867
12567TIP3    H259117   5.348   2.268   0.602 -0.8520 -0.1166  0.8362
12568TIP3   OH259118   3.571   6.775   1.504  0.2623 -0.0387  0.2564
12568TIP3    H159119   3.555   6.714   1.576 -0.8440  1.2012  1.1228
12568TIP3    H259120   3.484   6.797   1.472  0.7511 -0.9932 -1.8835
12569TIP3   OH259121   2.835   6.088   2.829  0.0113 -0.0988 -0.1441
12569TIP3    H159122   2.853   6.049   2.915  1.1314 -0.1730 -0.3911
12569TIP3    H259123   2.794   6.017   2.779  0.6459 -0.5060 -0.1059
12570TIP3   OH259124   3.418   5.403   1.654  0.1999  0.0908  0.1362
12570TIP3    H159125   3.369   5.328   1.619  1.1013 -0.0110 -0.9831
12570TIP3    H259126   3.459   5.442   1.577 -0.5292  1.9706  0.6473
12571TIP3   OH259127   3.657   6.733   5.145  0.1480  0.1613 -0.2064
12571TIP3    H159128   3.565   6.739   5.118  0.4430 -1.4426 -1.8066
12571TIP3    H259129   3.684   6.824   5.158 -0.5293  1.0887 -3.9735
12572TIP3   OH259130   3.703   1.698   0.843  0.2129  0.2274  0.5312
12572TIP3    H159131   3.782   1.645   0.854  0.0534  0.0954  1.0651
12572TIP3    H259132   3.640   1.639   0.801  0.5988  0.5249 -0.4876
12573TIP3   OH259133   6.422   6.172  11.608 -0.2694 -0.1063  0.1852
12573TIP3    H159134   6.457   6.261  11.602  0.3414 -0.3682 -0.2844
12573TIP3    H259135   6.367   6.163  11.531 -1.2994  0.2626  0.8602
12574TIP3   OH259136   3.488   6.739   4.537  0.2062  0.2283 -0.1914
12574TIP3    H159137   3.509   6.829   4.511 -0.2038  0.1652 -0.7636
12574TIP3    H259138   3.537   6.684   4.475 -1.3113  0.0790 -1.3074
12575TIP3   OH259139   2.750   3.784  14.259 -0.0812  0.2136  0.0769
12575TIP3    H159140   2.674   3.842  14.253  0.4085  1.2817  2.7528
12575TIP3    H259141   2.715   3.702  14.293 -0.1598  0.5369  0.8110
12576TIP3   OH259142   1.854   1.461  12.142 -0.3299 -0.1813 -0.2495
12576TIP3    H159143   1.797   1.444  12.067  0.8275 -1.8911 -0.7905
12576TIP3    H259144   1.803   1.433  12.218 -0.8847  0.0003 -0.5527
12577TIP3   OH259145   0.951   4.423   4.676  0.1747  0.1727  0.1414
12577TIP3    H159146   1.042   4.396   4.664  0.4922  0.4994  1.6019
12577TIP3    H259147   0.908   4.346   4.713  0.1714  0.4217  0.6648
12578TIP3   OH259148   4.403   1.689  16.069  0.7585 -0.5835  0.2328
12578TIP3    H159149   4.469   1.645  16.016 -0.5312  0.0244 -2.0082
12578TIP3    H259150   4.424   1.782  16.061  1.0847 -0.5151  1.6155
12579TIP3   OH259151   0.145   3.322  12.585  0.6143  0.0361 -0.0866
12579TIP3    H159152   0.197   3.349  12.509 -1.4000 -1.0263 -1.9448
12579TIP3    H259153   0.059   3.359  12.570 -0.3140 -1.6539  0.7569
12580TIP3   OH259154   6.465   5.824  16.124 -0.4295  0.0990 -0.6296
12580TIP3    H159155   6.380   5.866  16.131 -1.1940 -1.3909 -0.4566
12580TIP3    H259156   6.500   5.824  16.213 -0.5239  0.1838 -0.5916
12581TIP3   OH259157   4.073   6.184   4.314  0.1988  0.4254  0.0198
12581TIP3    H159158   4.058   6.146   4.228  1.4584  2.7574 -1.3070
12581TIP3    H259159   4.166   6.205   4.316  0.9353 -2.2897  3.1859
12582TIP3   OH259160   0.294   0.195   4.543  0.4181  0.2410 -0.5782
12582TIP3    H159161   0.283   0.136   4.469 -1.3418  0.2376 -0.3413
12582TIP3    H259162   0.375   0.166   4.585 -0.5257 -2.1711 -0.3110
12583TIP3   OH259163   5.731   6.464   3.271  0.0934  0.2362 -0.1590
12583TIP3    H159164   5.659   6.528   3.277  0.2431  0.2596  1.9531
12583TIP3    H259165   5.733   6.421   3.356  1.1995 -1.3287 -0.9149
12584TIP3   OH259166   3.055   0.802  11.464  0.3928 -0.8080 -0.5778
12584TIP3    H159167   3.039   0.832  11.553 -1.1520  0.2110 -1.1663
12584TIP3    H259168   3.133   0.850  11.436  0.3453 -0.4500 -0.0991
12585TIP3   OH259169   0.219   6.353  15.884 -0.0257 -0.4458 -0.4704
12585TIP3    H159170   0.184   6.267  15.908  1.0551 -0.7287  0.2011
12585TIP3    H259171   0.198   6.409  15.959  0.7702 -0.5820 -0.1269
12586TIP3   OH259172   0.377   5.118   0.407  0.3224 -0.3204 -0.3611
12586TIP3    H159173   0.408   5.171   0.333 -1.5444  0.0334 -0.9576
12586TIP3    H259174   0.308   5.171   0.446  1.1494 -0.5963  1.5573
12587TIP3   OH259175   4.999   3.837   0.613 -0.6327 -0.3130 -0.2013
12587TIP3    H159176   5.011   3.929   0.635  0.3210 -0.6546  0.8281
12587TIP3    H259177   4.967   3.797   0.694 -0.4992 -0.9812 -0.4718
12588TIP3   OH259178   1.127   6.749   3.602 -0.5609 -0.1403 -0.1277
12588TIP3    H159179   1.111   6.655   3.601  0.1442 -0.2609 -0.3660
12588TIP3    H259180   1.040   6.788   3.607 -0.8379 -0.8127  0.5927
12589TIP3   OH259181   0.249   6.421   5.972  0.0650 -0.5159 -0.0911
12589TIP3    H159182   0.186   6.488   5.946  1.0109 -0.0429 -1.2328
12589TIP3    H259183   0.311   6.468   6.029  1.6960  0.0482 -2.2280
12590TIP3   OH259184   1.898   5.914  15.545 -0.7646  0.3314 -0.0436
12590TIP3    H159185   1.902   6.008  15.530  1.5440  0.3335  0.1288
12590TIP3    H259186   1.990   5.887  15.550 -1.2099 -1.1951  4.3492
12591TIP3   OH259187   1.040   5.691  16.176  0.8848  0.3573  0.1950
12591TIP3    H159188   0.970   5.662  16.117  2.0994 -1.5119 -0.4061
12591TIP3    H259189   1.012   5.778  16.204 -0.6946  0.5154 -1.6178
12592TIP3   OH259190   3.378   1.698   3.038 -0.2652 -0.4942 -0.2860
12592TIP3    H159191   3.419   1.785   3.048  2.3694 -1.4781 -1.4798
12592TIP3    H259192   3.354   1.694   2.945 -0.9145 -0.8458 -0.1063
12593TIP3   OH259193   3.904   6.165  13.875 -0.2975 -0.0390  0.0485
12593TIP3    H159194   3.928   6.151  13.783 -1.4610  0.4496 -0.3455
12593TIP3    H259195   3.901   6.260  13.885 -3.5128  0.0325 -0.3878
12594TIP3   OH259196   3.853   2.375  16.304  0.8311  0.5766 -0.3087
12594TIP3    H159197   3.761   2.355  16.321  1.0781  0.8673  1.5288
12594TIP3    H259198   3.883   2.422  16.382  2.3430  1.1810 -1.2023
12595TIP3   OH259199   3.060   4.436  16.492  0.4430 -0.2949 -0.6706
12595TIP3    H159200   3.136   4.382  16.515  0.8485  0.7129  0.4922
12595TIP3    H259201   3.010   4.382  16.431  2.3546 -0.7652 -1.9011
12596TIP3   OH259202   5.286   5.570   4.495  0.2525  0.6129 -0.1442
12596TIP3    H159203   5.254   5.557   4.406  0.5319  1.4060 -0.3692
12596TIP3    H259204   5.346   5.645   4.489 -0.2694  1.1316  0.8337
12597TIP3   OH259205   6.553   2.435  13.347 -0.1199 -0.4741 -0.6118
12597TIP3    H159206   6.471   2.393  13.375 -0.1061 -0.3702 -0.4215
12597TIP3    H259207   6.589   2.473  13.426 -0.3880  0.3451 -0.8746
12598TIP3   OH259208   3.006   1.212   5.445 -0.1573 -0.0634  0.5653
12598TIP3    H159209   3.026   1.262   5.523 -2.4041  0.1679  1.0748
12598TIP3    H259210   2.951   1.270   5.392 -0.4796 -0.9788 -0.1427
12599TIP3   OH259211   5.449   0.279   0.032 -0.3307  0.5342  0.5470
12599TIP3    H159212   5.470   0.197  -0.013  0.8315  1.6823 -1.1180
12599TIP3    H259213   5.426   0.340  -0.039  0.5557  2.1304  1.5734
12600TIP3   OH259214   6.555   6.464   5.743  0.4223  0.4770  0.3822
12600TIP3    H159215   6.461   6.465   5.728  0.4835 -0.9359 -0.3381
12600TIP3    H259216   6.591   6.515   5.671  0.2693  0.0740  0.0179
12601TIP3   OH259217   0.068   2.909  15.279  0.0409  0.1216 -0.1412
12601TIP3    H159218   0.069   2.819  15.312  0.8895 -0.0679 -0.6637
12601TIP3    H259219   0.042   2.962  15.355 -2.6109 -0.7360 -0.3383
12602TIP3   OH259220   1.472   3.451   1.843 -0.0187  0.4686  0.1137
12602TIP3    H159221   1.546   3.453   1.903  0.4063 -0.7874 -0.3399
12602TIP3    H259222   1.511   3.442   1.756 -0.6853 -1.2853 -0.0543
12603TIP3   OH259223   1.922   3.637  15.856 -0.3452  0.3249 -0.5919
12603TIP3    H159224   2.009   3.604  15.878 -1.1604 -0.1895  2.4071
12603TIP3    H259225   1.884   3.571  15.798  0.8123 -0.0848 -0.8921
12604TIP3   OH259226   5.487   2.434   1.026  0.2224 -1.0491  0.0947
12604TIP3    H159227   5.552   2.418   1.095 -0.0047  0.3160  0.6572
12604TIP3    H259228   5.403   2.438   1.072  0.0748 -0.0738 -0.2501
12605TIP3   OH259229   0.457   6.235   1.832 -0.3718 -0.4968  0.3835
12605TIP3    H159230   0.515   6.288   1.778  1.3157 -1.3085  1.3234
12605TIP3    H259231   0.381   6.218   1.776 -0.8782  2.6000 -0.0500
12606TIP3   OH259232   3.560   3.250  12.391 -0.0948  0.1884 -0.3135
12606TIP3    H159233   3.518   3.288  12.314 -0.9932 -0.4162 -0.1322
12606TIP3    H259234   3.651   3.281  12.386 -0.7034  2.0907 -0.3273
12607TIP3   OH259235   1.109   1.711  14.622 -0.5416  0.1633 -0.3476
12607TIP3    H159236   1.152   1.694  14.706  0.7582 -1.7582 -1.3180
12607TIP3    H259237   1.017   1.726  14.645  0.0534  1.3676  1.5329
12608TIP3   OH259238   5.331   0.093  16.764 -0.3593 -1.0094 -0.6846
12608TIP3    H159239   5.405   0.074  16.706 -0.5558 -0.0998 -1.2569
12608TIP3    H259240   5.266   0.026  16.742 -0.0312 -1.3061 -0.7697
12609TIP3   OH259241   6.423   4.052   3.059  0.2154  0.0311 -0.0866
12609TIP3    H159242   6.470   3.986   3.006 -0.7136  0.4567 -1.5090
12609TIP3    H259243   6.423   4.016   3.147  0.5936 -1.4218 -0.6413
12610TIP3   OH259244   2.223   1.533  13.026 -0.2822  0.7060  0.1778
12610TIP3    H159245   2.130   1.517  13.040 -0.0647 -0.2376  0.5724
12610TIP3    H259246   2.233   1.628  13.037 -0.9942  0.6677  1.2895
12611TIP3   OH259247   4.992   2.685   4.893  0.6075 -0.1649 -0.2319
12611TIP3    H159248   4.984   2.779   4.875 -0.6846 -0.0601  0.6977
12611TIP3    H259249   4.946   2.643   4.820 -1.2237  0.0779  0.7277
12612TIP3   OH259250   5.614   0.238  15.791  0.2677  0.2254  0.1684
12612TIP3    H159251   5.592   0.176  15.861 -1.1767  0.4797 -0.0324
12612TIP3    H259252   5.696   0.278  15.820  0.6240 -0.9482  0.8456
12613TIP3   OH259253   5.740   0.369   5.191 -0.6395  0.6265 -0.0949
12613TIP3    H159254   5.741   0.380   5.286 -0.9932  2.7654 -0.2944
12613TIP3    H259255   5.759   0.276   5.177 -0.5742  0.2803  2.0531
12614TIP3   OH259256   2.031   4.682   5.043  0.4679  0.0077 -0.1697
12614TIP3    H159257   2.000   4.625   5.113 -1.3788  0.7607 -0.3301
12614TIP3    H259258   2.121   4.653   5.027 -0.4556 -3.0033 -0.4201
12615TIP3   OH259259   6.430   0.896  13.197 -0.5628 -0.2054  0.0463
12615TIP3    H159260   6.416   0.829  13.263 -0.8737 -0.8547 -0.6629
12615TIP3    H259261   6.519   0.882  13.167 -0.7360 -0.5299 -0.3356
12616TIP3   OH259262   4.570   4.723   2.791  0.6609 -0.5084 -0.1526
12616TIP3    H159263   4.571   4.632   2.760 -0.1540  0.3006 -2.8462
12616TIP3    H259264   4.652   4.733   2.839  0.5892 -2.7409  0.5599
12617TIP3   OH259265   6.302   2.275   3.815  0.4389 -0.1341 -0.0324
12617TIP3    H159266   6.386   2.284   3.769  0.9202  1.7789  1.0688
12617TIP3    H259267   6.251   2.351   3.787  0.0553  0.0767  1.1744
12618TIP3   OH259268   0.431   0.499  16.938  0.4184  0.1978 -0.4638
12618TIP3    H159269   0.513   0.459  16.910 -0.0036 -1.5344  0.6419
12618TIP3    H259270   0.393   0.436  16.999 -2.7456 -0.1195 -2.4925
12619TIP3   OH259271   2.827   5.763   2.749 -0.1460 -0.2654  0.2654
12619TIP3    H159272   2.892   5.793   2.685 -0.6403  0.6610  0.1760
12619TIP3    H259273   2.800   5.677   2.717  0.5409 -0.3650 -0.0684
12620TIP3   OH259274   4.877   4.911   4.943  0.4026 -0.1984 -0.4604
12620TIP3    H159275   4.856   4.817   4.942 -0.0501 -0.0960 -0.6157
12620TIP3    H259276   4.887   4.932   5.036  0.5032 -0.3984 -0.4250
12621TIP3   OH259277   2.878   0.128  15.687 -0.0515 -0.3370  0.1888
12621TIP3    H159278   2.783   0.128  15.673 -0.2760  0.9683  1.5554
12621TIP3    H259279   2.889   0.153  15.779  1.6071 -1.0773  0.2240
12622TIP3   OH259280   3.858   5.654  13.181  0.0943  0.0300  0.7485
12622TIP3    H159281   3.820   5.602  13.253  0.8251  0.1300  1.2154
12622TIP3    H259282   3.782   5.683  13.131 -0.5183  0.8357  2.0884
12623TIP3   OH259283   5.732   4.946   2.996 -0.3858 -0.2068  0.3320
12623TIP3    H159284   5.694   5.032   3.016  1.6973  0.5927  1.0594
12623TIP3    H259285   5.735   4.902   3.081  0.7323 -0.0770  0.3629
12624TIP3   OH259286   2.206   5.855   5.683 -0.0865 -0.3922 -0.0724
12624TIP3    H159287   2.246   5.851   5.595  0.2842  1.4649 -0.0253
12624TIP3    H259288   2.279   5.836   5.742  0.3759  1.3054 -0.0620
12625TIP3   OH259289   0.512   1.756   6.376 -0.0612  0.0316 -0.2569
12625TIP3    H159290   0.553   1.842   6.373  0.7152 -0.3233 -0.1382
12625TIP3    H259291   0.580   1.698   6.408 -0.5930 -0.6217 -0.2766
12626TIP3   OH259292   1.257   5.846   0.798  0.1393 -0.7939  0.1612
12626TIP3    H159293   1.168   5.811   0.795  0.0345 -0.5874  0.7172
12626TIP3    H259294   1.304   5.788   0.858  0.3183 -0.7735  0.0415
12627TIP3   OH259295   3.858   2.674  11.802 -0.3266 -0.2303  0.9177
12627TIP3    H159296   3.926   2.674  11.869 -0.6178 -1.2645  1.2286
12627TIP3    H259297   3.847   2.767  11.779  1.4291 -0.0786  0.5903
12628TIP3   OH259298   2.359   0.008   0.156  0.2028  0.1578  0.3938
12628TIP3    H159299   2.264   0.017   0.169  0.1332 -1.8386  1.8488
12628TIP3    H259300   2.377  -0.083   0.177  2.5162  0.5752  0.4879
12629TIP3   OH259301   2.895   2.198  15.877  0.4327  0.2285 -0.7627
12629TIP3    H159302   2.878   2.291  15.864 -0.3260  0.1613 -0.3157
12629TIP3    H259303   2.989   2.188  15.859  0.2702  0.8418 -2.0623
12630TIP3   OH259304   0.076   4.280   4.326 -0.8932 -0.0453 -0.1451
12630TIP3    H159305   0.045   4.369   4.343 -1.2025  0.1357 -1.5026
12630TIP3    H259306   0.006   4.223   4.359 -0.8935  0.2178  0.3193
12631TIP3   OH259307   0.098   4.059   2.809  0.1735  0.5145 -0.2417
12631TIP3    H159308   0.122   4.121   2.739 -0.1901  0.6719 -0.2312
12631TIP3    H259309   0.123   4.104   2.890  2.3433 -0.4325 -0.3142
12632TIP3   OH259310   1.920   2.377   4.540 -0.2685  0.0991  0.0989
12632TIP3    H159311   1.899   2.467   4.516 -0.2645  0.7304  2.2649
12632TIP3    H259312   2.014   2.377   4.556 -0.7512  0.8454  4.0113
12633TIP3   OH259313   5.500   1.703  11.315  0.4689 -0.5041  0.2639
12633TIP3    H159314   5.527   1.617  11.283  1.4831 -0.6000  1.3273
12633TIP3    H259315   5.557   1.764  11.268 -0.0138 -0.4192 -0.2297
12634TIP3   OH259316   0.011   3.767  14.586 -0.2190 -0.2723  0.1206
12634TIP3    H159317  -0.041   3.835  14.543 -0.4652  0.5973  1.7164
12634TIP3    H259318  -0.029   3.685  14.558 -1.7842  0.3432  0.4330
12635TIP3   OH259319   0.342   5.804  10.515 -0.2640  0.0849 -0.8854
12635TIP3    H159320   0.276   5.871  10.500  0.0608  0.5928 -0.1083
12635TIP3    H259321   0.315   5.762  10.598 -1.1627 -1.6023 -1.9596
12636TIP3   OH259322   2.596   0.918   1.874  0.3375 -0.1859 -0.5506
12636TIP3    H159323   2.605   0.988   1.809 -0.1156 -1.2185 -1.7699
12636TIP3    H259324   2.686   0.890   1.892  0.6333  1.4994  0.9066
12637TIP3   OH259325   3.161   1.100   1.534  0.2176 -0.2963  0.0838
12637TIP3    H159326   3.236   1.107   1.594  0.6288 -1.3125 -0.2905
12637TIP3    H259327   3.085   1.121   1.589  0.8361  1.8145  0.2158
12638TIP3   OH259328   0.698   1.072   3.992  0.3511  0.1474  0.5297
12638TIP3    H159329   0.735   1.154   4.027 -0.5957  0.6453  0.3852
12638TIP3    H259330   0.718   1.075   3.898  2.7066 -1.0905  0.9097
12639TIP3   OH259331   6.293   0.806   4.880 -0.3899  0.0105 -0.0577
12639TIP3    H159332   6.363   0.760   4.927 -2.1803 -1.7766  0.9867
12639TIP3    H259333   6.213   0.760   4.905 -1.8304  1.2399 -2.1461
12640TIP3   OH259334   2.727   4.922  14.166  0.2117 -0.2169  0.0084
12640TIP3    H159335   2.657   4.961  14.114  0.1551 -0.3270 -0.0001
12640TIP3    H259336   2.772   4.996  14.207 -1.2966 -0.2461  1.8204
12641TIP3   OH259337   5.278   4.498   5.584 -0.2814  0.0443 -0.0371
12641TIP3    H159338   5.350   4.489   5.646 -1.1849  1.2856  1.2677
12641TIP3    H259339   5.296   4.433   5.516  0.4404 -1.7932  1.8122
12642TIP3   OH259340   1.292   2.582   5.572 -0.8381 -0.8800 -0.4820
12642TIP3    H159341   1.287   2.496   5.531  0.9673 -0.4887 -1.6248
12642TIP3    H259342   1.385   2.600   5.579 -1.0623  2.1802 -2.9654
12643TIP3   OH259343   0.155   1.630   1.601 -0.4560 -0.0931  0.7658
12643TIP3    H159344   0.157   1.645   1.696  1.2762 -0.3126  0.8012
12643TIP3    H259345   0.191   1.710   1.563 -0.7631 -0.1664  0.3155
12644TIP3   OH259346   1.323   6.228   3.900 -0.0723  0.4062 -0.4842
12644TIP3    H159347   1.343   6.165   3.968 -3.1719 -1.1632 -0.8615
12644TIP3    H259348   1.381   6.204   3.827  1.3410  0.3780  0.6103
12645TIP3   OH259349   1.249   2.085   1.707 -0.1292 -0.1073  0.0373
12645TIP3    H159350   1.328   2.117   1.749 -0.7707  1.3211  0.2094
12645TIP3    H259351   1.188   2.158   1.711 -0.6305 -0.3257 -2.3115
12646TIP3   OH259352   0.851   5.502  14.088  0.2026  0.1517  0.5545
12646TIP3    H159353   0.882   5.582  14.044  0.4717  1.0365  2.2688
12646TIP3    H259354   0.927   5.472  14.138 -0.6982  0.4442  2.1465
12647TIP3   OH259355   0.221   4.430  13.292 -0.3430  0.0092  0.4502
12647TIP3    H159356   0.171   4.392  13.219 -2.1605 -0.2470  1.7582
12647TIP3    H259357   0.177   4.514  13.309  0.3524  0.2734  0.9602
12648TIP3   OH259358   6.632   4.991  11.643 -0.4729  0.9475 -0.2030
12648TIP3    H159359   6.562   5.026  11.698 -1.3103 -2.0171  0.8329
12648TIP3    H259360   6.595   4.911  11.605  2.1091 -0.3969 -0.1415
12649TIP3   OH259361   1.566   4.824   2.068 -0.3634 -0.2392  0.0076
12649TIP3    H159362   1.622   4.847   1.994  0.0365 -0.8918  0.1061
12649TIP3    H259363   1.477   4.827   2.032 -0.1105 -1.7424 -0.8305
12650TIP3   OH259364   3.715   0.530   3.971 -0.9887 -0.5591  0.3821
12650TIP3    H159365   3.639   0.583   3.993 -0.0804  0.8998  0.1572
12650TIP3    H259366   3.703   0.508   3.879  0.2162  2.1777 -0.5357
12651TIP3   OH259367   5.522   2.051   2.661 -0.3048 -0.3822  0.2883
12651TIP3    H159368   5.585   1.982   2.639 -0.5102 -0.4664 -0.0395
12651TIP3    H259369   5.458   2.048   2.591 -0.0926  0.4184  0.0541
12652TIP3   OH259370   0.101   0.824   5.509  0.2590 -0.0476  0.4989
12652TIP3    H159371   0.063   0.825   5.597 -0.1598  0.4833  0.3131
12652TIP3    H259372   0.175   0.885   5.514 -0.4255  0.8186  0.1944
12653TIP3   OH259373   4.225   1.997   2.910 -0.0365 -0.3127  0.5315
12653TIP3    H159374   4.188   2.019   2.996 -0.1856 -0.5897  0.5402
12653TIP3    H259375   4.274   2.075   2.884 -1.0161  0.2411  0.3028
12654TIP3   OH259376   2.481   0.489  13.315 -0.0449  0.3503  0.3622
12654TIP3    H159377   2.436   0.568  13.285  1.9006  1.2922 -0.1938
12654TIP3    H259378   2.545   0.470  13.247  2.5520  0.9049  2.4930
12655TIP3   OH259379   5.810   2.430  11.944 -0.6119  0.2237  0.0701
12655TIP3    H159380   5.855   2.347  11.929 -2.1292 -0.8294  1.0339
12655TIP3    H259381   5.871   2.482  11.995  0.3019 -0.3456 -0.4189
12656TIP3   OH259382   5.085   6.296   4.403  1.0522 -0.7987 -0.1013
12656TIP3    H159383   5.116   6.248   4.326  1.1670  0.6618 -0.9933
12656TIP3    H259384   5.159   6.349   4.430  0.5810 -0.2846  0.2015
12657TIP3   OH259385   6.141   2.776  13.945  0.2608 -0.1923 -0.0741
12657TIP3    H159386   6.074   2.708  13.952  0.8772 -0.6519  2.0770
12657TIP3    H259387   6.091   2.858  13.944 -0.4339 -0.5946 -1.5258
12658TIP3   OH259388   1.171   3.678  12.572  0.1301 -0.3348  0.1733
12658TIP3    H159389   1.239   3.658  12.637  0.0512 -0.7574  0.1318
12658TIP3    H259390   1.132   3.760  12.602 -0.2565 -0.7875  0.9526
12659TIP3   OH259391   0.288   4.519  10.603  0.1784 -0.0164 -0.1273
12659TIP3    H159392   0.333   4.558  10.528  0.9513 -1.6466 -0.5494
12659TIP3    H259393   0.196   4.543  10.590  0.3676  0.1288 -1.3479
12660TIP3   OH259394   4.338   5.020  16.070  0.1433 -0.2631 -0.1188
12660TIP3    H159395   4.248   4.993  16.092  0.3873 -0.1080  1.1404
12660TIP3    H259396   4.333   5.044  15.978 -0.6590 -2.2003 -0.6486
12661TIP3   OH259397   2.615   4.212   2.915 -0.1463  0.2573  0.9789
12661TIP3    H159398   2.655   4.230   3.000 -0.9944  0.8380  1.2792
12661TIP3    H259399   2.525   4.185   2.936 -0.2516  0.0398  0.2882
12662TIP3   OH259400   3.594   3.510   6.427 -0.2619 -0.3381 -0.1620
12662TIP3    H159401   3.588   3.577   6.359 -0.7981 -1.7027 -1.5146
12662TIP3    H259402   3.504   3.502   6.460 -0.0420  0.1741  0.5885
12663TIP3   OH259403   1.559   1.386   3.070  0.2585 -0.0674  0.1844
12663TIP3    H159404   1.621   1.458   3.080  2.1072 -1.1193 -2.4613
12663TIP3    H259405   1.474   1.428   3.062  0.9354  1.6208  1.2442
12664TIP3   OH259406   1.556   4.281  16.607  0.8291  0.3536 -0.1088
12664TIP3    H159407   1.486   4.241  16.658  0.2709 -0.1211 -1.2144
12664TIP3    H259408   1.624   4.302  16.671  1.6988 -3.4157  0.4774
12665TIP3   OH259409   0.337   0.476   4.413  0.4459 -0.8530  0.3405
12665TIP3    H159410   0.424   0.482   4.372  0.5112 -3.0463  0.0178
12665TIP3    H259411   0.340   0.537   4.486  2.5176 -1.3874  0.7583
12666TIP3   OH259412   4.074   1.841  16.310 -0.5773  0.8116  0.0574
12666TIP3    H159413   4.060   1.805  16.397  2.8224 -1.3198 -0.1162
12666TIP3    H259414   4.021   1.785  16.253 -0.3505  0.1770  0.4567
12667TIP3   OH259415   4.002   2.216  13.175 -0.7119 -0.5064  0.2082
12667TIP3    H159416   3.908   2.231  13.183 -0.4258  1.7849  0.0684
12667TIP3    H259417   4.037   2.241  13.261 -0.0433  0.8496 -0.4213
12668TIP3   OH259418   4.609   3.475  16.303  0.2053 -0.4009  0.4075
12668TIP3    H159419   4.598   3.397  16.248  1.4749 -0.5207  0.2993
12668TIP3    H259420   4.548   3.462  16.376 -1.6280 -0.1700 -1.0144
12669TIP3   OH259421   1.108   4.738  14.200  0.5678  0.6360  0.3054
12669TIP3    H159422   1.091   4.662  14.144 -0.6347  1.7430 -0.9032
12669TIP3    H259423   1.202   4.754  14.188  0.1695  1.5374 -2.4336
12670TIP3   OH259424   0.769   2.027  11.555  0.7048  0.6142  0.0886
12670TIP3    H159425   0.789   2.120  11.546 -1.0029  0.9994 -0.0457
12670TIP3    H259426   0.684   2.025  11.598  0.9025 -0.9099  0.4689
12671TIP3   OH259427   0.864   0.389   4.315 -0.1078 -0.1062  0.2520
12671TIP3    H159428   0.880   0.456   4.381 -0.0475 -0.5087  0.6559
12671TIP3    H259429   0.856   0.437   4.233  1.4935  0.2734  0.2822
12672TIP3   OH259430   6.727   2.932   3.268  0.2033  0.1118 -0.1246
12672TIP3    H159431   6.746   2.875   3.193  0.8650 -0.6854  0.6172
12672TIP3    H259432   6.803   2.990   3.273 -0.2582  0.7612 -0.6036
12673TIP3   OH259433   2.726   6.780   0.633  0.1102 -0.4992  0.0795
12673TIP3    H159434   2.740   6.747   0.721 -2.7198 -2.6177 -0.1026
12673TIP3    H259435   2.714   6.701   0.580  1.4233  0.7198 -2.1813
12674TIP3   OH259436   2.907   3.898  11.729 -0.3985 -0.5895  0.4650
12674TIP3    H159437   2.892   3.824  11.671 -1.1280  0.4572 -0.7484
12674TIP3    H259438   2.820   3.928  11.754 -0.1296  0.0618  0.6539
12675TIP3   OH259439   6.127   5.508  16.992  0.4322 -0.1012  0.5034
12675TIP3    H159440   6.145   5.581  16.933 -0.4622 -0.0933  0.2209
12675TIP3    H259441   6.086   5.442  16.936  0.4221 -0.4619  0.9344
12676TIP3   OH259442   0.171   0.702  17.144  0.0761 -0.0194 -0.1234
12676TIP3    H159443   0.103   0.656  17.193  1.3401  0.6828  2.4795
12676TIP3    H259444   0.130   0.725  17.061 -2.8566  0.3149  1.2947
12677TIP3   OH259445   1.643   5.843   2.002  0.2946 -0.1153 -0.2515
12677TIP3    H159446   1.634   5.845   2.097  0.7124  1.4374 -0.2192
12677TIP3    H259447   1.708   5.776   1.985 -0.0632 -0.6734  0.5248
12678TIP3   OH259448   4.371   2.224  12.641 -0.0273  0.2759 -0.3402
12678TIP3    H159449   4.297   2.167  12.620 -0.1126 -0.9224  2.6603
12678TIP3    H259450   4.335   2.290  12.700  1.2534 -0.5076  1.4170
12679TIP3   OH259451   1.307   3.172  13.735 -0.0338 -0.5732  0.3345
12679TIP3    H159452   1.275   3.262  13.731 -0.8402 -0.7864  1.4262
12679TIP3    H259453   1.401   3.181  13.755 -0.1877  0.0217  0.8169
12680TIP3   OH259454   5.021   5.920   6.585  0.6711 -0.2287 -0.1429
12680TIP3    H159455   5.035   5.835   6.545  2.2174 -0.5862  1.0554
12680TIP3    H259456   4.955   5.905   6.653  2.1515 -0.8831  1.1997
12681TIP3   OH259457   4.586   4.975   3.657 -0.1221  0.2070  0.2294
12681TIP3    H159458   4.553   4.886   3.648  2.0440 -0.5388 -1.0036
12681TIP3    H259459   4.650   4.971   3.728 -0.6871  1.0362  0.8204
12682TIP3   OH259460   3.355   6.205   2.228  0.4386  0.4325  0.0039
12682TIP3    H159461   3.348   6.151   2.149  0.3578 -0.4458  0.5996
12682TIP3    H259462   3.273   6.191   2.274 -0.0328  1.9067 -0.3359
12683TIP3   OH259463   6.570   4.673  15.031 -0.4048 -0.8964 -0.0747
12683TIP3    H159464   6.611   4.622  15.101 -0.1122 -1.0419 -0.3495
12683TIP3    H259465   6.556   4.760  15.070  0.0490 -0.8826  0.0664
12684TIP3   OH259466   0.140   4.855   1.516  0.4842 -0.3169 -0.4530
12684TIP3    H159467   0.157   4.765   1.542  3.4904 -0.3150 -1.8635
12684TIP3    H259468   0.196   4.908   1.574 -0.6984  0.5947 -0.1072
12685TIP3   OH259469   1.510   1.189  15.714  0.4886 -0.5513 -0.3166
12685TIP3    H159470   1.426   1.184  15.668  0.1872 -0.9015  0.2675
12685TIP3    H259471   1.530   1.282  15.718  1.3690 -0.5562 -2.6801
12686TIP3   OH259472   0.855   0.958   4.352 -0.7176  0.1013 -0.1341
12686TIP3    H159473   0.791   0.929   4.417  0.3904 -0.3832  0.7651
12686TIP3    H259474   0.844   0.897   4.279 -1.3378  0.0844 -0.0395
12687TIP3   OH259475   2.800   4.926   5.113  0.2667 -0.2641 -0.0158
12687TIP3    H159476   2.835   4.859   5.053 -1.2064 -2.2838  1.2308
12687TIP3    H259477   2.865   4.933   5.182 -0.6706 -2.4160  1.1857
12688TIP3   OH259478   1.778   6.419   5.293  0.0442 -0.0691  0.0860
12688TIP3    H159479   1.736   6.385   5.372  0.8558  1.9153  1.4544
12688TIP3    H259480   1.870   6.431   5.317  0.6979 -1.0219 -1.7407
12689TIP3   OH259481   2.711   0.116   2.024  0.0113 -0.0938  0.4946
12689TIP3    H159482   2.700   0.210   2.039  0.6644 -0.0852  0.9527
12689TIP3    H259483   2.805   0.100   2.036 -0.3147 -1.0873  2.0373
12690TIP3   OH259484   3.718   5.858   3.626 -0.5077 -0.2825  0.2206
12690TIP3    H159485   3.691   5.914   3.699  1.9451  0.9183  0.3045
12690TIP3    H259486   3.703   5.911   3.548 -0.0809 -0.2927  0.1297
12691TIP3   OH259487   0.854   4.742   3.330  0.4660 -0.5117  0.1644
12691TIP3    H159488   0.947   4.734   3.310  0.6234  0.5391  0.4392
12691TIP3    H259489   0.844   4.831   3.364 -0.2859 -1.2469  2.0041
12692TIP3   OH259490   6.281   4.103  14.799 -0.2149  0.0814  0.1411
12692TIP3    H159491   6.219   4.030  14.797  0.1364 -0.3109  1.8037
12692TIP3    H259492   6.266   4.146  14.883  0.7237  0.9056 -0.0867
12693TIP3   OH259493   0.376   6.393  12.362  0.3795  0.5947  0.1520
12693TIP3    H159494   0.441   6.461  12.346 -0.2079  1.1674  0.1386
12693TIP3    H259495   0.295   6.441  12.382 -0.0470 -0.0984  0.1464
12694TIP3   OH259496   3.044   2.942   4.407  0.4210 -0.3246  0.0999
12694TIP3    H159497   3.094   2.917   4.330  0.1850 -1.2063  0.2198
12694TIP3    H259498   2.967   2.987   4.372 -0.9695 -2.8959 -0.3705
12695TIP3   OH259499   4.943   0.594  15.686 -0.1132  0.2363 -0.5838
12695TIP3    H159500   4.891   0.671  15.663  0.6699  1.4522  1.4507
12695TIP3    H259501   4.895   0.553  15.757  0.2403 -0.3086 -0.6528
12696TIP3   OH259502   3.451   4.046   0.577  0.3646  0.1583 -0.2571
12696TIP3    H159503   3.420   3.957   0.564 -2.0758  1.1631 -2.0568
12696TIP3    H259504   3.406   4.075   0.657 -1.2352  0.6897 -1.3100
12697TIP3   OH259505   1.690   3.873  11.841  0.0880 -0.8796 -0.1526
12697TIP3    H159506   1.632   3.811  11.885  0.8969 -0.9912  0.7800
12697TIP3    H259507   1.730   3.923  11.912  0.2114  0.0342 -0.8467
12698TIP3   OH259508   4.753   5.582  14.028 -0.6516 -0.4919 -0.4538
12698TIP3    H159509   4.785   5.494  14.012  1.8927  0.3628 -0.5352
12698TIP3    H259510   4.709   5.607  13.947  0.3928 -0.9848 -1.1932
12699TIP3   OH259511   0.252   4.219  13.472  0.1124 -0.7656  0.0908
12699TIP3    H159512   0.173   4.165  13.470 -0.5913  0.2226  0.5690
12699TIP3    H259513   0.234   4.290  13.411  0.3214 -0.1082  0.7913
12700TIP3   OH259514   2.966   4.489  13.706  0.3563 -0.0159 -0.2072
12700TIP3    H159515   2.889   4.533  13.741 -0.5880 -0.0594 -2.1019
12700TIP3    H259516   3.040   4.544  13.733 -0.3732  0.3093  1.1851
12701TIP3   OH259517   4.614   6.167  12.769 -0.1623  0.9919 -0.3235
12701TIP3    H159518   4.570   6.185  12.686 -0.1262  1.1663 -0.3055
12701TIP3    H259519   4.607   6.072  12.780 -1.3501  1.1109  0.1325
12702TIP3   OH259520   0.299   1.321   5.524  0.8354 -0.3275  0.3994
12702TIP3    H159521   0.338   1.316   5.437 -0.6375 -1.7957 -0.2492
12702TIP3    H259522   0.262   1.409   5.529 -1.3595 -1.0371 -1.5864
12703TIP3   OH259523   0.654   3.773   1.310  0.6619  0.2450 -0.2221
12703TIP3    H159524   0.698   3.770   1.395  0.7862  0.5646 -0.2723
12703TIP3    H259525   0.561   3.769   1.332  0.6532  1.3539  0.0025
12704TIP3   OH259526   0.432   5.120   2.895 -0.7983 -0.0052  0.5983
12704TIP3    H159527   0.473   5.148   2.976  1.0648 -2.0149  0.4427
12704TIP3    H259528   0.435   5.024   2.898  0.3004 -0.1649 -2.2752
12705TIP3   OH259529   5.256   1.914   3.402  0.1791  0.0030  0.0190
12705TIP3    H159530   5.317   1.840   3.402 -0.0538 -0.2162 -1.5024
12705TIP3    H259531   5.304   1.985   3.444  0.1516 -1.1840  2.1815
12706TIP3   OH259532   0.293   4.894   0.071  0.2440 -0.4202  0.2228
12706TIP3    H159533   0.370   4.861   0.025  2.1696  2.0046  1.4258
12706TIP3    H259534   0.321   4.899   0.162 -1.9803 -1.0567  0.9903
12707TIP3   OH259535   5.823   2.450  15.244 -0.3466 -0.1172 -0.2694
12707TIP3    H159536   5.818   2.530  15.297 -1.2046  1.2858 -2.3586
12707TIP3    H259537   5.915   2.426  15.245 -0.1398  0.6497  0.7017
12708TIP3   OH259538   6.330   0.230  11.976  0.0688  0.3345  0.3778
12708TIP3    H159539   6.260   0.169  11.954  0.7208 -0.0861 -0.6051
12708TIP3    H259540   6.382   0.184  12.043  2.4025 -1.6720 -2.5376
12709TIP3   OH259541   4.903   1.719  10.924  0.1956 -0.0789 -0.9707
12709TIP3    H159542   4.851   1.651  10.968  0.8247 -0.1110 -0.2715
12709TIP3    H259543   4.837   1.778  10.887 -0.4258  1.2053  1.9102
12710TIP3   OH259544   0.204   6.704   0.525 -0.2677  0.2440  0.2348
12710TIP3    H159545   0.252   6.756   0.461  0.1765 -1.1868 -0.6400
12710TIP3    H259546   0.135   6.763   0.557 -0.1792  1.1621 -1.1818
12711TIP3   OH259547   3.565   4.000   5.871 -0.7282 -0.1349  0.3501
12711TIP3    H159548   3.561   3.913   5.831 -0.8635 -0.2796  0.6687
12711TIP3    H259549   3.596   3.983   5.960 -1.1022  0.1040  0.5266
12712TIP3   OH259550   4.624   6.167  11.158 -0.1265  0.4471  0.5477
12712TIP3    H159551   4.532   6.193  11.163  0.2366  2.4622 -1.3067
12712TIP3    H259552   4.631   6.090  11.214 -3.0974 -0.2443  0.1378
12713TIP3   OH259553   0.043   5.747  14.253 -0.8114  0.4054 -0.3786
12713TIP3    H159554  -0.048   5.718  14.248 -0.4699 -0.8635  0.2867
12713TIP3    H259555   0.063   5.745  14.346 -0.2873  1.3148 -0.4662
12714TIP3   OH259556   4.752   3.191   0.568  0.4053 -0.3130 -0.4376
12714TIP3    H159557   4.845   3.212   0.575  0.3052  0.1570 -0.4574
12714TIP3    H259558   4.708   3.258   0.620  0.1335 -1.1198  0.3889
12715TIP3   OH259559   3.529   3.125  11.805  0.1759 -0.6075 -0.1546
12715TIP3    H159560   3.593   3.196  11.798 -0.5295 -0.0092 -0.5987
12715TIP3    H259561   3.489   3.137  11.891 -1.2630  0.6836 -0.9682
12716TIP3   OH259562   6.305   4.545   4.956 -0.5742  0.0580  0.2420
12716TIP3    H159563   6.209   4.545   4.949 -0.5600  1.5449 -0.2776
12716TIP3    H259564   6.324   4.612   5.022  0.1182 -0.1728  0.2803
12717TIP3   OH259565   6.062   4.393  10.390  0.7527  0.1524  0.3988
12717TIP3    H159566   6.044   4.487  10.392  0.9954  0.2546 -1.2231
12717TIP3    H259567   5.977   4.352  10.373  1.0348  0.2767 -1.5293
12718TIP3   OH259568   5.786   4.873  10.345 -0.3736  0.4703  0.2191
12718TIP3    H159569   5.787   4.966  10.365 -1.2068  0.2257  1.5303
12718TIP3    H259570   5.693   4.852  10.331 -0.3758 -0.4170  1.3484
12719TIP3   OH259571   1.220   0.218  11.979  0.1058  0.7225 -0.3791
12719TIP3    H159572   1.214   0.313  11.970  2.3633  0.9611 -0.0574
12719TIP3    H259573   1.193   0.184  11.894 -0.7484  1.6390 -0.4942
12720TIP3   OH259574   6.703   0.594   2.690 -0.6502 -0.0699  0.5555
12720TIP3    H159575   6.732   0.678   2.723  0.9042 -0.3383 -0.0557
12720TIP3    H259576   6.644   0.615   2.618  0.2141  0.5165  0.0030
12721TIP3   OH259577   1.596   3.724  17.133  0.2842  0.0040 -0.1913
12721TIP3    H159578   1.658   3.785  17.093 -1.6912  2.0996 -0.2385
12721TIP3    H259579   1.639   3.696  17.213  3.0656 -1.9832 -2.1792
12722TIP3   OH259580   5.433   3.649  12.136 -0.2268  0.2125  0.5435
12722TIP3    H159581   5.338   3.653  12.142 -0.2161 -0.2890  1.0974
12722TIP3    H259582   5.455   3.705  12.061 -1.1813 -2.2218 -1.7254
12723TIP3   OH259583   3.230   4.215  13.042  0.3315 -0.1887 -1.1116
12723TIP3    H159584   3.209   4.265  13.121 -0.4333  2.3375 -2.7993
12723TIP3    H259585   3.216   4.123  13.068  0.1983  0.5233  1.6726
12724TIP3   OH259586   4.389   2.870   3.843 -0.4450  0.1080  0.0250
12724TIP3    H159587   4.301   2.868   3.805 -0.1096 -0.8850 -0.7443
12724TIP3    H259588   4.440   2.922   3.781 -0.7567  1.8203  1.1401
12725TIP3   OH259589   4.272   3.872  17.173 -0.4174  0.5858 -0.1124
12725TIP3    H159590   4.365   3.883  17.189 -0.0877  0.6697 -1.9012
12725TIP3    H259591   4.263   3.783  17.139 -1.0589  0.4187  0.4703
12726TIP3   OH259592   0.415   4.113  14.579 -0.4847 -0.3399  0.4691
12726TIP3    H159593   0.392   4.020  14.575  0.1012 -0.5085 -3.5924
12726TIP3    H259594   0.332   4.157  14.597 -0.7272 -1.5903  2.7286
12727TIP3   OH259595   4.344   3.030  13.682  0.1739  0.2486 -0.4543
12727TIP3    H159596   4.342   3.039  13.587 -0.6361 -1.2007 -0.6061
12727TIP3    H259597   4.260   2.989  13.704 -0.4974  2.2650  1.0959
12728TIP3   OH259598   0.188   2.395   2.219  0.2104 -0.3205  0.6089
12728TIP3    H159599   0.171   2.387   2.313 -1.4682 -0.7318  0.2937
12728TIP3    H259600   0.224   2.483   2.209  0.5460 -0.3232  1.6481
12729TIP3   OH259601   3.521   5.835  16.952 -0.0886  0.2400 -0.0937
12729TIP3    H159602   3.550   5.807  16.865 -1.7218  1.7071 -1.1766
12729TIP3    H259603   3.600   5.829  17.007  1.4988  1.1378 -2.1434
12730TIP3   OH259604   5.573   3.567  11.316 -0.2308 -0.2370 -0.4879
12730TIP3    H159605   5.589   3.498  11.252 -0.5530 -0.8437  0.0783
12730TIP3    H259606   5.568   3.522  11.400 -2.1322  0.2517 -0.2964
12731TIP3   OH259607   3.088   2.171   5.054  0.8087  0.3757  0.5341
12731TIP3    H159608   3.066   2.155   4.962  0.6578  0.3081  0.5829
12731TIP3    H259609   3.067   2.089   5.098  2.9617 -0.3901  0.2684
12732TIP3   OH259610   1.808   0.581  16.014  0.0477 -0.0484 -0.1149
12732TIP3    H159611   1.772   0.601  16.101 -0.2477  1.3226 -0.5325
12732TIP3    H259612   1.844   0.664  15.983  0.9889 -0.7361 -0.9339
12733TIP3   OH259613   3.538   3.952   1.400 -0.0884 -0.2095 -0.5810
12733TIP3    H159614   3.569   3.911   1.480 -0.3063 -3.2415 -1.9138
12733TIP3    H259615   3.614   3.953   1.342 -0.2524  0.7439 -0.7931
12734TIP3   OH259616   3.914   6.048   4.887  0.0089  0.3931 -0.0336
12734TIP3    H159617   3.988   6.098   4.852 -0.3634 -0.7569 -2.7779
12734TIP3    H259618   3.839   6.106   4.879  0.3168  1.0014  1.2633
12735TIP3   OH259619   3.690   5.619   5.307  0.1489 -0.3022  0.1978
12735TIP3    H159620   3.693   5.714   5.313 -3.0003 -0.0898  0.0717
12735TIP3    H259621   3.630   5.592   5.376 -0.4942 -1.9972 -0.9623
12736TIP3   OH259622   0.923   2.686  11.198 -0.5014  0.3549 -0.9986
12736TIP3    H159623   0.889   2.712  11.283  0.1235 -1.6942 -0.0412
12736TIP3    H259624   0.846   2.660  11.147 -0.7750  0.2708 -0.5412
12737TIP3   OH259625   5.520   1.090  15.856  0.6587  0.6835 -0.7486
12737TIP3    H159626   5.529   1.034  15.932 -0.6816  2.1787  0.5948
12737TIP3    H259627   5.439   1.060  15.814  0.1312  1.3322 -0.2270
12738TIP3   OH259628   5.033   5.265  17.176 -0.0241  0.0465 -0.1609
12738TIP3    H159629   4.948   5.225  17.196 -0.9866  1.4789 -1.2319
12738TIP3    H259630   5.037   5.343  17.231 -0.7483  1.5812 -2.1568
12739TIP3   OH259631   5.200   1.157  14.451  0.0375 -0.1827 -0.3105
12739TIP3    H159632   5.187   1.246  14.482 -1.4129 -0.0669 -1.1248
12739TIP3    H259633   5.125   1.108  14.487  0.1205 -0.7662 -0.9094
12740TIP3   OH259634   3.506   2.292   0.682  0.3978  0.2014  0.1097
12740TIP3    H159635   3.412   2.286   0.701  0.2890  1.6919  0.2047
12740TIP3    H259636   3.530   2.380   0.712  1.7598 -0.0611 -0.1799
12741TIP3   OH259637   6.723   2.543  15.297 -0.6396  0.4595 -0.4497
12741TIP3    H159638   6.811   2.565  15.328 -1.1327  2.8275 -0.5359
12741TIP3    H259639   6.665   2.603  15.343 -2.1145 -0.3653 -1.1519
12742TIP3   OH259640   6.602   5.030   5.057  0.3743 -0.1477  0.2940
12742TIP3    H159641   6.583   4.976   5.134  3.2926 -0.4653  0.9126
12742TIP3    H259642   6.674   5.087   5.085  0.2570  1.0389 -1.6612
12743TIP3   OH259643   3.489   0.494   1.183 -0.2307  0.3915  0.1327
12743TIP3    H159644   3.440   0.519   1.262  0.6428  1.5148  0.3533
12743TIP3    H259645   3.573   0.462   1.216 -0.3200 -0.3142 -0.2993
12744TIP3   OH259646   3.082   2.758   0.270  0.1616 -0.1557  0.0420
12744TIP3    H159647   3.113   2.689   0.328 -0.1228 -0.5263 -0.2356
12744TIP3    H259648   3.161   2.808   0.248  0.3205 -0.2058  0.4887
12745TIP3   OH259649   3.274   3.227  13.735  0.0609  0.3928 -0.2042
12745TIP3    H159650   3.362   3.201  13.705 -0.3198 -0.9297 -0.2464
12745TIP3    H259651   3.260   3.314  13.696  1.0210  0.2619 -0.8782
12746TIP3   OH259652   1.771   4.139  11.491 -0.1345 -0.5414 -0.0700
12746TIP3    H159653   1.857   4.113  11.459  0.9985  3.0552 -0.3783
12746TIP3    H259654   1.712   4.126  11.416  0.6919 -0.4991 -0.7349
12747TIP3   OH259655   3.831   3.897   5.889  0.3480  0.6225  0.0636
12747TIP3    H159656   3.775   3.957   5.839 -0.2713 -1.0683 -1.3957
12747TIP3    H259657   3.780   3.877   5.968 -0.9544 -0.4911 -1.0013
12748TIP3   OH259658   4.321   2.515   6.055  0.1761  0.1499 -0.0749
12748TIP3    H159659   4.242   2.568   6.055 -0.3837 -0.6686 -0.3266
12748TIP3    H259660   4.290   2.424   6.056  1.0935 -0.1948 -0.6687
12749TIP3   OH259661   6.248   0.280  11.237  0.5048 -0.2288  0.0337
12749TIP3    H159662   6.176   0.257  11.179  0.9497  2.2644 -1.6826
12749TIP3    H259663   6.317   0.312  11.179  0.9666  2.4448  1.8668
12750TIP3   OH259664   3.917   6.452   5.450  0.1387  0.4902  0.0106
12750TIP3    H159665   3.917   6.498   5.366  2.2700  0.1003 -0.2456
12750TIP3    H259666   3.896   6.361   5.428  1.1551  0.2947 -0.1719
12751TIP3   OH259667   5.921   5.702  16.747 -0.2827 -0.2422 -0.5930
12751TIP3    H159668   5.879   5.645  16.811 -0.2894 -0.1470 -0.5120
12751TIP3    H259669   6.009   5.666  16.737 -0.1731 -0.0680 -0.2867
12752TIP3   OH259670   5.287   2.554  11.112 -0.1443 -0.0140 -0.1970
12752TIP3    H159671   5.300   2.547  11.207  0.6043  1.2829 -0.1866
12752TIP3    H259672   5.335   2.479  11.076  0.1149 -0.1468  0.4092
12753TIP3   OH259673   3.059   0.438  16.703 -0.4063  0.3972  0.2235
12753TIP3    H159674   3.107   0.379  16.645 -0.6299 -2.1867  2.4621
12753TIP3    H259675   3.125   0.470  16.764 -0.5417  1.4603 -0.1655
12754TIP3   OH259676   6.763   3.852  16.154 -0.5070 -0.0155  0.1939
12754TIP3    H159677   6.755   3.851  16.249 -0.1256 -1.2943  0.2336
12754TIP3    H259678   6.678   3.884  16.123 -1.5060 -1.8005  0.9136
12755TIP3   OH259679   5.605   4.439   0.506 -0.3349  0.2769 -0.8194
12755TIP3    H159680   5.617   4.422   0.600  0.1028 -0.6758 -1.0382
12755TIP3    H259681   5.552   4.519   0.503  0.3668  0.8100  0.2309
12756TIP3   OH259682   5.577   0.012  10.757 -0.5805  0.4579  0.7252
12756TIP3    H159683   5.622   0.097  10.751 -0.3952  0.2589 -1.1189
12756TIP3    H259684   5.524   0.008  10.678 -1.3939 -0.7216  1.3107
12757TIP3   OH259685   0.446   1.175  14.379  0.3803 -0.1884  0.4278
12757TIP3    H159686   0.439   1.264  14.345 -0.3339 -0.5509 -0.3907
12757TIP3    H259687   0.358   1.138  14.368  0.4651 -0.7408  1.4892
12758TIP3   OH259688   4.231   5.004  16.548 -0.0447 -0.3190  0.6336
12758TIP3    H159689   4.264   5.048  16.470 -1.4162  1.5684  1.0318
12758TIP3    H259690   4.244   4.911  16.531  0.9059  0.1125 -1.2593
12759TIP3   OH259691   1.151   2.730  14.763 -0.0894  0.0116 -0.2103
12759TIP3    H159692   1.235   2.739  14.809  0.8696 -2.8510 -1.1648
12759TIP3    H259693   1.155   2.795  14.694  0.2317  1.5840  1.2284
12760TIP3   OH259694   3.139   6.089   4.134 -0.7873 -0.6099 -0.4908
12760TIP3    H159695   3.218   6.070   4.082  0.9446  2.7202  0.6261
12760TIP3    H259696   3.067   6.063   4.077  1.0396  0.7676 -3.7468
12761TIP3   OH259697   5.326   4.711   2.590 -0.1017  0.2154  0.0170
12761TIP3    H159698   5.364   4.633   2.631 -2.8804 -0.9804  0.5783
12761TIP3    H259699   5.285   4.759   2.662 -0.1013  1.1726 -0.6006
12762TIP3   OH259700   4.611   6.139   4.634 -0.0226  0.1689 -0.3093
12762TIP3    H159701   4.678   6.129   4.701  1.5057  1.2076 -1.5926
12762TIP3    H259702   4.644   6.210   4.578 -3.2450  2.3091  0.2389
12763TIP3   OH259703   3.410   3.174  12.075  0.2195  0.4135 -0.4263
12763TIP3    H159704   3.351   3.162  12.150  1.0438  2.2084  0.5695
12763TIP3    H259705   3.353   3.165  11.999 -0.9574  0.1242  0.4508
12764TIP3   OH259706   5.907   0.950  14.605  0.6204 -0.0861 -0.0303
12764TIP3    H159707   5.858   0.920  14.682  0.1689  0.4446 -0.1100
12764TIP3    H259708   5.996   0.960  14.637  0.2542  1.0730  0.6841
12765TIP3   OH259709   5.515   0.827  13.457  0.3157  0.0451  0.6151
12765TIP3    H159710   5.500   0.882  13.380  0.7044 -0.5370  0.1119
12765TIP3    H259711   5.475   0.875  13.530 -0.2243  0.5142  0.0167
12766TIP3   OH259712   6.238   1.787   1.368 -0.2167  0.1934 -0.0260
12766TIP3    H159713   6.152   1.745   1.364 -1.0852  1.8923  0.0309
12766TIP3    H259714   6.235   1.840   1.448  1.2184 -0.3796  0.4460
12767TIP3   OH259715   2.818   5.366   4.597 -0.0796  0.1258 -0.0362
12767TIP3    H159716   2.789   5.439   4.543  0.2062  0.1103 -0.2110
12767TIP3    H259717   2.913   5.375   4.600 -0.0984  0.2248  0.5965
12768TIP3   OH259718   5.629   0.371   1.913  0.9749 -0.1270 -0.1534
12768TIP3    H159719   5.604   0.456   1.876  0.5819  0.3483  1.1340
12768TIP3    H259720   5.585   0.369   1.998  0.7484 -1.7598 -0.2931
12769TIP3   OH259721   1.595   6.513   5.127  0.4775 -0.3974  0.4162
12769TIP3    H159722   1.582   6.490   5.036 -0.6840 -0.8630  0.6875
12769TIP3    H259723   1.669   6.459   5.155 -2.0760 -3.9430  1.0102
12770TIP3   OH259724   1.559   0.470  12.703 -0.5465  0.0267  0.5572
12770TIP3    H159725   1.651   0.464  12.680 -0.2283 -0.5061  1.8674
12770TIP3    H259726   1.546   0.563  12.724 -0.0376 -0.0650  1.3394
12771TIP3   OH259727   4.470   2.825  13.193  0.0071  0.3917  0.4318
12771TIP3    H159728   4.419   2.880  13.134  2.3263  1.3410 -0.8319
12771TIP3    H259729   4.460   2.736  13.158  0.8111  0.8517 -1.0123
12772TIP3   OH259730   4.334   2.582  15.619  0.2933  0.0927 -0.1239
12772TIP3    H159731   4.336   2.489  15.599  1.5721 -0.0521  0.5636
12772TIP3    H259732   4.426   2.608  15.623  0.0399  0.9073  1.7160
12773TIP3   OH259733   2.312   3.923  11.579 -0.1801 -0.1037 -0.9746
12773TIP3    H159734   2.251   3.883  11.641  0.8962  0.8857  0.8086
12773TIP3    H259735   2.279   4.012  11.567  0.6120  0.2834 -0.3732
12774TIP3   OH259736   4.050   1.120   1.330  0.1136  0.2019 -0.0577
12774TIP3    H159737   4.031   1.194   1.387  2.7132 -0.6529  2.1022
12774TIP3    H259738   4.117   1.152   1.269  0.4817 -0.0732  0.1994
12775TIP3   OH259739   1.533   3.098   0.350 -0.6681  0.2791 -0.3915
12775TIP3    H159740   1.452   3.096   0.300  0.1723 -0.6859 -1.8030
12775TIP3    H259741   1.592   3.153   0.299 -0.4377  1.0362  0.6563
12776TIP3   OH259742   4.074   1.908  13.716 -0.1656  0.0866  0.4319
12776TIP3    H159743   4.103   1.987  13.671  0.1665  0.0595  0.5938
12776TIP3    H259744   4.038   1.939  13.799 -2.3316  0.2950 -0.5419
12777TIP3   OH259745   2.629   2.762   3.298  0.0078 -0.2079  0.6242
12777TIP3    H159746   2.556   2.736   3.242 -0.3572  0.8620  0.5771
12777TIP3    H259747   2.589   2.784   3.382  0.0638  1.6441  0.2139
12778TIP3   OH259748   5.338   4.401   2.358  0.6017  0.2492  0.3023
12778TIP3    H159749   5.392   4.374   2.283 -0.3204 -1.8167  0.3056
12778TIP3    H259750   5.271   4.333   2.364  0.1679  0.8091  2.5207
12779TIP3   OH259751   4.075   2.035   3.474 -0.6055 -0.3213 -0.4123
12779TIP3    H159752   4.057   2.024   3.381  0.5078 -1.7249 -0.5036
12779TIP3    H259753   4.157   2.084   3.477 -0.8419  0.0595 -0.1683
12780TIP3   OH259754   2.670   4.171  11.580 -0.1686 -0.0057 -0.1784
12780TIP3    H159755   2.738   4.162  11.513 -0.4653 -2.0935 -0.2671
12780TIP3    H259756   2.588   4.152  11.535 -0.8976  2.5313 -0.0761
12781TIP3   OH259757   1.607   1.903  12.378  0.3496 -0.0595 -0.4017
12781TIP3    H159758   1.533   1.963  12.389  1.5584  1.4048  0.1213
12781TIP3    H259759   1.580   1.823  12.423 -1.4192 -0.0513 -1.3462
12782TIP3   OH259760   1.984   4.050  16.337 -0.0475  0.9752  0.1497
12782TIP3    H159761   2.027   3.971  16.305 -0.8040  1.0349 -1.0447
12782TIP3    H259762   2.048   4.120  16.322  0.5025  0.6631  0.9338
12783TIP3   OH259763   1.366   5.286  12.821  0.1749 -0.0305 -0.2616
12783TIP3    H159764   1.274   5.311  12.812 -0.2708 -1.2544  0.5851
12783TIP3    H259765   1.410   5.332  12.750 -1.1124  0.4785 -0.7704
12784TIP3   OH259766   2.602   1.930  14.904 -0.0048 -0.3021  0.0829
12784TIP3    H159767   2.694   1.913  14.919 -0.0517 -0.5017  0.1457
12784TIP3    H259768   2.577   1.870  14.834  0.1225  0.3607 -0.5359
12785TIP3   OH259769   6.499   0.725  15.691  0.0204  0.7189 -0.2002
12785TIP3    H159770   6.556   0.735  15.768 -3.1712  0.8823  2.3566
12785TIP3    H259771   6.442   0.802  15.693 -1.8329 -0.5572 -1.2037
12786TIP3   OH259772   1.858   1.179   6.221 -0.1371 -0.6429 -0.2101
12786TIP3    H159773   1.948   1.145   6.224  0.2524  0.2992 -0.9215
12786TIP3    H259774   1.811   1.126   6.286  1.0804 -0.7137  0.6557
12787TIP3   OH259775   2.046   3.171   2.758 -0.1947  0.2389 -0.1952
12787TIP3    H159776   2.084   3.165   2.670 -2.8358 -0.9651 -1.3620
12787TIP3    H259777   2.045   3.080   2.789  1.0668  0.6915  1.3200
12788TIP3   OH259778   2.963   2.117   5.830 -0.7072  0.4551  0.2762
12788TIP3    H159779   3.030   2.160   5.776 -0.5179  0.9343  0.8757
12788TIP3    H259780   2.894   2.183   5.840  0.1444  1.1329  2.2435
12789TIP3   OH259781   6.147   0.234   1.210 -0.0499 -0.2345  0.1061
12789TIP3    H159782   6.152   0.192   1.296  0.0701  0.2161  0.3236
12789TIP3    H259783   6.236   0.263   1.192 -0.2817  0.6799  0.3504
12790TIP3   OH259784   2.885   0.754  11.990  0.4659 -0.2537 -0.8576
12790TIP3    H159785   2.833   0.704  11.928 -1.2297  0.5556 -0.1634
12790TIP3    H259786   2.869   0.713  12.075 -0.9713  1.3788 -0.2726
12791TIP3   OH259787   3.017   0.515   1.941  0.0452  0.0207 -0.0646
12791TIP3    H159788   3.031   0.438   1.996 -3.7251 -0.3426  0.6194
12791TIP3    H259789   3.029   0.483   1.852  1.0135 -0.6835  0.2957
12792TIP3   OH259790   0.833   6.577   2.233  0.7707  0.0067 -0.2846
12792TIP3    H159791   0.780   6.497   2.224  0.7267 -0.1387  0.9732
12792TIP3    H259792   0.848   6.584   2.328  0.9289  1.3914 -0.3969
12793TIP3   OH259793   5.844   0.410  15.614 -0.3262 -0.1207 -0.2804
12793TIP3    H159794   5.874   0.360  15.538 -1.6157  0.4369 -1.1888
12793TIP3    H259795   5.783   0.475  15.578  0.1703  1.1392  1.0516
12794TIP3   OH259796   4.223   1.178  12.063  0.2994  0.1167  0.1579
12794TIP3    H159797   4.129   1.160  12.051  0.1504 -0.7420  2.1941
12794TIP3    H259798   4.266   1.126  11.996 -0.6537  0.0940 -0.4517
12795TIP3   OH259799   2.323   6.396   4.159 -0.0812 -0.2433 -0.3646
12795TIP3    H159800   2.404   6.386   4.108  0.6751 -1.8872  1.0725
12795TIP3    H259801   2.258   6.344   4.113  0.2796 -0.7261 -0.3378
12796TIP3   OH259802   2.609   1.929  11.034 -0.0883  0.4665  0.3392
12796TIP3    H159803   2.650   2.014  11.051  0.7269  0.2559 -0.5090
12796TIP3    H259804   2.550   1.945  10.960  0.0402  0.2976  0.2006
12797TIP3   OH259805   4.293   6.743  12.743 -0.0526 -0.1675 -0.2458
12797TIP3    H159806   4.364   6.767  12.803  0.4736  0.4545 -1.0967
12797TIP3    H259807   4.224   6.708  12.800  0.8603 -0.6188  0.6080
12798TIP3   OH259808   4.812   2.981  13.749  0.6343  0.5359  0.2137
12798TIP3    H159809   4.838   2.961  13.839 -0.5416 -0.8585  0.2833
12798TIP3    H259810   4.888   3.023  13.710  1.6464 -0.0867  1.4699
12799TIP3   OH259811   0.379   3.504  12.627 -0.0962 -0.1498  0.1435
12799TIP3    H159812   0.291   3.536  12.647  0.2941  1.0180  0.0353
12799TIP3    H259813   0.418   3.483  12.712 -0.3311 -0.2980  0.2153
12800TIP3   OH259814   5.584   5.305   3.702 -0.7660  0.7759 -0.5301
12800TIP3    H159815   5.642   5.303   3.626 -0.9995  0.7362 -0.7077
12800TIP3    H259816   5.516   5.241   3.682  0.2529 -0.7245  0.5847
12801TIP3   OH259817   5.233   4.149   0.536  0.3906  0.0623 -0.1090
12801TIP3    H159818   5.299   4.120   0.599  1.6657  0.2003 -1.3443
12801TIP3    H259819   5.227   4.077   0.473 -0.8169 -0.0381  0.0955
12802TIP3   OH259820   5.549   5.844   4.319 -0.5724 -0.0089 -1.0997
12802TIP3    H159821   5.616   5.800   4.268 -0.9390 -1.6381 -0.2690
12802TIP3    H259822   5.589   5.856   4.405 -1.4409 -1.4427 -0.4487
12803TIP3   OH259823   0.872   5.375  16.268  0.0781 -0.2720  0.4093
12803TIP3    H159824   0.887   5.469  16.271  2.3449 -0.5343 -0.6301
12803TIP3    H259825   0.928   5.344  16.197 -0.7992 -2.3859  0.5595
12804TIP3   OH259826   6.162   6.461  11.317  0.0704 -0.3811 -0.0128
12804TIP3    H159827   6.129   6.373  11.297 -0.4401 -0.7634  2.2498
12804TIP3    H259828   6.239   6.471  11.260 -1.6117 -1.0049 -2.6000
12805TIP3   OH259829   4.042   0.441  17.105 -0.4228 -0.1792  0.6396
12805TIP3    H159830   3.978   0.511  17.091  0.4940  1.4395  3.5402
12805TIP3    H259831   3.993   0.372  17.150 -0.1921  1.2975  3.3876
12806TIP3   OH259832   0.637   5.657  10.860 -0.6716  0.0625 -0.0914
12806TIP3    H159833   0.730   5.655  10.835 -0.8241  0.0854 -0.6733
12806TIP3    H259834   0.619   5.749  10.877 -0.6458  0.0871 -0.1967
12807TIP3   OH259835   3.002   3.213   4.098 -0.1472 -0.1550 -0.2264
12807TIP3    H159836   2.910   3.190   4.110  0.2472 -1.0996  1.1803
12807TIP3    H259837   3.027   3.258   4.178  0.3842  0.9555 -0.9913
12808TIP3   OH259838   3.116   3.361  13.031  0.1463 -0.9299  0.6189
12808TIP3    H159839   3.166   3.415  13.092 -2.1844  0.8719  1.0990
12808TIP3    H259840   3.064   3.303  13.087  0.6414 -1.7914  0.1954
12809TIP3   OH259841   6.552   5.808   3.639  0.6864  0.4253 -0.4008
12809TIP3    H159842   6.602   5.729   3.658  1.5658  0.9128 -0.6028
12809TIP3    H259843   6.461   5.779   3.634  0.9342 -0.4655  0.1019
12810TIP3   OH259844   5.892   4.434   2.099 -0.0995 -0.1281 -0.1010
12810TIP3    H159845   5.813   4.441   2.153  0.5322  0.4592  0.7839
12810TIP3    H259846   5.889   4.345   2.064 -1.3187 -0.0026 -0.3574
12811TIP3   OH259847   0.519   0.076   4.656  0.4103 -0.0476  0.6416
12811TIP3    H159848   0.580   0.128   4.604  0.8536 -1.9275 -0.8401
12811TIP3    H259849   0.545   0.092   4.746  0.8952  1.7798  0.2320
12812TIP3   OH259850   0.426   4.071   0.858 -0.1157  0.1923  0.6132
12812TIP3    H159851   0.409   3.997   0.916  3.3742 -2.1671 -1.0033
12812TIP3    H259852   0.484   4.128   0.909 -0.0487  0.0537  0.6918
12813TIP3   OH259853   0.358   0.142   3.230 -0.7683 -0.4087  0.0957
12813TIP3    H159854   0.438   0.091   3.219 -1.6734 -1.3445 -3.3066
12813TIP3    H259855   0.381   0.230   3.202 -0.2505  0.0810  1.9621
12814TIP3   OH259856   2.952   1.693  11.689  1.2609  0.6319 -0.0598
12814TIP3    H159857   2.946   1.736  11.604 -0.7790  0.0059 -0.2748
12814TIP3    H259858   2.942   1.600  11.671 -1.7735  0.6208  0.9707
12815TIP3   OH259859   6.219   2.886   5.863  0.0394 -0.2315  0.0246
12815TIP3    H159860   6.206   2.910   5.771 -1.1731 -1.0177 -0.0367
12815TIP3    H259861   6.227   2.791   5.862  1.8615 -0.1107  0.5590
12816TIP3   OH259862   0.265   3.394   5.759 -0.1824  0.5508 -0.4157
12816TIP3    H159863   0.263   3.325   5.826 -1.7546 -1.6112 -2.5215
12816TIP3    H259864   0.357   3.402   5.735  0.2343  0.4392  1.0541
12817TIP3   OH259865   0.828   5.353   4.416  0.5384 -0.2168  0.7239
12817TIP3    H159866   0.768   5.307   4.475 -0.9479  1.0649  0.2937
12817TIP3    H259867   0.800   5.327   4.328  1.5160 -0.6642  0.5355
12818TIP3   OH259868   2.528   0.760  11.868 -0.0528  0.3702 -0.1265
12818TIP3    H159869   2.477   0.701  11.812  0.2829 -0.0256 -0.0236
12818TIP3    H259870   2.481   0.761  11.951 -0.0224  0.1895 -0.1059
12819TIP3   OH259871   5.382   4.291   2.807  0.0616  0.4071  0.0496
12819TIP3    H159872   5.302   4.323   2.850  0.0926  0.5313  0.0157
12819TIP3    H259873   5.350   4.229   2.742  0.0817 -0.5553  0.9412
12820TIP3   OH259874   5.928   0.238   2.224  0.0620  0.5363  0.0976
12820TIP3    H159875   5.997   0.182   2.259  0.6290  1.4515  0.4712
12820TIP3    H259876   5.962   0.268   2.140  0.4265  1.5297  0.5862
12821TIP3   OH259877   4.562   3.727   5.697 -0.1435 -0.6213  0.3654
12821TIP3    H159878   4.500   3.736   5.769 -0.4498  0.6423 -0.0366
12821TIP3    H259879   4.553   3.636   5.669 -0.8551 -0.8106  1.1671
12822TIP3   OH259880   2.110   2.670   3.632 -0.4790  0.2041 -0.0292
12822TIP3    H159881   2.198   2.703   3.615 -0.5292 -0.0594 -0.8909
12822TIP3    H259882   2.102   2.595   3.574 -0.8836 -0.4476  0.8530
12823TIP3   OH259883   3.491   0.839   5.855 -0.6096 -0.3324  0.0526
12823TIP3    H159884   3.536   0.922   5.868 -0.4828 -0.3287 -0.3890
12823TIP3    H259885   3.403   0.853   5.891 -0.3014 -0.3023  0.8066
12824TIP3   OH259886   5.840   2.781  15.686 -0.4917 -0.1066 -0.2263
12824TIP3    H159887   5.830   2.874  15.664 -0.0576  0.4572  1.8237
12824TIP3    H259888   5.775   2.765  15.753 -0.4861 -1.2808 -0.4825
12825TIP3   OH259889   5.524   3.743  11.881  0.0159 -0.1209 -0.2223
12825TIP3    H159890   5.545   3.816  11.822  0.9217 -0.1441  0.0515
12825TIP3    H259891   5.588   3.675  11.858  0.2340 -0.2109  0.6256
12826TIP3   OH259892   5.337   5.173   5.044  0.1089  0.5149  0.5777
12826TIP3    H159893   5.323   5.191   5.137  0.1193  0.4871  0.5846
12826TIP3    H259894   5.263   5.215   5.000  0.9655  1.9698  0.4441
12827TIP3   OH259895   3.204   0.999  13.091 -0.2034  0.1601  0.1908
12827TIP3    H159896   3.184   0.905  13.094  0.0498  0.0861 -0.3558
12827TIP3    H259897   3.274   1.006  13.026 -2.9026  1.1982 -2.8705
12828TIP3   OH259898   0.970   1.829   3.065 -0.0991  0.1884  0.2325
12828TIP3    H159899   0.879   1.807   3.042 -0.6144  1.5162  0.9051
12828TIP3    H259900   0.970   1.833   3.161  0.4770  0.9679  0.2047
12829TIP3   OH259901   5.448   0.667  15.127  0.3619  0.4114 -0.1647
12829TIP3    H159902   5.387   0.610  15.082 -1.3008  1.4113  0.7383
12829TIP3    H259903   5.441   0.644  15.219  0.3833  1.3938  0.1020
12830TIP3   OH259904   5.198   1.037   3.656  0.7945 -0.3091 -0.2763
12830TIP3    H159905   5.132   0.975   3.686  1.1514  0.1875  1.6809
12830TIP3    H259906   5.223   1.086   3.734  0.8149  2.0550 -1.6517
12831TIP3   OH259907   5.883   1.174   6.224 -0.7822 -0.1077  0.5526
12831TIP3    H159908   5.846   1.089   6.249  2.1869 -1.1956  1.8118
12831TIP3    H259909   5.935   1.200   6.300  0.2723  1.6685 -0.7044
12832TIP3   OH259910   2.755   4.079   0.609  0.2303  0.4530  0.6499
12832TIP3    H159911   2.733   4.006   0.666  1.4635 -0.1024  0.4416
12832TIP3    H259912   2.845   4.102   0.632  0.9004 -0.0120 -1.2731
12833TIP3   OH259913   2.276   2.979   1.317  0.6249 -0.0948  0.7192
12833TIP3    H159914   2.344   3.025   1.366  2.2918 -0.2948 -1.2819
12833TIP3    H259915   2.250   3.040   1.249 -0.4361 -0.4404  0.7985
12834TIP3   OH259916   0.462   5.398  13.899 -0.4775 -0.1583  1.1498
12834TIP3    H159917   0.535   5.346  13.864 -1.0168 -0.6678  0.7607
12834TIP3    H259918   0.497   5.436  13.979  0.6202  0.6274  0.3257
12835TIP3   OH259919   0.424   4.033   6.089 -0.6919  0.6164  0.1026
12835TIP3    H159920   0.430   3.993   6.002  1.2046 -0.3860  0.6270
12835TIP3    H259921   0.339   4.078   6.089 -1.2167 -0.2422 -1.8735
12836TIP3   OH259922   4.632   1.610  11.478 -0.1143  0.4411 -0.0846
12836TIP3    H159923   4.713   1.567  11.452 -1.8890 -3.1309 -0.2262
12836TIP3    H259924   4.603   1.657  11.400  2.0838  2.4274  0.1919
12837TIP3   OH259925   1.334   2.845   4.609 -0.5094 -0.5577 -0.2895
12837TIP3    H159926   1.243   2.868   4.627 -0.8935 -1.2034 -1.3325
12837TIP3    H259927   1.332   2.803   4.523  0.4194 -2.7946  0.7096
12838TIP3   OH259928   2.828   3.210  16.745  0.2269  0.3193 -0.1779
12838TIP3    H159929   2.766   3.279  16.720 -0.2176 -0.1833 -0.4796
12838TIP3    H259930   2.820   3.205  16.840  0.0356  0.4800 -0.1835
12839TIP3   OH259931   1.589   6.001   3.456 -0.4395  0.8744 -0.1725
12839TIP3    H159932   1.652   6.072   3.442 -0.2127  0.6635 -0.2217
12839TIP3    H259933   1.523   6.014   3.388 -0.1460  0.7565 -0.4815
12840TIP3   OH259934   3.230   6.244   0.727  0.1975 -0.5678 -0.2215
12840TIP3    H159935   3.279   6.247   0.809 -0.4288 -0.5967  0.1692
12840TIP3    H259936   3.209   6.335   0.708 -0.0194 -0.5920 -0.1129
12841TIP3   OH259937   1.157   2.483  15.789  0.9296 -0.1842  0.2676
12841TIP3    H159938   1.148   2.568  15.832  2.2508 -0.3916  0.9978
12841TIP3    H259939   1.162   2.420  15.861 -1.7686 -1.1399 -0.2546
12842TIP3   OH259940   4.884   3.873  12.456 -0.3586  0.3108  0.1410
12842TIP3    H159941   4.945   3.934  12.414 -1.6609  2.2927  0.9996
12842TIP3    H259942   4.805   3.878  12.403 -0.3151 -1.1078 -0.0971
12843TIP3   OH259943   3.784   5.234  11.262  0.0414  0.3404  0.2944
12843TIP3    H159944   3.731   5.170  11.214  0.4879  0.4562 -0.3675
12843TIP3    H259945   3.873   5.223  11.227  0.6157 -0.3344  1.8783
12844TIP3   OH259946   1.187   0.945  15.635 -0.0626  0.2339  0.5332
12844TIP3    H159947   1.274   0.911  15.656  0.5762  1.6167  0.2517
12844TIP3    H259948   1.130   0.869  15.639  0.8655 -0.4327  2.4012
12845TIP3   OH259949   1.859   3.273   4.966  0.2514 -0.2141  0.0724
12845TIP3    H159950   1.776   3.320   4.977  1.8689  2.9514  0.0609
12845TIP3    H259951   1.875   3.275   4.871  0.8216  0.1638  0.1706
12846TIP3   OH259952   5.818   6.550  16.101  0.0575 -0.5412  0.9121
12846TIP3    H159953   5.754   6.481  16.084  0.1357 -0.3630 -0.2158
12846TIP3    H259954   5.903   6.508  16.094  0.2010  0.0370 -2.0453
12847TIP3   OH259955   3.846   5.404   5.827  0.3927 -0.2120 -0.2138
12847TIP3    H159956   3.838   5.316   5.788  2.0694 -0.7024  0.4890
12847TIP3    H259957   3.788   5.401   5.903  0.3472 -0.6660 -0.2602
12848TIP3   OH259958   4.344   6.489  15.992 -0.2278  0.3609 -0.0709
12848TIP3    H159959   4.332   6.401  16.028 -0.4054 -0.3718 -1.7823
12848TIP3    H259960   4.287   6.545  16.044 -0.8636 -0.7145  0.4187
12849TIP3   OH259961   1.711   2.965   3.160  0.0143 -0.1592 -0.0080
12849TIP3    H159962   1.749   3.043   3.120 -0.4949  0.5583  0.8732
12849TIP3    H259963   1.627   2.953   3.114 -1.3367  1.6052  1.8262
12850TIP3   OH259964   0.397   6.077  16.130  0.1418 -0.0336  0.8665
12850TIP3    H159965   0.393   6.173  16.124  0.1934 -0.0026  1.2783
12850TIP3    H259966   0.372   6.046  16.043  0.4018  0.3608  0.6523
12851TIP3   OH259967   5.783   2.626  12.358 -0.3157  0.0299 -0.0012
12851TIP3    H159968   5.747   2.618  12.446 -2.3623 -0.7241 -0.8230
12851TIP3    H259969   5.868   2.583  12.362  0.7137  2.0318  2.1011
12852TIP3   OH259970   4.413   3.891  13.556 -0.6967 -1.0113  0.5399
12852TIP3    H159971   4.491   3.845  13.587  1.3638  0.6707 -1.7354
12852TIP3    H259972   4.378   3.834  13.487  1.0786  0.0299 -1.3484
12853TIP3   OH259973   3.084   5.445  14.708 -0.8547 -0.5330 -0.3800
12853TIP3    H159974   3.095   5.453  14.802  1.1954 -0.9851 -0.5463
12853TIP3    H259975   3.097   5.352  14.690  0.3464 -0.2196 -1.2616
12854TIP3   OH259976   5.950   6.478  13.178 -0.1096 -0.6650 -0.3759
12854TIP3    H159977   6.015   6.548  13.176  0.5416 -1.1894  1.1134
12854TIP3    H259978   5.985   6.410  13.120  0.9706 -1.1664  0.8252
12855TIP3   OH259979   3.663   4.445   1.808 -0.1846  0.2752  0.6432
12855TIP3    H159980   3.709   4.525   1.832  0.7135 -0.3322  1.0324
12855TIP3    H259981   3.724   4.375   1.830  0.1425 -0.4342 -2.0845
12856TIP3   OH259982   2.230   0.716  15.542 -0.1564  0.1219 -0.1595
12856TIP3    H159983   2.178   0.796  15.543 -0.3262  0.0127  0.8628
12856TIP3    H259984   2.165   0.646  15.537 -0.2017 -0.0502  1.9832
12857TIP3   OH259985   3.371   2.277   4.296  0.0325 -0.2425  0.3161
12857TIP3    H159986   3.364   2.286   4.391  0.2971  2.2063  0.1614
12857TIP3    H259987   3.407   2.360   4.267 -1.2024 -0.4698 -2.0659
12858TIP3   OH259988   2.454   5.820   3.642  0.2943 -0.1221 -0.4786
12858TIP3    H159989   2.399   5.765   3.697 -0.2328  1.1857  0.3537
12858TIP3    H259990   2.543   5.802   3.672  0.1574 -0.7398 -0.4280
12859TIP3   OH259991   4.702   6.375  11.984  0.6836  0.3401  0.1863
12859TIP3    H159992   4.617   6.332  11.972  1.8065 -1.8178 -0.4265
12859TIP3    H259993   4.732   6.345  12.070  1.6852 -0.5203 -0.4460
12860TIP3   OH259994   1.706   3.460   1.024  0.2126 -0.1558 -0.3026
12860TIP3    H159995   1.694   3.365   1.022 -1.0235 -0.0143 -0.1036
12860TIP3    H259996   1.784   3.474   1.078  0.2808 -1.0408 -0.1670
12861TIP3   OH259997   4.528   1.952  14.239 -0.6617 -0.1749  0.4644
12861TIP3    H159998   4.555   1.886  14.303 -1.6633 -0.4973  0.5619
12861TIP3    H259999   4.531   1.908  14.155 -0.1468  0.0142  0.3780
12862TIP3   OH260000   2.411   4.819   0.144  0.9167 -0.2541  0.3612
12862TIP3    H160001   2.439   4.750   0.084  1.0644 -0.6260  0.8495
12862TIP3    H260002   2.326   4.847   0.110  0.7154 -0.8894  0.3276
12863TIP3   OH260003   1.081   6.155   2.535 -0.0792  0.3620 -0.1540
12863TIP3    H160004   1.127   6.104   2.468  0.2240  0.0735  0.2700
12863TIP3    H260005   1.076   6.243   2.498  0.8221  0.4010 -0.2032
12864TIP3   OH260006   4.366   2.307   5.772 -0.1773  0.1429 -0.4831
12864TIP3    H160007   4.397   2.227   5.815 -0.4404  0.6668  0.6923
12864TIP3    H260008   4.440   2.367   5.776 -0.3352  0.3336 -0.3994
12865TIP3   OH260009   2.347   2.666  16.672  0.2243  0.7113 -0.3965
12865TIP3    H160010   2.434   2.629  16.686  0.3461  1.1567  0.0483
12865TIP3    H260011   2.288   2.591  16.676  0.4934  0.5294  0.2555
12866TIP3   OH260012   1.459   2.802   1.739  0.0776  0.3080  0.3006
12866TIP3    H160013   1.467   2.795   1.644 -0.3696  2.7896 -0.0015
12866TIP3    H260014   1.547   2.783   1.772  0.3331 -0.1922 -0.6336
12867TIP3   OH260015   5.741   1.355   4.169  0.0996 -0.1453 -0.2258
12867TIP3    H160016   5.778   1.365   4.081 -0.3228 -0.1885 -0.4140
12867TIP3    H260017   5.650   1.328   4.153  0.5684 -2.1966  0.2099
12868TIP3   OH260018   4.922   2.273  15.961  0.5140 -0.0774 -0.6881
12868TIP3    H160019   4.915   2.182  15.991  0.3749  0.1122 -0.1188
12868TIP3    H260020   5.013   2.282  15.935  0.7896 -0.0971  0.2328
12869TIP3   OH260021   4.363   3.467   3.983 -0.0404  0.3319 -0.1133
12869TIP3    H160022   4.371   3.373   3.969  1.6025  0.4090  0.1165
12869TIP3    H260023   4.269   3.484   3.978 -0.3338 -1.2517 -0.5403
12870TIP3   OH260024   2.358   6.387   2.129  0.4635 -0.2709  0.1730
12870TIP3    H160025   2.416   6.458   2.157  1.8311 -1.3122  0.0594
12870TIP3    H260026   2.305   6.368   2.206 -0.5134  1.3954 -0.0319
12871TIP3   OH260027   2.644   1.760  15.535  0.1033 -0.6766 -0.8034
12871TIP3    H160028   2.601   1.799  15.611  1.0476 -0.8846 -0.1469
12871TIP3    H260029   2.572   1.729  15.480 -0.6596  1.2124 -0.9547
12872TIP3   OH260030   0.106   5.903   0.208 -0.6495 -0.0856 -0.1143
12872TIP3    H160031   0.097   5.808   0.215  0.0244 -0.1942 -0.6532
12872TIP3    H260032   0.059   5.925   0.127  1.1299 -0.2730 -1.2628
12873TIP3   OH260033   2.952   3.397   0.227 -0.4688 -0.6461 -0.6406
12873TIP3    H160034   3.004   3.419   0.304 -1.2645 -1.0919  0.0269
12873TIP3    H260035   3.005   3.332   0.181 -0.9450 -1.9811  0.6454
12874TIP3   OH260036   6.401   0.624   3.136  0.1159  0.3815  0.2260
12874TIP3    H160037   6.346   0.573   3.194 -0.0658  2.8525  2.4084
12874TIP3    H260038   6.488   0.585   3.144 -0.4179 -0.8744  0.1247
12875TIP3   OH260039   0.671   4.138   1.001 -0.0396  0.3595  0.4888
12875TIP3    H160040   0.751   4.091   0.977  2.3805  4.0622  0.5197
12875TIP3    H260041   0.668   4.133   1.096  0.8915  1.2314  0.5761
12876TIP3   OH260042   3.434   1.876   6.425 -0.8679 -0.0639 -0.0579
12876TIP3    H160043   3.509   1.820   6.444  0.0523  0.4321 -1.9686
12876TIP3    H260044   3.395   1.839   6.346 -1.4211  0.8505 -0.2341
12877TIP3   OH260045   0.310   1.455  11.565 -0.0430 -0.1867  0.6387
12877TIP3    H160046   0.398   1.492  11.576  0.2797 -0.2807 -1.2671
12877TIP3    H260047   0.256   1.502  11.628  1.5978 -1.0572  2.8221
12878TIP3   OH260048   3.137   2.640   6.804  0.2670 -0.1348 -0.5806
12878TIP3    H160049   3.188   2.560   6.789  0.9210  0.3604 -1.1020
12878TIP3    H260050   3.196   2.696   6.854 -0.2424 -0.0289 -0.0985
12879TIP3   OH260051   5.251   6.599  13.822 -0.2215  0.2689 -0.3403
12879TIP3    H160052   5.344   6.573  13.821 -0.5377 -0.9580 -1.6699
12879TIP3    H260053   5.235   6.627  13.912  0.9712 -1.2657  0.3942
12880TIP3   OH260054   0.406   4.071  16.649  0.1359  0.2833 -0.2710
12880TIP3    H160055   0.326   4.025  16.673 -0.2344  0.6803 -0.7184
12880TIP3    H260056   0.436   4.028  16.568  0.3467  0.1664 -0.1307
12881TIP3   OH260057   6.097   5.731   0.264  0.4203  0.0174 -0.1301
12881TIP3    H160058   6.016   5.779   0.249 -0.0087 -0.6012  0.1692
12881TIP3    H260059   6.165   5.788   0.228 -0.0472  0.9318  0.3820
12882TIP3   OH260060   4.861   4.223   2.333 -0.8808 -0.2792  0.4400
12882TIP3    H160061   4.879   4.295   2.273  0.1806  0.6722  1.8415
12882TIP3    H260062   4.941   4.214   2.385  0.2746 -4.4954 -1.6374
12883TIP3   OH260063   6.392   4.898   0.277 -0.0487 -0.2987 -0.0094
12883TIP3    H160064   6.440   4.875   0.357  0.5199  0.9841  0.0377
12883TIP3    H260065   6.374   4.814   0.235  0.0675 -0.9656  1.2215
12884TIP3   OH260066   1.700   0.193  16.200 -0.2080  0.0599 -0.3652
12884TIP3    H160067   1.616   0.219  16.163  0.3399  0.3278 -1.4604
12884TIP3    H260068   1.718   0.107  16.162 -0.1559 -0.1667  0.1587
12885TIP3   OH260069   2.746   4.248   5.123 -0.1060  0.2173  0.1792
12885TIP3    H160070   2.686   4.218   5.191 -0.3996 -3.7033 -1.5423
12885TIP3    H260071   2.690   4.279   5.052 -0.0141 -0.4448 -0.1907
12886TIP3   OH260072   2.026   0.519  16.284  0.3003  0.8011 -0.4465
12886TIP3    H160073   1.941   0.492  16.319  0.7991 -1.2851 -0.6802
12886TIP3    H260074   2.088   0.499  16.355  0.7692  0.9167 -0.8211
12887TIP3   OH260075   5.977   6.705  11.174 -0.2466 -0.4575  0.0176
12887TIP3    H160076   6.037   6.767  11.132  1.9371 -2.1683  0.3637
12887TIP3    H260077   5.925   6.669  11.102 -1.0589  1.2195 -0.2682
12888TIP3   OH260078   4.466   4.504  11.560  0.0951 -0.1682 -0.0728
12888TIP3    H160079   4.492   4.413  11.578 -0.9472 -0.1402  1.8606
12888TIP3    H260080   4.504   4.555  11.631 -0.4938  0.7008 -0.3546
12889TIP3   OH260081   2.236   4.137  16.900 -0.1968  0.1739  0.0873
12889TIP3    H160082   2.189   4.079  16.839  1.1282 -1.4144  0.4967
12889TIP3    H260083   2.170   4.200  16.928 -1.4311 -0.4475 -1.2439
12890TIP3   OH260084   0.503   2.872  16.142 -0.1649  0.1694  0.2472
12890TIP3    H160085   0.472   2.798  16.193  2.5178  0.7969  3.0872
12890TIP3    H260086   0.485   2.948  16.197 -0.4695  1.3905 -1.4445
12891TIP3   OH260087   0.361   3.498  14.396 -0.1151 -0.3098 -0.3829
12891TIP3    H160088   0.431   3.433  14.402  1.1725  1.1232  1.0994
12891TIP3    H260089   0.309   3.485  14.476 -0.6973 -0.4327 -0.7759
12892TIP3   OH260090   2.932   4.054   0.091  0.0338 -0.2362  0.0675
12892TIP3    H160091   2.920   3.960   0.108 -2.8112  0.0245 -0.0353
12892TIP3    H260092   2.911   4.096   0.174 -3.4648  0.4802 -1.0370
12893TIP3   OH260093   3.901   4.831   2.838  0.1663  0.0605  0.4942
12893TIP3    H160094   3.973   4.854   2.780  0.1350 -2.7480 -0.7897
12893TIP3    H260095   3.826   4.878   2.803 -0.0601 -2.2551 -2.4568
12894TIP3   OH260096   3.663   1.603   2.836  0.1065 -0.3218 -0.0055
12894TIP3    H160097   3.593   1.669   2.836  2.1255  2.0211 -2.3399
12894TIP3    H260098   3.656   1.561   2.750  1.6687  0.1008 -0.3597
12895TIP3   OH260099   0.215   1.206   2.087 -0.2320 -0.0225  0.2349
12895TIP3    H160100   0.130   1.250   2.084 -0.2124 -0.0306 -1.3975
12895TIP3    H260101   0.196   1.116   2.058  0.1446 -0.4006  1.1043
12896TIP3   OH260102   2.562   4.982  15.394  0.2840 -0.1482 -0.6285
12896TIP3    H160103   2.478   4.991  15.349  0.1169 -0.7033 -0.4322
12896TIP3    H260104   2.585   5.071  15.421  0.2583  0.1574 -1.5788
12897TIP3   OH260105   6.213   3.805  11.950 -0.1972  0.3646 -0.4633
12897TIP3    H160106   6.140   3.850  11.992  1.4466 -0.1857  3.3998
12897TIP3    H260107   6.188   3.712  11.952  0.7371  0.1111  1.4042
12898TIP3   OH260108   1.216   3.870  14.194  0.2279 -0.0599  0.0911
12898TIP3    H160109   1.147   3.835  14.250  0.7928 -1.1876  0.1008
12898TIP3    H260110   1.181   3.953  14.162 -1.6090 -1.1234 -0.8079
12899TIP3   OH260111   0.411   3.281  11.988 -0.4540 -0.2579  0.6534
12899TIP3    H160112   0.417   3.244  11.900 -2.3872  0.1436  0.3058
12899TIP3    H260113   0.461   3.362  11.984  0.5026 -0.8524  0.2868
12900TIP3   OH260114   0.335   2.624  12.000 -0.0216  0.1447  0.3220
12900TIP3    H160115   0.425   2.591  11.993  0.3092  0.8272  1.1095
12900TIP3    H260116   0.322   2.636  12.094 -0.6264  0.9073  0.1503
12901TIP3   OH260117   1.361   0.279   1.425 -0.8589 -0.2695  0.4723
12901TIP3    H160118   1.412   0.270   1.506 -0.7191 -0.4252  0.3674
12901TIP3    H260119   1.427   0.286   1.356 -0.9148  2.0613  0.5658
12902TIP3   OH260120   5.728   1.037  13.124 -0.1522  0.3465  0.1779
12902TIP3    H160121   5.753   1.071  13.210 -2.9448  0.7063  0.9307
12902TIP3    H260122   5.694   0.949  13.142  0.0645  0.0800 -0.6857
12903TIP3   OH260123   5.746   1.533  14.756 -0.0322 -0.1667  0.4912
12903TIP3    H160124   5.808   1.564  14.822  0.1906  3.0173 -1.0499
12903TIP3    H260125   5.714   1.612  14.713  0.8004 -1.9870 -4.1087
12904TIP3   OH260126   6.034   2.829   3.164  0.9085 -0.3574 -0.1115
12904TIP3    H160127   6.125   2.850   3.184  0.6805 -1.5844  2.6455
12904TIP3    H260128   6.035   2.736   3.140  0.1975 -0.9618  2.0038
12905TIP3   OH260129   5.063   6.558   0.711 -0.0440  0.0468 -0.1776
12905TIP3    H160130   5.043   6.567   0.618 -1.3136  0.0974  0.0816
12905TIP3    H260131   5.125   6.628   0.729  1.2368 -0.7550 -1.2453
12906TIP3   OH260132   0.349   2.537  14.333 -0.5855  0.1158 -0.0436
12906TIP3    H160133   0.288   2.587  14.388  0.0404  2.0606 -0.9898
12906TIP3    H260134   0.434   2.580  14.347  0.2868 -1.5579  0.0789
12907TIP3   OH260135   2.354   1.924   2.003  0.2701  0.1677  0.1780
12907TIP3    H160136   2.346   1.845   2.057  2.9083 -2.4221 -2.7550
12907TIP3    H260137   2.264   1.950   1.986 -0.6745 -1.0224  2.7906
12908TIP3   OH260138   4.765   5.265   0.030 -0.0760  0.0822 -0.9143
12908TIP3    H160139   4.682   5.266   0.078  0.2199 -2.1269 -0.2198
12908TIP3    H260140   4.749   5.321  -0.046 -1.5904  1.1572  0.1249
12909TIP3   OH260141   3.036   6.237  10.524  0.3226 -1.1288 -0.0093
12909TIP3    H160142   3.108   6.248  10.461  0.4715 -0.6443  0.2379
12909TIP3    H260143   2.962   6.283  10.484  0.2959 -1.1844 -0.0246
12910TIP3   OH260144   2.415   4.932  12.432  0.1784 -0.2219  0.5906
12910TIP3    H160145   2.477   4.989  12.386 -0.3796  1.2590  1.5802
12910TIP3    H260146   2.350   4.908  12.365  0.9716 -0.5543 -0.0832
12911TIP3   OH260147   2.496   2.734   4.943  0.2582 -0.0678  0.3139
12911TIP3    H160148   2.407   2.764   4.963  0.2267 -0.8494  1.4569
12911TIP3    H260149   2.552   2.806   4.970 -0.0408  0.6286 -0.8661
12912TIP3   OH260150   1.487   4.639   5.492 -0.4682  0.3527  0.1628
12912TIP3    H160151   1.465   4.714   5.546 -0.7664  0.6855 -0.4126
12912TIP3    H260152   1.582   4.631   5.499 -0.1037  2.2565 -1.6404
12913TIP3   OH260153   1.809   6.238   1.118  0.0862 -0.0425  0.5626
12913TIP3    H160154   1.871   6.307   1.139  0.4920  0.3161 -1.5408
12913TIP3    H260155   1.857   6.180   1.059 -1.6476  0.5206 -1.5495
12914TIP3   OH260156   5.304   5.914   4.209 -0.1074  0.1490 -0.5398
12914TIP3    H160157   5.365   5.897   4.281  1.3569  2.0132 -1.2856
12914TIP3    H260158   5.357   5.908   4.130 -0.6469  2.5360 -1.1610
12915TIP3   OH260159   2.309   5.376  16.158 -0.0667 -0.0509 -0.1352
12915TIP3    H160160   2.360   5.441  16.206 -1.3850  0.1198  1.0835
12915TIP3    H260161   2.324   5.397  16.065  1.4852  0.4153  0.1976
12916TIP3   OH260162   6.071   4.697   3.497 -0.2326  0.0882  0.4025
12916TIP3    H160163   6.073   4.696   3.401  6.0573  1.3227  0.0702
12916TIP3    H260164   6.081   4.789   3.520 -1.8034 -0.1737  2.3493
12917TIP3   OH260165   2.324   5.178   0.770  0.9310 -0.0978  0.1124
12917TIP3    H160166   2.281   5.193   0.855 -0.5300  0.9352 -0.7631
12917TIP3    H260167   2.409   5.222   0.778  0.2295  1.2532  0.5895
12918TIP3   OH260168   6.429   1.534   2.861 -0.7263 -0.1316  0.5352
12918TIP3    H160169   6.459   1.623   2.880  1.3200 -0.5210 -0.5526
12918TIP3    H260170   6.425   1.492   2.947 -1.2213  0.8584  1.0112
12919TIP3   OH260171   2.329   6.488   4.897  0.1189  0.3854 -0.7220
12919TIP3    H160172   2.297   6.401   4.874  0.0869 -0.1556  1.1819
12919TIP3    H260173   2.251   6.544   4.896 -0.3524 -0.2134  0.6763
12920TIP3   OH260174   0.311   2.865   5.342 -0.0480 -0.0485  0.1636
12920TIP3    H160175   0.274   2.947   5.310  1.2271  0.4426 -0.1059
12920TIP3    H260176   0.380   2.891   5.403  0.6078 -0.9090 -0.1844
12921TIP3   OH260177   3.355   6.046   1.481  0.0955 -0.1821  0.3148
12921TIP3    H160178   3.346   6.141   1.480 -1.8373 -0.2845  1.5377
12921TIP3    H260179   3.265   6.014   1.475  0.6924 -1.9414  0.2289
12922TIP3   OH260180   1.501   0.549  12.266 -0.5652 -1.0653 -0.2345
12922TIP3    H160181   1.495   0.600  12.347  0.5962 -1.2356 -0.0092
12922TIP3    H260182   1.413   0.548  12.230 -0.5407  1.4867 -0.4935
12923TIP3   OH260183   6.212   2.807   6.221 -0.0285 -0.0226  0.1665
12923TIP3    H160184   6.155   2.738   6.255 -0.8361  0.7779  0.4648
12923TIP3    H260185   6.156   2.861   6.167  0.4810  0.6854  0.3244
12924TIP3   OH260186   5.673   1.445   0.617 -0.3872 -0.8308  0.2104
12924TIP3    H160187   5.688   1.351   0.611 -1.2227 -0.9667 -0.0062
12924TIP3    H260188   5.613   1.455   0.691 -1.1123 -0.5832 -0.3975
12925TIP3   OH260189   0.238   2.279  11.861  0.4725 -0.2261  0.0939
12925TIP3    H160190   0.311   2.303  11.804 -1.2368 -0.5380 -2.3883
12925TIP3    H260191   0.225   2.185  11.844 -1.1919  0.0671 -0.4057
12926TIP3   OH260192   0.865   5.933  11.774  0.0468 -0.3336  0.4286
12926TIP3    H160193   0.832   5.986  11.702  2.1275  0.9953  0.3533
12926TIP3    H260194   0.924   5.870  11.733 -0.3711 -0.9740  0.7842
12927TIP3   OH260195   2.866   4.711  16.455  0.0484  0.2032  0.5860
12927TIP3    H160196   2.790   4.756  16.418 -0.8825  0.3942  2.6069
12927TIP3    H260197   2.834   4.623  16.475  1.1769 -0.6417 -1.0873
12928TIP3   OH260198   6.297   3.562   3.017  0.3377  0.4790  0.0681
12928TIP3    H160199   6.242   3.484   3.020 -0.3673  0.9497 -0.4627
12928TIP3    H260200   6.269   3.609   2.939  1.0137  1.0805  0.1763
12929TIP3   OH260201   3.768   2.421  16.634  0.0012 -0.3320 -0.1730
12929TIP3    H160202   3.717   2.368  16.573 -2.1381 -1.0957  2.0902
12929TIP3    H260203   3.776   2.506  16.591 -2.2139 -0.5480 -1.1714
12930TIP3   OH260204   3.737   1.874   1.477 -1.0494 -0.0710 -0.5731
12930TIP3    H160205   3.677   1.884   1.551 -1.1198 -2.3946 -0.2217
12930TIP3    H260206   3.751   1.962   1.445 -1.8848  0.9004  1.5379
12931TIP3   OH260207   5.958   0.560  13.966  0.6780 -0.4619 -0.0819
12931TIP3    H160208   5.983   0.592  13.879 -1.4574  0.8449 -0.2673
12931TIP3    H260209   5.986   0.628  14.026  1.3124 -0.9373  0.1709
12932TIP3   OH260210   2.651   2.957   5.050  0.1780  0.2993 -0.0303
12932TIP3    H160211   2.641   3.048   5.023  0.9359  0.3027 -0.3291
12932TIP3    H260212   2.745   2.941   5.046 -0.0021 -0.7412 -0.8205
12933TIP3   OH260213   1.355   6.176  12.255  0.6425 -0.0007 -0.0103
12933TIP3    H160214   1.379   6.268  12.268  0.8953 -0.2078  1.0938
12933TIP3    H260215   1.406   6.128  12.321  0.3975 -0.9183 -0.4663
12934TIP3   OH260216   4.085   0.535   6.428  0.0859 -0.1582 -0.1127
12934TIP3    H160217   4.050   0.485   6.502 -1.2872 -1.4053 -1.4988
12934TIP3    H260218   4.141   0.473   6.382 -0.6429 -0.0532 -1.1775
12935TIP3   OH260219   3.102   1.177   6.069  0.5093  0.1013 -0.1522
12935TIP3    H160220   3.056   1.105   6.112 -0.1271 -0.0414 -1.0534
12935TIP3    H260221   3.189   1.142   6.049  0.1657 -0.4535 -0.6851
12936TIP3   OH260222   3.455   1.053  14.490  0.1661 -0.4741  0.0462
12936TIP3    H160223   3.444   1.074  14.397 -0.0841 -1.5804 -0.1814
12936TIP3    H260224   3.376   1.087  14.531  0.7530  0.9789  0.0429
12937TIP3   OH260225   2.940   4.485  14.720 -0.1032 -0.0577  0.2788
12937TIP3    H160226   2.883   4.557  14.745  0.1117 -0.1640  1.1096
12937TIP3    H260227   2.929   4.420  14.790 -0.3227 -0.8512 -0.4724
12938TIP3   OH260228   1.841   6.193  14.244  0.0516  0.5846  0.2537
12938TIP3    H160229   1.834   6.155  14.332 -0.1426 -1.1568 -0.4632
12938TIP3    H260230   1.933   6.219  14.236  0.0669  0.7690  0.9633
12939TIP3   OH260231   5.993   1.734  13.144 -0.0957 -0.1191 -0.2447
12939TIP3    H160232   5.962   1.724  13.054 -0.1770 -1.1030 -0.1163
12939TIP3    H260233   5.932   1.795  13.184 -2.1195 -2.2260  0.0921
12940TIP3   OH260234   5.385   1.734  15.371 -0.5476  0.4377 -0.1100
12940TIP3    H160235   5.441   1.687  15.309  0.5077  1.1455  0.2733
12940TIP3    H260236   5.346   1.804  15.319 -1.0955 -0.0627 -0.3825
12941TIP3   OH260237   0.525   6.535  16.855  0.2668  0.1457 -0.4827
12941TIP3    H160238   0.514   6.523  16.761  1.9992  0.4088 -0.7565
12941TIP3    H260239   0.574   6.458  16.884 -0.0668  0.1702  0.1581
12942TIP3   OH260240   4.200   2.366   0.863  0.5554 -0.5456  0.3796
12942TIP3    H160241   4.273   2.400   0.914 -0.5238 -1.8763  3.0110
12942TIP3    H260242   4.122   2.404   0.904 -0.3722 -1.7702 -0.1661
12943TIP3   OH260243   0.901   0.041   5.571  0.0041 -0.1464 -0.1994
12943TIP3    H160244   0.954  -0.003   5.505 -0.6916 -2.5634  0.7410
12943TIP3    H260245   0.815   0.001   5.563 -1.2721  2.4458 -0.5073
12944TIP3   OH260246   5.926   6.311  12.408 -0.4609  0.4694 -0.1069
12944TIP3    H160247   5.857   6.258  12.367 -1.1578  1.4161 -0.1882
12944TIP3    H260248   6.006   6.260  12.395 -0.6787  0.6236 -2.5154
12945TIP3   OH260249   1.619   2.066  12.155  0.0265 -0.7691  0.2094
12945TIP3    H160250   1.529   2.077  12.124  0.2301  2.9034  0.4804
12945TIP3    H260251   1.609   2.033  12.245 -1.0337 -0.7956  0.0983
12946TIP3   OH260252   0.622   4.259   5.903  0.3386  0.2656 -0.0787
12946TIP3    H160253   0.542   4.251   5.851 -0.4230 -1.7634  1.2838
12946TIP3    H260254   0.606   4.333   5.961  0.6982  1.7527 -1.7762
12947TIP3   OH260255   0.643   1.617   1.160  0.9487  1.4056  0.6696
12947TIP3    H160256   0.575   1.625   1.227  1.7565 -0.0754  1.7341
12947TIP3    H260257   0.646   1.523   1.141 -0.4160  1.9135 -2.7642
12948TIP3   OH260258   3.268   4.133   3.169 -0.3054 -0.3739 -0.2777
12948TIP3    H160259   3.298   4.042   3.168  2.1872  0.3734 -0.5499
12948TIP3    H260260   3.254   4.155   3.077 -1.0947 -0.5078 -0.1991
12949TIP3   OH260261   6.618   0.611  11.679  0.6268 -0.1934  0.8081
12949TIP3    H160262   6.612   0.673  11.751  0.6020 -1.1082  1.6183
12949TIP3    H260263   6.598   0.526  11.719  0.8355 -0.7471 -0.2275
12950TIP3   OH260264   4.436   1.892  13.302 -0.2668  0.4035  1.0056
12950TIP3    H160265   4.507   1.898  13.238 -0.8031  1.1964  0.4714
12950TIP3    H260266   4.463   1.822  13.361 -0.7106 -1.7964 -1.2587
12951TIP3   OH260267   6.290   4.424  12.190  0.0757  0.2344  1.1952
12951TIP3    H160268   6.231   4.352  12.211 -1.2742  1.2298  0.9764
12951TIP3    H260269   6.234   4.502  12.192  1.0423  1.0306 -0.5515
12952TIP3   OH260270   5.292   5.213  15.168 -0.0441 -0.2732  0.0386
12952TIP3    H160271   5.237   5.141  15.137 -1.1385  0.5687 -0.0902
12952TIP3    H260272   5.243   5.249  15.242  0.0083  0.8873 -0.4675
12953TIP3   OH260273   3.396   4.527   0.052 -0.1949 -0.6402 -0.0885
12953TIP3    H160274   3.360   4.560   0.135  1.1328  1.0220 -0.1069
12953TIP3    H260275   3.321   4.517  -0.006 -0.8657  0.6143  0.5401
12954TIP3   OH260276   0.760   5.795  14.175  0.5662  0.0874 -0.5820
12954TIP3    H160277   0.799   5.756  14.097  1.5592  1.7718 -0.9822
12954TIP3    H260278   0.760   5.889  14.157 -0.3216  0.4099  0.9478
12955TIP3   OH260279   1.875   6.198   3.151  0.7458  0.2880  0.4085
12955TIP3    H160280   1.950   6.141   3.134  0.9964  0.7853 -0.2156
12955TIP3    H260281   1.913   6.286   3.153  0.1211  0.5889 -0.3732
12956TIP3   OH260282   2.239   2.076  14.719  0.0061  0.0816  0.0243
12956TIP3    H160283   2.206   2.022  14.648 -0.2842 -1.4309  1.2586
12956TIP3    H260284   2.311   2.126  14.679  1.2386 -2.2459 -0.8755
12957TIP3   OH260285   4.573   2.986  16.042  0.0785  0.2561  0.3323
12957TIP3    H160286   4.603   2.904  16.004 -0.4581  0.2412 -0.0677
12957TIP3    H260287   4.496   2.962  16.094 -0.0542  0.4992  0.2504
12958TIP3   OH260288   5.677   3.993  14.674  0.3416  0.7272 -1.0194
12958TIP3    H160289   5.752   4.052  14.683  1.1982 -0.3143 -1.2345
12958TIP3    H260290   5.618   4.040  14.615  0.7838  1.5806 -0.8121
12959TIP3   OH260291   3.383   2.163  15.180 -0.3402  0.0727 -0.5005
12959TIP3    H160292   3.468   2.207  15.172  0.3905 -1.2529 -0.3778
12959TIP3    H260293   3.362   2.135  15.091 -0.2876 -0.2342 -0.4178
12960TIP3   OH260294   0.891   0.325  12.698  0.7510 -0.3258  0.4132
12960TIP3    H160295   0.978   0.289  12.715  0.9603 -0.7544 -1.3310
12960TIP3    H260296   0.835   0.248  12.692  0.2330 -0.0494  1.5333
12961TIP3   OH260297   5.416   3.067   2.074 -0.7600  0.3017  0.2006
12961TIP3    H160298   5.460   3.101   1.996  0.3655  0.9642  1.1048
12961TIP3    H260299   5.475   2.999   2.106 -0.8203  0.5911  0.9299
12962TIP3   OH260300   2.805   4.202   6.009 -0.1929 -0.0377 -0.5336
12962TIP3    H160301   2.884   4.168   6.052  0.0738  0.3919 -0.6767
12962TIP3    H260302   2.797   4.291   6.041 -2.1794 -0.9149  1.6254
12963TIP3   OH260303   6.421   1.668  13.273 -0.3734 -0.6194  0.0254
12963TIP3    H160304   6.396   1.636  13.360 -0.6305 -1.9255 -0.5155
12963TIP3    H260305   6.487   1.735  13.291  0.1517 -1.4123  1.2024
12964TIP3   OH260306   3.894   3.051   2.403 -0.1106  0.2454  0.6077
12964TIP3    H160307   3.850   2.970   2.426 -0.6168  0.5879  0.8466
12964TIP3    H260308   3.960   3.025   2.338 -1.7607 -0.0389 -1.0579
12965TIP3   OH260309   4.522   4.710   5.410 -0.5801 -0.1830  0.2128
12965TIP3    H160310   4.584   4.707   5.483  0.3367 -0.2535 -0.5486
12965TIP3    H260311   4.447   4.660   5.441 -1.0799  1.4781  1.8840
12966TIP3   OH260312   2.965   4.530  16.753  0.8050  0.1033  0.3265
12966TIP3    H160313   2.982   4.618  16.719 -1.7333  0.3201 -0.6248
12966TIP3    H260314   2.972   4.474  16.676  0.4106 -0.2084  0.5138
12967TIP3   OH260315   1.723   6.715  12.396  0.5790  0.6428  0.9490
12967TIP3    H160316   1.796   6.659  12.422  0.0323  0.2852  1.7730
12967TIP3    H260317   1.747   6.802  12.427  1.5103  0.9266 -0.4885
12968TIP3   OH260318   2.462   5.676  14.492  0.4356 -0.1080 -0.0973
12968TIP3    H160319   2.428   5.671  14.581  0.4919 -0.8343 -0.1119
12968TIP3    H260320   2.389   5.709  14.440  1.3470  3.6689  0.7191
12969TIP3   OH260321   0.229   2.150  17.152  0.3761 -0.0416 -0.3664
12969TIP3    H160322   0.142   2.150  17.111 -0.5081  0.0672  1.4163
12969TIP3    H260323   0.270   2.231  17.121 -0.9684  0.9508  0.3409
12970TIP3   OH260324   6.115   0.829   0.678  0.2245  0.1449  0.3464
12970TIP3    H160325   6.115   0.751   0.734  1.9277  0.4610  0.8464
12970TIP3    H260326   6.049   0.886   0.717  0.9161  0.0811  1.6695
12971TIP3   OH260327   6.182   4.792  14.998 -0.5310  0.5669  0.6821
12971TIP3    H160328   6.218   4.769  14.912 -1.5501  0.5285  0.2505
12971TIP3    H260329   6.146   4.879  14.987  0.8796  1.3089  1.5720
12972TIP3   OH260330   4.521   5.592   1.699  0.4308  0.5891  0.2912
12972TIP3    H160331   4.444   5.538   1.681 -1.6717  3.4164  0.1288
12972TIP3    H260332   4.586   5.564   1.634 -0.9235 -1.0066 -0.4460
12973TIP3   OH260333   0.555   1.501   0.076  0.2649 -0.6230 -0.3299
12973TIP3    H160334   0.517   1.546   0.000  1.4858  0.9699 -0.0629
12973TIP3    H260335   0.480   1.470   0.126 -0.5843 -0.6071 -1.5553
12974TIP3   OH260336   1.344   1.099  13.214  0.2059 -0.2787 -0.3977
12974TIP3    H160337   1.252   1.122  13.228 -0.0987 -0.4087 -2.0078
12974TIP3    H260338   1.390   1.137  13.289 -0.6501  3.2647 -1.4872
12975TIP3   OH260339   6.258   5.144  14.211 -0.4073  0.2850 -0.3928
12975TIP3    H160340   6.316   5.146  14.287 -2.6167  1.0827  1.3918
12975TIP3    H260341   6.238   5.236  14.193  0.5407  0.1533 -2.3786
12976TIP3   OH260342   1.318   5.866   1.401 -0.2849  0.5184  0.3901
12976TIP3    H160343   1.331   5.947   1.450 -1.0884  0.8270  0.1063
12976TIP3    H260344   1.253   5.817   1.451 -0.0842  0.2093  0.3590
12977TIP3   OH260345   2.818   0.607  14.916 -0.1978 -0.6308 -0.0600
12977TIP3    H160346   2.759   0.661  14.864 -0.5492 -0.1179  0.8495
12977TIP3    H260347   2.802   0.517  14.886 -0.3207 -0.3393 -0.8906
12978TIP3   OH260348   0.997   4.759   0.077  0.4276 -0.1586  0.2844
12978TIP3    H160349   1.029   4.772   0.166  1.2623 -0.7551  0.0835
12978TIP3    H260350   1.010   4.666   0.059  0.6951  0.0363 -0.6132
12979TIP3   OH260351   2.229   1.321  12.487  0.1465  0.0592  0.1186
12979TIP3    H160352   2.190   1.321  12.574 -0.8733 -2.5978 -0.2546
12979TIP3    H260353   2.167   1.370  12.433 -1.1445 -1.3795  0.2048
12980TIP3   OH260354   2.823   0.598   2.926 -0.2987  0.6197 -0.0172
12980TIP3    H160355   2.876   0.522   2.947  0.0345  0.2980 -1.8587
12980TIP3    H260356   2.843   0.661   2.995  0.2726 -0.5385  0.9059
12981TIP3   OH260357   1.261   3.541   0.851  0.0265  0.4067  0.0347
12981TIP3    H160358   1.355   3.540   0.873 -0.0606  1.2321  0.5017
12981TIP3    H260359   1.251   3.618   0.794 -1.0009  2.7941  3.1583
12982TIP3   OH260360   4.952   3.940  14.719 -0.7661  0.0973  0.5175
12982TIP3    H160361   4.987   3.935  14.808  0.7768  0.7059 -0.0309
12982TIP3    H260362   4.967   3.853  14.682 -0.3497  0.1840  0.4787
12983TIP3   OH260363   5.301   3.778  10.744  0.4860  0.2375  0.1166
12983TIP3    H160364   5.303   3.712  10.676  2.7940  0.3526 -0.0294
12983TIP3    H260365   5.321   3.860  10.699  1.7811  0.3560  0.8381
12984TIP3   OH260366   5.672   6.062  13.614 -0.4701  0.4846 -0.2914
12984TIP3    H160367   5.762   6.030  13.615 -0.5685  0.1228 -1.3302
12984TIP3    H260368   5.621   5.993  13.655 -0.4401  0.0701 -0.9281
12985TIP3   OH260369   6.223   6.498  12.827  0.4828  0.6116  0.1250
12985TIP3    H160370   6.155   6.493  12.894 -0.1860 -0.2822 -0.5833
12985TIP3    H260371   6.305   6.505  12.876  0.0118 -0.0527  1.0384
12986TIP3   OH260372   0.827   6.264  16.738  0.8856 -0.1539 -0.0633
12986TIP3    H160373   0.870   6.211  16.672 -1.4536 -0.8337 -1.1300
12986TIP3    H260374   0.743   6.289  16.699 -0.8341 -1.0098  2.7718
12987TIP3   OH260375   2.083   4.293  11.568  0.0990 -0.0993 -0.6334
12987TIP3    H160376   2.173   4.306  11.539  0.0595 -1.4520 -1.4588
12987TIP3    H260377   2.037   4.260  11.491 -1.4511  1.8142 -0.6103
12988TIP3   OH260378   0.839   0.777   3.866 -0.5667  0.3862  0.2387
12988TIP3    H160379   0.809   0.855   3.819 -0.0654  0.1474 -0.4982
12988TIP3    H260380   0.911   0.808   3.921 -1.8097  0.8667  1.6505
12989TIP3   OH260381   0.858   2.838  17.091 -0.1634  0.2432  0.1116
12989TIP3    H160382   0.778   2.851  17.141  0.2706 -0.3935  0.9936
12989TIP3    H260383   0.899   2.762  17.131 -0.4939 -1.2146 -2.1096
12990TIP3   OH260384   3.681   2.960  10.934  0.8056 -0.6516  0.4071
12990TIP3    H160385   3.630   2.923  11.006  1.5591  0.1784  1.4108
12990TIP3    H260386   3.615   2.991  10.871  0.1482 -1.9409  0.4396
12991TIP3   OH260387   3.159   0.451  13.212  0.2905 -0.7444  0.2240
12991TIP3    H160388   3.083   0.393  13.221 -0.8315  0.7237  0.7622
12991TIP3    H260389   3.193   0.432  13.124 -1.4858 -0.5873 -0.5581
12992TIP3   OH260390   4.938   5.159  10.934 -0.2852  0.2575 -0.3449
12992TIP3    H160391   4.931   5.137  10.842 -1.3857 -0.4595 -0.1098
12992TIP3    H260392   4.958   5.253  10.935  3.2022 -0.3287 -1.3454
12993TIP3   OH260393   5.838   3.267  13.427 -0.4142 -0.4836 -0.6725
12993TIP3    H160394   5.844   3.358  13.457 -1.0471 -0.6362 -0.0390
12993TIP3    H260395   5.834   3.273  13.332  1.0585  0.0507 -0.7208
12994TIP3   OH260396   2.073   0.213  16.844 -0.1418 -0.0836 -0.0622
12994TIP3    H160397   2.159   0.256  16.841 -0.1861  0.0259  0.1902
12994TIP3    H260398   2.089   0.132  16.892  0.4512 -1.5520 -2.5348
12995TIP3   OH260399   3.023   4.649   3.798  0.0189  0.3577 -0.4075
12995TIP3    H160400   3.012   4.744   3.797 -1.9510  0.1683 -0.5576
12995TIP3    H260401   2.959   4.618   3.862 -1.1929 -1.0361 -2.1817
12996TIP3   OH260402   3.157   1.883   1.760 -0.1555  0.0168  0.2999
12996TIP3    H160403   3.177   1.976   1.758  2.7462 -0.3379  3.2874
12996TIP3    H260404   3.068   1.878   1.795  0.1046  1.7119  1.3184
12997TIP3   OH260405   4.121   1.632   6.597  0.5163  0.0292  0.2345
12997TIP3    H160406   4.080   1.559   6.644  1.3309  0.3502  1.5088
12997TIP3    H260407   4.050   1.670   6.545 -0.2262 -0.8566  0.5639
12998TIP3   OH260408   1.419   5.677   1.882  0.4922 -0.5655 -0.1545
12998TIP3    H160409   1.328   5.703   1.896  0.7163  1.3573 -1.8710
12998TIP3    H260410   1.470   5.739   1.933  0.9041 -0.1262 -1.0769
12999TIP3   OH260411   1.567   4.227   3.853 -0.1749  0.2096  0.5900
12999TIP3    H160412   1.621   4.304   3.838 -2.0812  1.7057  0.9688
12999TIP3    H260413   1.592   4.197   3.941  0.2414  0.7008  0.6439
13000TIP3   OH260414   3.857   0.243   3.148 -0.0208  0.4018  0.8062
13000TIP3    H160415   3.830   0.335   3.143 -0.5446  0.3025  1.5828
13000TIP3    H260416   3.928   0.235   3.085 -1.2242  0.8894 -0.6620
13001TIP3   OH260417   0.635   1.471  14.935  0.0899 -0.3986 -0.0631
13001TIP3    H160418   0.558   1.512  14.896  0.6778  0.2982 -0.5365
13001TIP3    H260419   0.639   1.506  15.024 -0.7840 -1.3392  0.3579
13002TIP3   OH260420   6.461   5.952  16.589 -0.1502 -0.3284  0.5184
13002TIP3    H160421   6.486   5.898  16.664  0.0717 -0.3801  0.4094
13002TIP3    H260422   6.544   5.983  16.553 -0.2595 -0.2330  0.3450
13003TIP3   OH260423   4.881   2.880   2.391 -0.1672  0.7609 -0.1369
13003TIP3    H160424   4.895   2.804   2.448 -0.5337 -0.3444 -1.4690
13003TIP3    H260425   4.942   2.946   2.423 -1.8030  0.9922  2.8965
13004TIP3   OH260426   3.969   2.645  10.748  0.2240  0.8409  0.0278
13004TIP3    H160427   3.892   2.690  10.714 -1.4279 -0.7732  1.4068
13004TIP3    H260428   3.972   2.563  10.699  0.2807  0.3318  0.8667
13005TIP3   OH260429   0.333   4.143  12.015  0.0875 -0.3639  0.1180
13005TIP3    H160430   0.289   4.228  12.027  0.1373 -0.2715 -0.3571
13005TIP3    H260431   0.369   4.123  12.102  0.3416  0.2476  0.1584
13006TIP3   OH260432   1.519   3.375   5.724 -0.0023  0.2405 -0.2733
13006TIP3    H160433   1.428   3.355   5.703 -0.4893 -0.4034  2.1464
13006TIP3    H260434   1.539   3.320   5.800  1.7241  1.9351  0.5945
13007TIP3   OH260435   5.087   5.250   2.857  0.1136  0.1924 -0.2968
13007TIP3    H160436   5.006   5.301   2.864 -0.8638 -1.2569 -0.6180
13007TIP3    H260437   5.069   5.170   2.906  1.2173 -0.3210 -0.6978
13008TIP3   OH260438   3.736   0.221  14.838  0.1105  0.0565 -0.2480
13008TIP3    H160439   3.767   0.132  14.856  1.6382 -0.1258 -3.1525
13008TIP3    H260440   3.643   0.211  14.818  0.5328 -1.1862 -1.8317
13009TIP3   OH260441   6.783   4.509  12.920  0.2104  0.0935  0.0463
13009TIP3    H160442   6.699   4.522  12.965 -0.7728 -2.0821 -1.0347
13009TIP3    H260443   6.796   4.591  12.872 -0.7090  0.9135  1.1237
13010TIP3   OH260444   2.794   2.151  16.762 -0.2318 -0.3002 -0.1129
13010TIP3    H160445   2.784   2.173  16.854 -0.1451 -1.0820  0.0894
13010TIP3    H260446   2.730   2.207  16.717  1.4566  1.9691  0.1280
13011TIP3   OH260447   4.991   3.753   0.043 -0.4096 -0.7946  0.3063
13011TIP3    H160448   4.938   3.755   0.123 -1.2112  0.1818 -0.2306
13011TIP3    H260449   5.068   3.805   0.065 -1.0718  0.2898  0.1708
13012TIP3   OH260450   1.046   3.004  12.616  0.3331  0.4163  0.1288
13012TIP3    H160451   1.110   3.018  12.547 -0.3034  1.7395 -0.2220
13012TIP3    H260452   1.030   2.909  12.615  1.0274  0.2945 -0.8977
13013TIP3   OH260453   5.865   4.993  17.052  0.3090 -0.1566  0.2691
13013TIP3    H160454   5.923   4.933  17.099  0.6758  0.6809  0.9342
13013TIP3    H260455   5.840   4.946  16.973  0.7012 -1.1170  0.6967
13014TIP3   OH260456   1.988   5.507   1.101 -0.3148  0.1139 -0.0492
13014TIP3    H160457   2.037   5.586   1.125 -0.2713  0.2283 -0.5008
13014TIP3    H260458   1.908   5.513   1.152 -0.8291  1.0446 -0.9211
13015TIP3   OH260459   0.177   1.303   6.157  0.2683  0.1194  0.3277
13015TIP3    H160460   0.112   1.372   6.148 -0.7746 -0.6980  1.2452
13015TIP3    H260461   0.154   1.239   6.090  0.6514  0.2119  0.1024
13016TIP3   OH260462   2.438   5.605  16.229 -0.3354  0.2189 -0.1385
13016TIP3    H160463   2.506   5.588  16.294 -1.1669 -0.0903  0.6704
13016TIP3    H260464   2.461   5.690  16.192 -0.5704  1.0354  1.5174
13017TIP3   OH260465   5.625   2.514  13.637 -0.2213 -0.1819 -0.4283
13017TIP3    H160466   5.693   2.581  13.642 -1.0093  0.6569 -0.6139
13017TIP3    H260467   5.554   2.547  13.693 -0.9899 -0.4044 -1.2346
13018TIP3   OH260468   2.795   2.884   4.050 -0.2743 -0.2325 -0.1252
13018TIP3    H160469   2.707   2.906   4.018 -0.5267 -0.4082  0.4405
13018TIP3    H260470   2.805   2.791   4.030  0.1105 -0.0308 -0.9292
13019TIP3   OH260471   2.016   5.795   3.665  0.1016 -0.0905 -0.1579
13019TIP3    H160472   1.942   5.854   3.674  1.0451  1.2711 -1.0211
13019TIP3    H260473   1.982   5.709   3.691 -1.6898  0.5469 -0.3184
13020TIP3   OH260474   2.806   1.603  13.113  0.4866 -0.0240 -0.4419
13020TIP3    H160475   2.861   1.664  13.063 -0.5677  0.5404 -0.9436
13020TIP3    H260476   2.775   1.540  13.048 -1.1136  0.8764 -0.6111
13021TIP3   OH260477   0.943   2.769  11.869  0.2619 -0.6540  0.5070
13021TIP3    H160478   1.036   2.792  11.863  0.4888 -1.1296  1.7208
13021TIP3    H260479   0.896   2.848  11.842  1.0081 -0.7271 -1.0872
13022TIP3   OH260480   1.739   0.049  15.257 -0.0196 -0.0074 -0.8528
13022TIP3    H160481   1.812  -0.012  15.269 -1.2548 -1.4721 -0.4086
13022TIP3    H260482   1.697   0.053  15.343 -0.8796  0.2250 -1.2690
13023TIP3   OH260483   0.167   0.237  16.659  0.3337 -0.6386  0.2492
13023TIP3    H160484   0.095   0.227  16.597 -0.6410 -0.3672  1.2925
13023TIP3    H260485   0.246   0.238  16.605 -0.4423 -0.9434 -0.9250
13024TIP3   OH260486   0.898   1.649  12.001 -0.6946 -0.3102 -0.0688
13024TIP3    H160487   0.972   1.700  11.969 -1.0390 -0.4507 -1.1101
13024TIP3    H260488   0.821   1.691  11.962 -1.0401 -1.1258 -0.2756
13025TIP3   OH260489   2.326   1.870   3.826  0.0316  0.0628 -0.4620
13025TIP3    H160490   2.352   1.832   3.742 -2.2580 -2.2258 -0.2627
13025TIP3    H260491   2.246   1.920   3.805 -0.5758 -0.5559  0.3099
13026TIP3   OH260492   3.415   1.870  11.830  0.3927  0.3495  0.0983
13026TIP3    H160493   3.345   1.805  11.838  1.0383 -0.3471  0.2340
13026TIP3    H260494   3.402   1.908  11.743 -3.0365  3.6918  1.8085
13027TIP3   OH260495   4.012   2.678  13.679  0.0815  0.4386  0.3717
13027TIP3    H160496   3.949   2.606  13.685  2.3759 -1.7852 -0.4293
13027TIP3    H260497   3.988   2.725  13.600 -0.0852 -0.9354 -0.4265
13028TIP3   OH260498   4.886   3.105  14.235  0.9029  0.0828 -0.2677
13028TIP3    H160499   4.822   3.094  14.305  1.2513 -0.5851 -0.0461
13028TIP3    H260500   4.957   3.156  14.275  0.6761  0.5254 -0.4161
13029TIP3   OH260501   3.949   3.501  15.576  0.3303 -0.2686  0.5569
13029TIP3    H160502   3.899   3.572  15.616  1.0581  0.5509  0.0524
13029TIP3    H260503   3.886   3.454  15.523  0.2318  1.3058 -0.8142
13030TIP3   OH260504   1.911   0.199   4.665  0.4356  0.3278  0.3693
13030TIP3    H160505   1.959   0.257   4.607  0.1091  1.3080  1.0566
13030TIP3    H260506   1.967   0.122   4.675  1.4408  1.0554  0.4352
13031TIP3   OH260507   3.823   5.186   2.842 -0.2434  0.2988  0.4891
13031TIP3    H160508   3.890   5.252   2.858  0.2383 -0.0920  0.1235
13031TIP3    H260509   3.747   5.236   2.813  0.3588  0.6573 -0.5374
13032TIP3   OH260510   1.038   3.501  16.335 -0.0924  0.6588 -0.3609
13032TIP3    H160511   1.118   3.457  16.363  1.3796  1.8780 -2.4002
13032TIP3    H260512   1.019   3.563  16.405  1.4054  1.1193 -0.3239
13033TIP3   OH260513   6.709   4.289  12.125  0.3632  0.0162 -0.2077
13033TIP3    H160514   6.642   4.355  12.145  1.6777  0.2673  4.5812
13033TIP3    H260515   6.786   4.341  12.101 -0.1679 -0.1506 -2.4628
13034TIP3   OH260516   3.457   0.758  17.192 -0.0713  0.6811  0.2472
13034TIP3    H160517   3.392   0.692  17.169  2.4408 -1.0097 -2.7097
13034TIP3    H260518   3.433   0.835  17.140  0.3252 -0.0243 -1.0388
13035TIP3   OH260519   4.651   2.080   4.020 -0.1278 -0.3577 -0.2945
13035TIP3    H160520   4.665   2.119   4.106 -3.7405 -2.1983  1.3627
13035TIP3    H260521   4.621   2.153   3.966  1.1349  0.6237  0.2663
13036TIP3   OH260522   5.642   6.227  16.277  0.1097  0.0024  0.4990
13036TIP3    H160523   5.635   6.146  16.328 -2.9655 -0.7817 -0.9555
13036TIP3    H260524   5.709   6.208  16.211 -1.0972 -1.7040 -0.3077
13037TIP3   OH260525   5.596   1.733   6.126 -0.3609  0.0957  0.0774
13037TIP3    H160526   5.546   1.768   6.200  0.4083  0.5290  0.4062
13037TIP3    H260527   5.582   1.638   6.130 -0.4471  0.1309  0.6881
13038TIP3   OH260528   3.741   3.592   4.215 -0.3722 -0.0084  0.4478
13038TIP3    H160529   3.679   3.625   4.149  0.3458  0.6508  0.0841
13038TIP3    H260530   3.766   3.505   4.183 -1.4936 -0.5107  0.8726
13039TIP3   OH260531   3.785   3.484  12.652  0.5336  0.0005 -0.1147
13039TIP3    H160532   3.750   3.437  12.576 -1.3890 -0.1513  0.7931
13039TIP3    H260533   3.860   3.432  12.681 -1.0775 -2.1790  0.4239
13040TIP3   OH260534   4.586   4.462  14.888 -0.8010  0.7097 -0.1578
13040TIP3    H160535   4.670   4.494  14.923 -1.6255  2.4113  0.3767
13040TIP3    H260536   4.534   4.443  14.966 -2.0348  2.8532 -0.3698
13041TIP3   OH260537   2.614   2.049  16.444 -0.2374 -0.0412  0.5747
13041TIP3    H160538   2.677   1.979  16.426 -0.2578 -0.0674  0.6047
13041TIP3    H260539   2.657   2.103  16.511  0.3495  0.7353 -0.3920
13042TIP3   OH260540   2.987   3.243  13.681  0.8888 -0.2507 -0.3291
13042TIP3    H160541   2.982   3.326  13.634 -0.2839 -1.2061 -2.0440
13042TIP3    H260542   3.028   3.183  13.619  0.1671 -1.3414  0.1989
13043TIP3   OH260543   3.179   1.554   1.358  0.2353 -0.0891  0.2002
13043TIP3    H160544   3.136   1.472   1.333  1.1923 -0.7316  0.6226
13043TIP3    H260545   3.260   1.527   1.400 -0.0446  1.0380  1.5471
13044TIP3   OH260546   1.678   1.068   5.075  0.2803 -0.3788 -0.0958
13044TIP3    H160547   1.609   1.004   5.094 -0.8458  0.6872 -0.4223
13044TIP3    H260548   1.739   1.061   5.149 -0.4856 -0.9456  0.5007
13045TIP3   OH260549   0.209   3.502  11.717  0.1073 -0.0781  0.2430
13045TIP3    H160550   0.296   3.521  11.683 -0.5228  0.6249 -1.0297
13045TIP3    H260551   0.187   3.577  11.773 -0.6091  0.9223 -1.3151
13046TIP3   OH260552   4.530   4.109   3.161  0.4249 -0.0465 -0.0102
13046TIP3    H160553   4.589   4.184   3.164 -0.2249  0.4656  0.2315
13046TIP3    H260554   4.457   4.138   3.107  0.7912 -0.9829 -1.0582
13047TIP3   OH260555   3.414   6.558   3.937  0.2488 -0.7822  0.5414
13047TIP3    H160556   3.488   6.609   3.905  0.4671 -0.8351  0.9641
13047TIP3    H260557   3.337   6.603   3.900  0.4292 -0.0553  1.0190
13048TIP3   OH260558   3.799   2.348  12.131  0.1961 -0.2534 -0.6700
13048TIP3    H160559   3.875   2.406  12.142  0.7161 -0.7664 -1.4100
13048TIP3    H260560   3.769   2.364  12.042  1.1100 -1.9710 -1.3422
13049TIP3   OH260561   3.079   6.166  14.782 -0.1590 -0.3432 -0.4463
13049TIP3    H160562   3.004   6.144  14.837 -0.7340  1.2347 -0.5342
13049TIP3    H260563   3.095   6.259  14.801  2.3171 -0.8337  0.2071
13050TIP3   OH260564   0.993   4.041  11.540  0.0651 -0.5906 -0.0357
13050TIP3    H160565   1.048   4.057  11.463 -2.7038  0.2389 -1.9717
13050TIP3    H260566   1.026   4.102  11.606  0.1470  1.3890 -1.8382
13051TIP3   OH260567   3.222   4.483   2.398 -1.0350 -0.1073 -0.0631
13051TIP3    H160568   3.184   4.515   2.480 -0.8871  0.5887 -0.2613
13051TIP3    H260569   3.193   4.545   2.332  0.1756  0.2674 -0.2727
13052TIP3   OH260570   4.470   6.585  13.909  0.3695 -0.3010 -0.5775
13052TIP3    H160571   4.513   6.638  13.976 -1.6762 -2.5052  2.8305
13052TIP3    H260572   4.399   6.640  13.877  1.2087  0.7121 -0.7513
13053TIP3   OH260573   3.249   0.145  14.970  0.4930 -0.0738 -0.1794
13053TIP3    H160574   3.327   0.195  14.944  0.8901 -0.4377  0.2992
13053TIP3    H260575   3.187   0.212  14.999  1.1680  0.1361  0.8349
13054TIP3   OH260576   3.866   4.364   1.459 -0.5567  0.5260 -0.5689
13054TIP3    H160577   3.877   4.299   1.529 -0.5294  1.3738  0.2448
13054TIP3    H260578   3.841   4.313   1.382  0.2474 -0.5271 -0.1636
13055TIP3   OH260579   0.865   3.235  12.634 -0.6342 -0.2134  0.3483
13055TIP3    H160580   0.870   3.278  12.719 -0.1536  0.0378  0.1970
13055TIP3    H260581   0.910   3.151  12.647 -0.8299 -0.3081  0.4208
13056TIP3   OH260582   1.986   2.689   1.493 -0.3467  0.7109  0.0973
13056TIP3    H160583   2.081   2.699   1.495 -0.0354 -1.3865 -1.1915
13056TIP3    H260584   1.952   2.778   1.496  1.5438  1.4749  2.9149
13057TIP3   OH260585   2.491   4.720  11.862  0.1475 -0.5231 -0.4871
13057TIP3    H160586   2.422   4.654  11.861 -0.3969 -0.1062  2.2917
13057TIP3    H260587   2.452   4.796  11.818 -0.0495 -1.2662 -1.6263
13058TIP3   OH260588   6.722   0.615   2.025 -0.2375 -0.1052  0.4062
13058TIP3    H160589   6.651   0.552   2.013  0.6811 -1.0754 -0.1330
13058TIP3    H260590   6.718   0.671   1.948 -0.3286 -0.2664  0.2926
13059TIP3   OH260591   0.505   6.093   0.563 -0.0676 -0.1911  0.7448
13059TIP3    H160592   0.419   6.128   0.542  0.1463  0.1247  0.3846
13059TIP3    H260593   0.544   6.071   0.478  0.5373  0.4605  0.8399
13060TIP3   OH260594   4.837   4.363   4.537  0.6896 -0.2037 -0.0285
13060TIP3    H160595   4.808   4.305   4.467  1.3259  0.3412 -0.7581
13060TIP3    H260596   4.801   4.448   4.514  1.0830  0.0250  0.1915
13061TIP3   OH260597   3.078   1.619   0.097 -0.2352 -0.5388 -0.0395
13061TIP3    H160598   3.136   1.623   0.021 -0.0781  2.6934  0.1280
13061TIP3    H260599   3.132   1.651   0.170 -1.7563  1.1522  0.4126
13062TIP3   OH260600   2.240   6.680  14.471 -0.1924 -0.0031  0.2646
13062TIP3    H160601   2.238   6.650  14.380 -2.3004 -1.3505  0.6728
13062TIP3    H260602   2.333   6.690  14.491  0.4594 -2.2967 -1.2435
13063TIP3   OH260603   6.032   2.969  11.707  0.5560  0.1814 -0.0139
13063TIP3    H160604   5.976   3.002  11.637 -1.1634  0.6281  1.4872
13063TIP3    H260605   5.975   2.914  11.760  1.1864  1.4770  2.1676
13064TIP3   OH260606   3.020   5.938   2.032 -0.3800  0.3188  0.1142
13064TIP3    H160607   2.961   5.864   2.017 -0.2290  0.2336 -0.0712
13064TIP3    H260608   3.108   5.900   2.025 -0.3034  0.3446  0.8875
13065TIP3   OH260609   0.533   5.542   1.818  0.0561 -0.2466  0.3736
13065TIP3    H160610   0.438   5.540   1.827 -0.1438  0.2647 -1.2432
13065TIP3    H260611   0.562   5.606   1.884 -0.9868  1.4250 -0.7151
13066TIP3   OH260612   1.623   3.855   5.179 -0.3357  0.9675  0.5779
13066TIP3    H160613   1.636   3.829   5.270  2.0070  0.3623  0.1533
13066TIP3    H260614   1.681   3.931   5.168 -1.1032  1.4526 -0.2478
13067TIP3   OH260615   5.049   3.648   4.084 -0.4781 -0.5291  0.7001
13067TIP3    H160616   4.964   3.611   4.109  0.1050 -0.6085  2.6994
13067TIP3    H260617   5.105   3.633   4.160  0.8470  1.0839  0.0959
13068TIP3   OH260618   5.212   6.481   5.078  0.4207  0.3583 -0.3011
13068TIP3    H160619   5.138   6.421   5.062 -0.3268  1.2021 -0.1090
13068TIP3    H260620   5.242   6.506   4.991  2.1540 -1.9346 -0.4476
13069TIP3   OH260621   3.298   2.162  16.835  0.0622 -0.2186  0.6000
13069TIP3    H160622   3.286   2.106  16.912 -0.3622  0.2540  0.8862
13069TIP3    H260623   3.209   2.181  16.804  0.2531 -1.0945 -0.5274
13070TIP3   OH260624   6.078   2.222   4.409 -0.1879  0.6843 -0.3268
13070TIP3    H160625   5.993   2.265   4.409 -0.9158 -0.6939  0.0944
13070TIP3    H260626   6.115   2.243   4.323  0.1561  3.3269  0.3899
13071TIP3   OH260627   1.685   6.739   3.643  0.3113 -0.0054  0.4233
13071TIP3    H160628   1.608   6.688   3.616  0.1371  1.2911 -1.7826
13071TIP3    H260629   1.742   6.738   3.566  0.9527  1.8619  0.8295
13072TIP3   OH260630   5.958   4.177  13.084  0.7254  0.0124 -0.0022
13072TIP3    H160631   6.003   4.173  13.000 -0.6071 -0.3718 -0.7300
13072TIP3    H260632   5.905   4.257  13.080 -2.7290 -2.0990 -1.4189
13073TIP3   OH260633   5.845   2.198  11.675  0.3482 -0.2496  0.1802
13073TIP3    H160634   5.917   2.162  11.624 -0.7750 -0.5226 -1.2823
13073TIP3    H260635   5.887   2.237  11.751  2.2555  1.2024 -1.4834
13074TIP3   OH260636   3.700   3.691   1.407 -0.2776  0.2570  0.6060
13074TIP3    H160637   3.618   3.644   1.389 -0.3144  0.2197  0.8668
13074TIP3    H260638   3.754   3.674   1.330 -0.6747  0.6355  0.2428
13075TIP3   OH260639   6.685   2.209  11.852 -0.3289 -0.6116 -0.0161
13075TIP3    H160640   6.716   2.298  11.870  0.0668 -1.1218  2.0341
13075TIP3    H260641   6.739   2.180  11.778  0.4303  0.3864  0.1159
13076TIP3   OH260642   3.446   3.324   2.900 -0.5012 -0.2048 -0.0397
13076TIP3    H160643   3.476   3.245   2.855 -1.2873 -0.9380  0.6888
13076TIP3    H260644   3.524   3.378   2.908  0.0960 -0.9984 -0.3604
13077TIP3   OH260645   0.860   0.850   5.405  0.0275 -0.2243  0.4548
13077TIP3    H160646   0.912   0.797   5.466 -2.1828 -0.7882  1.9755
13077TIP3    H260647   0.850   0.935   5.449  1.9536  0.8984 -1.1172
13078TIP3   OH260648   1.860   0.012   0.568  0.4448 -0.2987  0.1592
13078TIP3    H160649   1.772  -0.022   0.551  0.7865  0.0024 -2.6156
13078TIP3    H260650   1.865   0.017   0.664 -2.1947 -1.2009  0.4377
13079TIP3   OH260651   5.044   4.354  13.378 -0.0980 -0.5631 -0.4906
13079TIP3    H160652   5.031   4.273  13.329 -0.3080 -0.1291 -1.1679
13079TIP3    H260653   4.967   4.361  13.434 -0.2344 -0.6656 -0.6657
13080TIP3   OH260654   2.812   1.552   1.555  0.0607 -0.6579  0.2416
13080TIP3    H160655   2.754   1.544   1.480  1.3719 -3.3331 -0.6012
13080TIP3    H260656   2.756   1.536   1.631 -0.8662 -0.0297 -0.2903
13081TIP3   OH260657   1.350   3.838  16.119  0.3173 -0.4419 -0.8163
13081TIP3    H160658   1.382   3.749  16.133 -1.0314 -1.1619 -2.0583
13081TIP3    H260659   1.297   3.857  16.197  0.2563 -0.8922 -0.7448
13082TIP3   OH260660   3.341   1.161   2.493 -0.0059 -0.6935 -0.1097
13082TIP3    H160661   3.427   1.193   2.522 -0.2355 -0.9570  0.9096
13082TIP3    H260662   3.317   1.095   2.558 -1.7500  0.5730  0.5830
13083TIP3   OH260663   0.689   3.146   1.637  0.0164 -0.3937 -0.8388
13083TIP3    H160664   0.624   3.102   1.582 -0.2492 -2.4880  0.9842
13083TIP3    H260665   0.638   3.198   1.698  0.0731 -0.9923 -0.2610
13084TIP3   OH260666   5.936   5.751  12.516 -0.1232 -0.5176 -0.0130
13084TIP3    H160667   5.987   5.713  12.588  0.6130 -2.9610 -1.7395
13084TIP3    H260668   5.849   5.713  12.526 -0.3923  0.1476  0.2830
13085TIP3   OH260669   6.127   0.166   2.597 -0.5217 -0.2579 -0.6104
13085TIP3    H160670   6.119   0.242   2.655  1.9980 -0.3984  0.0254
13085TIP3    H260671   6.064   0.103   2.632  0.2225  0.0284  1.4058
13086TIP3   OH260672   3.307   0.921  16.365  0.0588 -0.4065  0.3126
13086TIP3    H160673   3.252   0.843  16.365  0.6172 -0.8124  0.8587
13086TIP3    H260674   3.357   0.916  16.283  0.5363 -0.9466  0.6348
13087TIP3   OH260675   2.404   4.032  14.820  0.6031  0.1469  0.1562
13087TIP3    H160676   2.345   3.988  14.881  1.1001  0.2644  0.7353
13087TIP3    H260677   2.347   4.063  14.749  0.0576 -0.2372  0.4213
13088TIP3   OH260678   2.854   3.107   2.900 -0.0223  0.0177  0.0176
13088TIP3    H160679   2.821   3.158   2.974  2.0757  1.5014  0.0285
13088TIP3    H260680   2.824   3.018   2.918  1.6239 -0.0127  3.5375
13089TIP3   OH260681   4.428   4.903   0.941  0.1173  0.1021  0.3224
13089TIP3    H160682   4.371   4.906   0.864 -2.4558 -2.4658  1.9263
13089TIP3    H260683   4.416   4.988   0.982  0.4118  0.9773 -1.3064
13090TIP3   OH260684   5.133   1.484   0.770 -0.2269  0.3653  0.1619
13090TIP3    H160685   5.189   1.468   0.846 -0.9912  1.4170  0.9739
13090TIP3    H260686   5.065   1.417   0.775  1.1479 -1.2080 -1.0810
13091TIP3   OH260687   6.635   2.851  10.701  0.1894 -0.3322  0.2091
13091TIP3    H160688   6.609   2.834  10.791 -0.2008 -0.2795  0.1061
13091TIP3    H260689   6.718   2.803  10.690 -0.3245 -1.2482  0.2533
13092TIP3   OH260690   0.259   2.910  13.762  0.0525  0.1925  0.2999
13092TIP3    H160691   0.260   2.827  13.715  0.2901  0.7385 -0.6773
13092TIP3    H260692   0.285   2.888  13.851  1.1598 -0.6224 -0.2127
13093TIP3   OH260693   4.497   0.017   5.462  0.0624  0.3901  0.3697
13093TIP3    H160694   4.411  -0.021   5.478 -0.4801  0.8109 -1.2983
13093TIP3    H260695   4.520  -0.011   5.373  1.0308  1.3880  0.2681
13094TIP3   OH260696   3.491   1.232   6.081 -0.0477  0.6269 -0.5004
13094TIP3    H160697   3.427   1.161   6.075  0.7376 -0.5093  2.6277
13094TIP3    H260698   3.459   1.288   6.152  2.2258  0.1387  1.0186
13095TIP3   OH260699   0.624   4.398  14.221  0.6366  0.1903  0.0451
13095TIP3    H160700   0.628   4.493  14.216  1.2089  0.1679 -0.0002
13095TIP3    H260701   0.612   4.378  14.314 -0.3954  0.3271 -0.0446
13096TIP3   OH260702   2.022   0.594  10.971 -0.5429 -0.2532 -0.3113
13096TIP3    H160703   1.954   0.658  10.950 -0.9294 -0.1212  1.2505
13096TIP3    H260704   1.998   0.560  11.057  2.3065  1.1044  1.1550
13097TIP3   OH260705   3.926   3.962   0.737  0.1240 -0.2472  0.3882
13097TIP3    H160706   4.015   3.974   0.703  0.2114 -0.8265  0.3942
13097TIP3    H260707   3.926   3.873   0.773 -0.9384 -0.9169 -1.1459
13098TIP3   OH260708   4.218   2.070   4.179 -0.1293  0.3554 -0.5194
13098TIP3    H160709   4.297   2.016   4.176  1.3187  2.3356 -0.1624
13098TIP3    H260710   4.202   2.084   4.273 -0.8060  0.0928 -0.5944
13099TIP3   OH260711   0.726   1.597  13.080  0.3681  0.2788 -0.1133
13099TIP3    H160712   0.758   1.511  13.107  0.9023  0.7403  0.7625
13099TIP3    H260713   0.792   1.658  13.114 -0.0630  1.0408 -0.6333
13100TIP3   OH260714   1.630   2.621  11.320 -0.0100 -0.5195 -0.2356
13100TIP3    H160715   1.552   2.573  11.293 -0.5675 -0.3504  1.0447
13100TIP3    H260716   1.689   2.614  11.244 -1.6372  0.2247 -1.6376
13101TIP3   OH260717   4.820   3.583   2.228 -0.0336 -0.0874  0.4450
13101TIP3    H160718   4.886   3.653   2.225 -0.5828  0.4376  0.4046
13101TIP3    H260719   4.869   3.504   2.252  0.5422  0.3759  0.8037
13102TIP3   OH260720   5.282   3.409  12.013 -0.1503 -0.1655 -0.6224
13102TIP3    H160721   5.307   3.497  12.042 -0.2178 -0.6198  0.8713
13102TIP3    H260722   5.365   3.363  12.001 -0.0892  0.2517 -1.9899
13103TIP3   OH260723   4.970   5.778   1.270  0.4700 -0.0679 -0.3228
13103TIP3    H160724   4.928   5.754   1.353 -0.1873  0.6784 -0.4235
13103TIP3    H260725   4.912   5.743   1.203  0.1344  0.7276 -0.4626
13104TIP3   OH260726   4.761   5.459   3.244 -0.4368 -0.1391  0.7304
13104TIP3    H160727   4.727   5.410   3.169 -0.2281  0.5982  0.1396
13104TIP3    H260728   4.707   5.538   3.248  1.2484  1.1211 -0.3057
13105TIP3   OH260729   6.151   6.734  15.848  0.0181  0.2574  0.3341
13105TIP3    H160730   6.221   6.668  15.850  0.9954  1.1597 -1.6750
13105TIP3    H260731   6.174   6.795  15.918 -0.7601 -1.3050  2.0574
13106TIP3   OH260732   6.668   2.432   4.170 -0.0194  0.2222  0.1408
13106TIP3    H160733   6.661   2.344   4.207  0.0080  0.0773 -0.1955
13106TIP3    H260734   6.709   2.419   4.084  1.3600  0.7061  0.6833
13107TIP3   OH260735   4.534   0.133   5.990 -0.7281  0.3658 -0.0561
13107TIP3    H160736   4.440   0.152   5.998 -0.7732  0.6281 -1.0444
13107TIP3    H260737   4.556   0.088   6.072 -1.4668  1.3069  0.6946
13108TIP3   OH260738   4.383   6.479   2.911  0.0879 -0.9002 -0.1946
13108TIP3    H160739   4.365   6.555   2.856  0.9329  0.0024  0.7311
13108TIP3    H260740   4.477   6.481   2.925  0.1500 -2.2445 -0.3172
13109TIP3   OH260741   0.309   5.858   4.146 -0.1323  0.4234  0.3786
13109TIP3    H160742   0.254   5.920   4.192 -1.0528 -0.1638  0.0999
13109TIP3    H260743   0.398   5.893   4.154 -0.6677  1.9284 -0.0538
13110TIP3   OH260744   2.376   3.325   1.708  0.3700 -0.5047  0.0618
13110TIP3    H160745   2.319   3.394   1.674  1.5628  0.2139 -0.5430
13110TIP3    H260746   2.464   3.363   1.706  0.9671 -1.8074  0.3694
13111TIP3   OH260747   6.460   0.443  11.502  0.4449  0.0306 -0.3276
13111TIP3    H160748   6.423   0.402  11.580 -0.0275 -0.2000 -0.6634
13111TIP3    H260749   6.531   0.498  11.534  1.7738 -1.8404  0.0412
13112TIP3   OH260750   4.626   4.473  15.394 -0.0531 -0.2894  0.1631
13112TIP3    H160751   4.559   4.451  15.459  0.5696  0.4737  1.1068
13112TIP3    H260752   4.668   4.390  15.373  0.3640 -0.4453  1.4836
13113TIP3   OH260753   1.920   1.195  11.527 -0.1539  0.0352 -0.0794
13113TIP3    H160754   1.986   1.262  11.511 -1.6434  1.3647 -1.0102
13113TIP3    H260755   1.917   1.187  11.623  1.6413 -0.4123 -0.0312
13114TIP3   OH260756   6.724   6.050  16.532  0.2254 -0.1342 -0.1332
13114TIP3    H160757   6.793   6.109  16.501 -1.2015  1.9215  0.3223
13114TIP3    H260758   6.737   6.046  16.627  0.4716 -0.7589 -0.1956
13115TIP3   OH260759   6.259   1.619  12.860  0.2618  0.3153  0.1269
13115TIP3    H160760   6.287   1.541  12.908  1.7884  1.4590  1.1812
13115TIP3    H260761   6.180   1.591  12.814 -0.0276 -1.4554  1.5705
13116TIP3   OH260762   0.147   3.137   3.299 -0.5985 -0.3160 -0.3699
13116TIP3    H160763   0.155   3.122   3.393 -0.6106 -1.4871 -0.5362
13116TIP3    H260764   0.234   3.164   3.270 -1.1384  2.4575  0.3413
13117TIP3   OH260765   1.891   3.407  11.523  0.4195  0.0106 -0.4311
13117TIP3    H160766   1.922   3.495  11.545 -0.3235  0.9824 -2.9260
13117TIP3    H260767   1.971   3.356  11.512  0.9203  0.7868 -0.4673
13118TIP3   OH260768   2.654   3.433   6.690 -0.6667  0.5615  0.3063
13118TIP3    H160769   2.714   3.489   6.641 -0.4622 -0.8059 -1.0855
13118TIP3    H260770   2.677   3.344   6.663 -1.2720 -0.1905  2.1082
13119TIP3   OH260771   5.118   4.553   2.238  0.5997  0.0191 -0.2980
13119TIP3    H160772   5.153   4.620   2.180  0.4154 -1.0305 -1.6643
13119TIP3    H260773   5.195   4.509   2.273  0.7616  1.5059  1.3713
13120TIP3   OH260774   6.532   5.310  10.835 -0.1424  0.0834 -0.3160
13120TIP3    H160775   6.611   5.321  10.889 -0.4068  2.6287 -0.3287
13120TIP3    H260776   6.508   5.399  10.810 -1.7451 -0.8081 -2.2035
13121TIP3   OH260777   4.577   2.369  12.998  0.5566  0.1567 -0.2519
13121TIP3    H160778   4.636   2.319  13.054 -0.0322  1.0991  1.2709
13121TIP3    H260779   4.570   2.316  12.918  2.8985 -0.2967 -0.2324
13122TIP3   OH260780   5.583   4.646   4.020 -0.0482  0.3788  0.3499
13122TIP3    H160781   5.528   4.690   4.084 -1.0901  1.7413 -1.3949
13122TIP3    H260782   5.563   4.689   3.937  0.7072 -1.8029 -1.0464
13123TIP3   OH260783   5.427   0.190   0.341  0.7051 -0.3818  0.2670
13123TIP3    H160784   5.507   0.150   0.374 -0.0681 -2.6948 -0.4887
13123TIP3    H260785   5.392   0.127   0.278 -1.1819  1.0184 -0.1929
13124TIP3   OH260786   5.869   3.120  14.197  0.6507 -0.8684 -0.1532
13124TIP3    H160787   5.804   3.164  14.253 -0.3300 -0.7103 -1.3705
13124TIP3    H260788   5.932   3.188  14.176  0.9198 -0.8783  0.5754
13125TIP3   OH260789   2.633   5.058   2.923  0.0946  0.4009  0.1828
13125TIP3    H160790   2.549   5.023   2.893 -0.1045  0.2947  0.8297
13125TIP3    H260791   2.610   5.140   2.967  0.2171 -0.0200  1.0713
13126TIP3   OH260792   4.572   0.770   3.336 -0.3203  0.2996 -0.0599
13126TIP3    H160793   4.507   0.826   3.377  1.1088  1.6323  0.4750
13126TIP3    H260794   4.593   0.705   3.403 -1.6975 -0.6972 -0.5466
13127TIP3   OH260795   2.379   3.139   4.743 -0.2742  0.0443 -0.0628
13127TIP3    H160796   2.305   3.185   4.705  0.2883  0.4016 -0.7579
13127TIP3    H260797   2.450   3.153   4.681  0.5524  0.2594  0.8950
13128TIP3   OH260798   6.076   5.277   3.038  0.6464  0.1098  0.1613
13128TIP3    H160799   6.106   5.311   3.122  2.8885  0.6102 -0.7717
13128TIP3    H260800   6.099   5.184   3.039  0.6879  0.1194  0.0882
13129TIP3   OH260801   4.837   4.333  16.460 -0.9165 -0.3149  0.1797
13129TIP3    H160802   4.902   4.264  16.471 -1.9637 -1.1425  1.5162
13129TIP3    H260803   4.753   4.290  16.477 -1.5440  1.4280  1.9715
13130TIP3   OH260804   1.458   1.138   3.707 -0.7684 -0.3771 -0.1058
13130TIP3    H160805   1.521   1.209   3.693 -1.7211  0.4448 -0.4042
13130TIP3    H260806   1.402   1.141   3.629 -2.1827  0.0117  0.8736
13131TIP3   OH260807   3.464   6.754  11.577 -0.0621  0.1338  0.1099
13131TIP3    H160808   3.478   6.726  11.486  0.3948 -1.0428  0.5183
13131TIP3    H260809   3.548   6.737  11.619 -0.1636  1.0200  0.6718
13132TIP3   OH260810   1.464   1.100  14.023  0.2698 -0.3017 -0.4261
13132TIP3    H160811   1.473   1.021  14.076 -1.5004 -0.7913 -0.8021
13132TIP3    H260812   1.374   1.098  13.991  0.5156  1.3143 -1.3440
13133TIP3   OH260813   5.202   2.819   3.065 -0.3563 -0.3902  0.0551
13133TIP3    H160814   5.228   2.787   3.152  0.6242 -2.2716 -0.8811
13133TIP3    H260815   5.167   2.742   3.020 -1.2418  0.6449 -1.1006
13134TIP3   OH260816   1.424   6.527   2.656  0.3302  0.1810 -0.3913
13134TIP3    H160817   1.488   6.545   2.587  1.0198 -0.6874  0.0085
13134TIP3    H260818   1.473   6.539   2.737  0.3062 -1.5870 -0.0946
13135TIP3   OH260819   1.013   0.679   3.218 -0.1256 -1.0297 -0.4904
13135TIP3    H160820   1.015   0.613   3.287  2.0363 -1.8281 -1.2069
13135TIP3    H260821   0.921   0.694   3.201 -0.6841 -2.9599  0.5566
13136TIP3   OH260822   1.232   0.437  12.239  0.7654  0.0746 -0.0312
13136TIP3    H160823   1.261   0.350  12.268  0.5154  0.1773  0.5246
13136TIP3    H260824   1.161   0.418  12.177  0.7104 -0.1182  0.0885
13137TIP3   OH260825   6.052   0.318   5.408 -0.0292  0.1942  0.1625
13137TIP3    H160826   5.983   0.305   5.473  0.3472  0.0751  0.5453
13137TIP3    H260827   6.072   0.230   5.378 -1.9808  0.4045 -2.0270
13138TIP3   OH260828   2.070   1.889  17.201  0.3308  0.2982 -0.8420
13138TIP3    H160829   2.151   1.841  17.185  1.4879  2.1807 -0.9832
13138TIP3    H260830   2.023   1.837  17.266  1.2422 -1.2578 -1.3788
13139TIP3   OH260831   4.817   4.261   6.350 -0.7622  0.1547 -0.3282
13139TIP3    H160832   4.731   4.221   6.360 -1.3090  0.9612 -1.5727
13139TIP3    H260833   4.799   4.353   6.331  0.4245  0.6889  0.9973
13140TIP3   OH260834   1.752   2.211   3.836  0.3778 -0.1700 -0.2254
13140TIP3    H160835   1.674   2.249   3.796 -0.4470 -0.2036  1.2538
13140TIP3    H260836   1.718   2.162   3.912  1.9655  1.4300  1.6329
13141TIP3   OH260837   2.244   0.620  12.428 -0.2771  0.1949  0.4130
13141TIP3    H160838   2.156   0.641  12.398 -0.3073  0.2575  0.5411
13141TIP3    H260839   2.232   0.591  12.518  0.1156  2.9331  1.4581
13142TIP3   OH260840   6.704   3.311  10.971  0.0064  0.1464 -0.0045
13142TIP3    H160841   6.724   3.217  10.969  1.1928  0.3656  0.4729
13142TIP3    H260842   6.653   3.326  10.892  0.3305 -0.7963 -0.4191
13143TIP3   OH260843   2.219   4.217  14.212  0.1554 -0.3478 -0.4323
13143TIP3    H160844   2.129   4.208  14.244  0.2362  2.3273  0.8759
13143TIP3    H260845   2.268   4.151  14.260 -0.9149 -1.0508 -0.2720
13144TIP3   OH260846   1.734   5.493   0.300 -0.5608 -0.2425  0.0659
13144TIP3    H160847   1.767   5.422   0.355 -0.2843 -0.1615  0.0065
13144TIP3    H260848   1.775   5.479   0.215 -0.7520 -0.1914 -0.0361
13145TIP3   OH260849   5.974   5.635   3.608 -0.0482  0.2509 -0.0601
13145TIP3    H160850   5.913   5.650   3.536 -0.5247  1.5938  0.5790
13145TIP3    H260851   5.933   5.566   3.660 -0.4879  0.3744 -0.2346
13146TIP3   OH260852   4.973   6.767   2.874 -0.2556 -0.1493  0.0882
13146TIP3    H160853   4.970   6.842   2.814 -0.4695 -0.1245  0.1313
13146TIP3    H260854   5.067   6.750   2.885 -0.2178 -1.3041 -1.6666
13147TIP3   OH260855   1.708   4.566   4.910 -0.4338 -0.5067  0.5575
13147TIP3    H160856   1.686   4.496   4.848 -0.5584  0.3943 -0.4581
13147TIP3    H260857   1.650   4.552   4.984 -1.9492 -0.2796 -0.5388
13148TIP3   OH260858   2.220   5.751   1.248  0.0952 -0.0484  0.0675
13148TIP3    H160859   2.173   5.807   1.186  2.0300  2.1261  0.4297
13148TIP3    H260860   2.311   5.754   1.218  0.7879 -0.3298  2.0241
13149TIP3   OH260861   2.656   1.452  15.925 -0.6727  0.0161 -0.2527
13149TIP3    H160862   2.623   1.507  15.997 -2.8056 -0.1387 -1.0579
13149TIP3    H260863   2.592   1.464  15.855 -0.1270 -1.9858 -1.1384
13150TIP3   OH260864   4.199   4.535  11.538  0.1928  0.0057  0.0355
13150TIP3    H160865   4.181   4.579  11.621 -1.6259 -1.3366  0.4121
13150TIP3    H260866   4.295   4.537  11.530  0.3485  1.0772  1.6286
13151TIP3   OH260867   1.721   0.789  12.966  0.4214  0.5046 -0.3414
13151TIP3    H160868   1.663   0.846  13.018  0.2973  0.0588  0.0145
13151TIP3    H260869   1.664   0.756  12.896 -0.3412 -1.4769  1.0999
13152TIP3   OH260870   2.047   0.098   5.271  0.5616 -0.1502 -0.8558
13152TIP3    H160871   2.105   0.036   5.226 -1.2031 -1.1961 -1.8248
13152TIP3    H260872   1.967   0.097   5.219 -0.1213  1.7227  0.0740
13153TIP3   OH260873   2.451   1.983  16.251 -0.4269  0.3557 -0.3930
13153TIP3    H160874   2.527   2.011  16.301 -0.7137  0.2225  0.1267
13153TIP3    H260875   2.408   2.064  16.225 -0.9723  0.4157  0.6654
13154TIP3   OH260876   6.629   3.957  15.906  0.7034  0.4793  0.0269
13154TIP3    H160877   6.610   4.030  15.847 -0.9220 -0.1695 -0.2987
13154TIP3    H260878   6.587   3.979  15.988 -0.1948 -0.2683 -0.2121
13155TIP3   OH260879   5.904   3.094   3.264  0.4620  0.1045  0.3011
13155TIP3    H160880   5.923   3.181   3.229 -0.2958 -0.2119 -0.9855
13155TIP3    H260881   5.961   3.036   3.214 -1.1424 -0.4409 -0.9799
13156TIP3   OH260882   1.035   1.587   2.712 -0.1655 -0.5297 -0.0193
13156TIP3    H160883   1.059   1.632   2.630  0.0941 -2.7400 -1.2363
13156TIP3    H260884   0.939   1.589   2.714 -0.1932  2.6078  1.5199
13157TIP3   OH260885   3.849   1.636   3.794  0.6632 -0.2901  0.0534
13157TIP3    H160886   3.908   1.632   3.870  1.4434  0.4055 -0.4962
13157TIP3    H260887   3.908   1.648   3.719  0.0015 -2.1718 -0.8353
13158TIP3   OH260888   3.075   2.297  14.272  0.1632  0.5062  0.2899
13158TIP3    H160889   3.079   2.233  14.343 -1.9542  0.7426  0.6790
13158TIP3    H260890   3.085   2.245  14.192 -1.3626 -0.3371  0.6036
13159TIP3   OH260891   5.913   5.481   2.619 -0.1958 -0.5464  0.2350
13159TIP3    H160892   5.956   5.506   2.701  2.5211  0.3663 -1.3429
13159TIP3    H260893   5.873   5.396   2.638  2.3298 -1.4612  1.9329
13160TIP3   OH260894   5.883   0.853  11.496  0.2234 -0.2508  0.3325
13160TIP3    H160895   5.836   0.830  11.415 -0.4791 -1.3816  1.0303
13160TIP3    H260896   5.935   0.929  11.472 -0.2916 -0.2995 -1.0778
13161TIP3   OH260897   5.311   3.681   5.836 -0.1022 -0.0502  0.1372
13161TIP3    H160898   5.326   3.638   5.920 -1.1258  1.4757  1.1648
13161TIP3    H260899   5.216   3.682   5.826  0.0071 -0.3067 -1.1163
13162TIP3   OH260900   0.596   4.085   4.981  0.1648  0.0672 -0.4876
13162TIP3    H160901   0.599   4.156   5.045 -0.3048  0.9491 -1.4159
13162TIP3    H260902   0.668   4.028   5.006  0.9486  1.1914 -0.0801
13163TIP3   OH260903   3.153   4.942   1.456  0.1554 -0.4263 -0.3494
13163TIP3    H160904   3.167   4.997   1.379 -1.2838  0.4615 -0.0276
13163TIP3    H260905   3.236   4.943   1.502 -0.2930  3.1361  0.6490
13164TIP3   OH260906   4.840   5.319  15.149 -0.5412 -0.1403  0.1455
13164TIP3    H160907   4.871   5.402  15.114  0.6579  0.1450  1.7429
13164TIP3    H260908   4.838   5.260  15.073  2.3218  0.3223 -0.4202
13165TIP3   OH260909   1.368   3.597   2.242 -0.0375  0.1637 -0.2810
13165TIP3    H160910   1.389   3.622   2.333  1.7767  0.6215 -0.7835
13165TIP3    H260911   1.381   3.677   2.192  0.9745 -0.5561 -1.2170
13166TIP3   OH260912   3.910   2.968   5.802 -0.0214 -0.5097  0.5174
13166TIP3    H160913   3.959   2.886   5.804  0.5888 -0.1373  1.3575
13166TIP3    H260914   3.924   3.002   5.713  3.3553  0.7905  1.3760
13167TIP3   OH260915   6.704   2.404  12.234 -0.1256  0.0348  0.0578
13167TIP3    H160916   6.766   2.397  12.162  0.6454 -1.8888  0.8158
13167TIP3    H260917   6.731   2.482  12.282 -0.0729  0.8046 -1.2018
13168TIP3   OH260918   4.211   3.877  11.929 -0.3219  0.3343  0.6156
13168TIP3    H160919   4.156   3.855  11.855 -0.4242 -0.7722  1.0034
13168TIP3    H260920   4.298   3.894  11.891 -0.9473  2.4057 -0.0317
13169TIP3   OH260921   4.280   1.822  16.925  0.0353  0.2061 -0.5616
13169TIP3    H160922   4.343   1.750  16.925 -1.4605 -1.1651 -0.2411
13169TIP3    H260923   4.240   1.821  17.012  0.0026  1.4618 -0.5316
13170TIP3   OH260924   1.258   2.074   2.524  0.3459 -0.0396  0.2381
13170TIP3    H160925   1.231   2.106   2.437 -1.4149  0.4728  0.9247
13170TIP3    H260926   1.318   2.002   2.505  0.6544  0.5966 -1.3969
13171TIP3   OH260927   1.375   2.496  16.406  0.2064 -0.3165  0.0712
13171TIP3    H160928   1.295   2.549  16.398 -0.0102 -0.6252  0.1798
13171TIP3    H260929   1.345   2.415  16.447  0.3307 -1.0109 -1.1850
13172TIP3   OH260930   3.037   6.337  12.099 -0.1096 -0.1123  0.6269
13172TIP3    H160931   3.024   6.413  12.156 -1.0811  0.9554 -0.9372
13172TIP3    H260932   3.125   6.305  12.120  0.4691  1.6799  1.0635
13173TIP3   OH260933   5.237   1.523   3.893  0.5519  0.4645  0.4448
13173TIP3    H160934   5.203   1.609   3.915  0.6754  0.0234  2.5953
13173TIP3    H260935   5.332   1.533   3.897  0.5640  0.1628  1.0828
13174TIP3   OH260936   3.003   0.252  15.077 -0.5248 -0.7543 -0.0710
13174TIP3    H160937   2.974   0.343  15.090  1.0358 -0.0741 -1.0972
13174TIP3    H260938   2.983   0.233  14.986 -0.1628 -1.1697 -0.0669
13175TIP3   OH260939   3.988   4.654   5.296 -0.2779  0.1628 -0.1855
13175TIP3    H160940   4.050   4.583   5.314 -0.6154 -0.4702 -1.3929
13175TIP3    H260941   4.001   4.673   5.203 -0.7148  1.1962 -0.0493
13176TIP3   OH260942   2.545   2.158  12.307 -0.4680 -0.2107 -0.2475
13176TIP3    H160943   2.604   2.209  12.251  0.3134  0.6606  1.3245
13176TIP3    H260944   2.503   2.222  12.364 -1.5983 -1.0332 -0.1043
13177TIP3   OH260945   3.672   4.000   2.196 -0.3092 -0.2827  0.1708
13177TIP3    H160946   3.682   4.095   2.201 -1.8931 -0.1233  0.8384
13177TIP3    H260947   3.590   3.986   2.149  0.4600 -1.3696 -0.9389
13178TIP3   OH260948   2.119   4.193  17.170 -0.0253  0.4232  0.4830
13178TIP3    H160949   2.046   4.255  17.173 -0.5108 -0.0383 -0.8661
13178TIP3    H260950   2.080   4.111  17.139  1.1588  0.3547 -0.9312
13179TIP3   OH260951   2.902   1.674   0.309 -0.0255  0.6761 -0.4309
13179TIP3    H160952   2.957   1.675   0.231  0.2436  0.0254 -0.2524
13179TIP3    H260953   2.964   1.680   0.382 -0.1928 -0.0047 -0.2308
13180TIP3   OH260954   3.092   2.866   2.572  0.0700 -0.8729  0.4819
13180TIP3    H160955   3.100   2.802   2.501 -1.3882  0.9363 -1.4342
13180TIP3    H260956   3.081   2.950   2.528  0.8088  0.5973  2.8914
13181TIP3   OH260957   1.185   1.926  16.663 -0.3835  0.6667 -0.1826
13181TIP3    H160958   1.178   1.912  16.757  3.0151  1.4137  0.3017
13181TIP3    H260959   1.161   2.018  16.650 -0.5563  0.6488  0.0161
13182TIP3   OH260960   2.874   4.349   5.728 -0.2628  0.0758 -0.7737
13182TIP3    H160961   2.903   4.440   5.736 -1.5231  0.5461 -1.3508
13182TIP3    H260962   2.866   4.318   5.818 -3.3483  1.7173 -0.3493
13183TIP3   OH260963   1.889   6.164  12.051  0.2231  0.0260 -0.0549
13183TIP3    H160964   1.934   6.143  11.970 -2.1318 -2.4327 -0.8495
13183TIP3    H260965   1.900   6.086  12.106  0.7896  1.1963  1.5792
13184TIP3   OH260966   2.925   6.032  14.546  0.3325 -0.2632  0.5271
13184TIP3    H160967   2.983   5.968  14.506  1.2986  0.2957  1.0100
13184TIP3    H260968   2.980   6.081  14.607 -0.7667 -0.1150  1.4577
13185TIP3   OH260969   3.269   2.589  14.121  0.1786 -0.0501  0.5883
13185TIP3    H160970   3.276   2.513  14.178 -1.5400 -0.5727  0.1376
13185TIP3    H260971   3.238   2.554  14.037  0.3447  1.0195  0.0620
13186TIP3   OH260972   5.872   6.461  12.833  0.2481  0.0928  0.3823
13186TIP3    H160973   5.840   6.427  12.917  1.7786 -0.9318  0.5958
13186TIP3    H260974   5.904   6.548  12.853  1.0057 -0.3087  0.9778
13187TIP3   OH260975   5.146   5.196   3.218 -0.3126  0.6458 -0.1065
13187TIP3    H160976   5.134   5.119   3.275  0.8707  1.2798  1.0474
13187TIP3    H260977   5.106   5.170   3.135 -0.8997 -0.8175  0.5854
13188TIP3   OH260978   2.721   2.940  10.725 -0.1468  0.5201 -0.0979
13188TIP3    H160979   2.763   2.930  10.811 -1.2539  1.8362  0.6467
13188TIP3    H260980   2.766   3.015  10.685  0.2423  0.0236 -0.6013
13189TIP3   OH260981   2.252   5.885  17.191 -0.2221 -0.1459  0.1619
13189TIP3    H160982   2.304   5.805  17.199  1.0918  0.7082  0.4843
13189TIP3    H260983   2.316   5.953  17.171 -0.9626  1.2801  2.3204
13190TIP3   OH260984   3.775   4.649   5.011 -0.4672 -0.1352  0.1280
13190TIP3    H160985   3.722   4.611   4.940 -0.4677 -0.5296  0.3381
13190TIP3    H260986   3.860   4.668   4.969 -1.1865  1.7759 -0.5652
13191TIP3   OH260987   6.162   1.841  13.373 -0.6153 -0.8972  0.2330
13191TIP3    H160988   6.155   1.935  13.354 -0.2386 -0.6256  1.3344
13191TIP3    H260989   6.117   1.798  13.301  0.2398  0.0725 -0.9156
13192TIP3   OH260990   5.804   2.591  10.863 -0.4365 -0.0181  0.5848
13192TIP3    H160991   5.848   2.673  10.839  0.3641 -0.5293  0.2698
13192TIP3    H260992   5.813   2.536  10.785 -1.1469 -0.3413  0.7221
13193TIP3   OH260993   6.026   5.543   4.316  0.3436  0.3139 -0.1765
13193TIP3    H160994   5.985   5.578   4.395 -2.2153 -1.5985 -0.5133
13193TIP3    H260995   6.072   5.464   4.345  0.6242  0.4101 -0.3599
13194TIP3   OH260996   1.064   2.627  14.015  0.3522 -0.3193  0.4557
13194TIP3    H160997   1.093   2.679  14.090 -2.3847 -0.8683  2.0043
13194TIP3    H260998   1.071   2.536  14.045  3.3999 -0.9243 -1.6066
13195TIP3   OH260999   1.564   1.763   5.609  0.0466  0.5089 -0.5201
13195TIP3    H161000   1.523   1.739   5.693  0.6830 -0.1424 -0.3945
13195TIP3    H261001   1.553   1.858   5.605 -0.2085  0.5213  0.1892
13196TIP3   OH261002   4.000   5.567  15.159  0.5247 -0.0341 -0.2826
13196TIP3    H161003   3.993   5.659  15.181  0.1190  0.2891 -1.7032
13196TIP3    H261004   4.039   5.527  15.237 -1.6493  0.8703  1.3745
13197TIP3   OH261005   5.331   1.141  13.456 -0.5715  0.3992  0.5597
13197TIP3    H161006   5.344   1.089  13.377 -0.9396  1.2236 -0.0723
13197TIP3    H261007   5.392   1.105  13.520 -1.0193 -0.9721  0.2388
13198TIP3   OH261008   3.779   0.228  15.192  0.2718  0.0774 -0.1690
13198TIP3    H161009   3.734   0.156  15.237  0.4196  0.7329  1.0576
13198TIP3    H261010   3.712   0.266  15.135  0.0834 -0.7681 -0.5388
13199TIP3   OH261011   0.801   6.408  11.769  0.7372  0.5039 -0.0029
13199TIP3    H161012   0.718   6.435  11.730  0.5627 -0.3332 -0.2300
13199TIP3    H261013   0.791   6.425  11.862 -1.1434 -2.9913  0.5828
13200TIP3   OH261014   0.850   5.717   2.900  0.3691 -0.4990 -0.0058
13200TIP3    H161015   0.853   5.662   2.822  0.7744 -3.8683  2.1634
13200TIP3    H261016   0.757   5.739   2.910  0.4941  1.4909 -2.2368
13201TIP3   OH261017   2.844   0.061   4.169  0.5767  0.6307  0.3984
13201TIP3    H161018   2.930   0.026   4.194  0.6732  0.6656  0.1237
13201TIP3    H261019   2.859   0.155   4.160  0.7717  0.5096 -0.6842
13202TIP3   OH261020   1.266   6.286  12.573  0.1806  0.7314  0.0766
13202TIP3    H161021   1.256   6.306  12.666  0.5821 -2.2723  0.8582
13202TIP3    H261022   1.308   6.363  12.536  2.2589  1.0734  2.8955
13203TIP3   OH261023   6.560   3.091  10.563 -0.3387 -0.5979 -0.9449
13203TIP3    H161024   6.560   2.997  10.580 -1.7321 -0.5886 -0.7468
13203TIP3    H261025   6.550   3.131  10.650  0.0140 -0.2659 -1.0519
13204TIP3   OH261026   5.005   0.295   3.282  0.4434  0.2608 -0.4650
13204TIP3    H161027   4.986   0.209   3.243  1.2785 -0.3437  0.4025
13204TIP3    H261028   5.068   0.276   3.351  0.5854  1.5808 -0.2093
13205TIP3   OH261029   0.195   5.358   2.434 -0.0946  0.5469  0.2341
13205TIP3    H161030   0.184   5.362   2.529 -1.4553 -0.6577  0.1496
13205TIP3    H261031   0.107   5.345   2.399  0.4255  0.5778 -1.1804
13206TIP3   OH261032   5.888   2.846  17.223 -0.0735 -0.6397 -0.3077
13206TIP3    H161033   5.976   2.832  17.188 -0.3515  0.1629 -1.4044
13206TIP3    H261034   5.852   2.758  17.234  1.5263 -1.0690  2.0270
13207TIP3   OH261035   5.988   5.652  13.116 -0.3323  0.0271 -0.1281
13207TIP3    H161036   5.911   5.680  13.066  0.5101  0.2696 -1.3256
13207TIP3    H261037   5.983   5.557  13.115 -0.5561  0.0379 -0.3196
13208TIP3   OH261038   5.109   0.244  12.587 -0.4288 -0.4946 -0.0654
13208TIP3    H161039   5.078   0.296  12.661 -2.1001  0.0577 -1.0863
13208TIP3    H261040   5.201   0.269  12.577 -1.0467  2.0232 -0.2465
13209TIP3   OH261041   2.693   3.938  15.246 -0.4660 -0.4057  0.4126
13209TIP3    H161042   2.699   3.990  15.166 -1.0294 -1.4159 -0.3122
13209TIP3    H261043   2.780   3.944  15.286 -0.9864  2.6431  1.3896
13210TIP3   OH261044   3.769   2.207   1.876  0.1751  0.5419 -0.6305
13210TIP3    H161045   3.794   2.299   1.880 -0.7188  0.7848 -0.4482
13210TIP3    H261046   3.681   2.208   1.839 -0.0851 -0.1901 -0.0605
13211TIP3   OH261047   5.905   4.621  14.840 -0.2130 -0.2542 -0.1543
13211TIP3    H161048   5.929   4.570  14.918  0.2474 -0.1208 -0.2081
13211TIP3    H261049   5.986   4.665  14.814 -0.2998 -0.4986 -0.8636
13212TIP3   OH261050   0.146   5.585  13.380  0.2790 -0.1033 -0.0683
13212TIP3    H161051   0.166   5.581  13.287  2.4269  0.3810  0.3154
13212TIP3    H261052   0.125   5.495  13.405 -1.4825 -0.0478 -1.2111
13213TIP3   OH261053   2.349   3.040   0.122  0.2403  0.3870 -0.2744
13213TIP3    H161054   2.367   3.090   0.201  0.0967  0.4189 -0.2621
13213TIP3    H261055   2.260   3.064   0.098  0.3980  0.6165 -0.6266
13214TIP3   OH261056   1.855   4.501  15.732 -0.3277 -0.6757 -0.0755
13214TIP3    H161057   1.841   4.423  15.785  2.2904 -1.2311 -0.0603
13214TIP3    H261058   1.898   4.469  15.653  3.9484  0.8851  1.3196
13215TIP3   OH261059   1.923   5.742   5.320 -0.2564  0.3217 -0.4432
13215TIP3    H161060   1.918   5.740   5.416 -0.1601  1.0895 -0.4096
13215TIP3    H261061   2.017   5.739   5.301 -0.1476  2.1815 -0.4149
13216TIP3   OH261062   1.588   6.383   1.000  0.3214  0.7412 -0.3438
13216TIP3    H161063   1.537   6.316   0.955  1.2058  1.2774 -2.2670
13216TIP3    H261064   1.651   6.334   1.053  0.5802  0.0358 -1.2811
13217TIP3   OH261065   0.904   0.752   6.057  0.0334  0.4674 -0.4076
13217TIP3    H161066   0.827   0.730   6.004 -1.7180  2.9541  0.9410
13217TIP3    H261067   0.906   0.685   6.126 -1.3059  0.7053 -0.1142
13218TIP3   OH261068   3.607   0.383  13.957  0.0982  0.1927  0.5946
13218TIP3    H161069   3.586   0.433  13.879 -0.8875 -0.5345  0.3612
13218TIP3    H261070   3.569   0.296  13.941  0.4828 -0.1844  1.5867
13219TIP3   OH261071   1.469   3.423   3.655  0.0998  0.1746 -0.2573
13219TIP3    H161072   1.519   3.479   3.715  0.1919  1.3290 -1.3562
13219TIP3    H261073   1.426   3.485   3.596 -0.3268 -0.9195 -1.1204
13220TIP3   OH261074   2.600   1.178   1.740  0.3238  0.1580  0.3332
13220TIP3    H161075   2.528   1.232   1.710 -0.0798 -0.2681  0.5306
13220TIP3    H261076   2.635   1.138   1.660  0.8240  0.9418  0.1491
13221TIP3   OH261077   1.172   3.597  11.162  0.1274  0.4075 -0.1249
13221TIP3    H161078   1.230   3.525  11.139 -0.7277 -0.2082 -0.3920
13221TIP3    H261079   1.124   3.616  11.081 -0.1450  0.8043  0.1249
13222TIP3   OH261080   3.330   3.003   4.992 -0.1602  0.0470  0.1042
13222TIP3    H161081   3.277   3.026   4.916 -0.0812  0.6976  0.2400
13222TIP3    H261082   3.415   3.043   4.975 -0.2947  0.6411  0.7602
13223TIP3   OH261083   4.052   0.895  16.665 -0.7394 -0.1027 -0.5249
13223TIP3    H161084   4.021   0.957  16.731  0.2658  1.1191 -1.1658
13223TIP3    H261085   3.980   0.833  16.655 -0.4056 -1.2231  2.7516
13224TIP3   OH261086   5.885   2.615  14.386 -0.1064  0.0807 -0.1008
13224TIP3    H161087   5.829   2.678  14.431 -1.1633  2.1789 -3.9110
13224TIP3    H261088   5.825   2.554  14.345  0.6635 -0.6067 -0.2371
13225TIP3   OH261089   1.818   5.683  15.437  0.2832 -0.5319 -0.1322
13225TIP3    H161090   1.856   5.760  15.479  0.7293 -1.2827  0.8857
13225TIP3    H261091   1.728   5.709  15.415  0.9444  0.8259 -1.3588
13226TIP3   OH261092   4.642   6.334   4.940 -0.2582  0.6306  0.2567
13226TIP3    H161093   4.672   6.376   5.021  0.4848 -0.8076  0.7516
13226TIP3    H261094   4.667   6.396   4.871  2.4829  0.2520  0.7866
13227TIP3   OH261095   3.913   2.206   1.093 -0.6419 -0.3366 -0.0017
13227TIP3    H161096   3.927   2.299   1.076  0.9277 -0.5688 -0.0924
13227TIP3    H261097   3.848   2.179   1.028 -0.6107  0.5535 -0.4110
13228TIP3   OH261098   5.421   2.940  16.305 -0.2127 -0.6506 -0.4237
13228TIP3    H161099   5.329   2.962  16.287  0.2396  1.9935  0.1275
13228TIP3    H261100   5.436   2.969  16.395  1.7414  1.2451 -1.2720
13229TIP3   OH261101   3.349   1.464   0.474  0.1590  0.0821  0.4217
13229TIP3    H161102   3.265   1.491   0.511 -0.5119 -1.0534 -0.2406
13229TIP3    H261103   3.337   1.470   0.380 -0.0409 -2.5048  0.2258
13230TIP3   OH261104   5.006   1.351  13.141 -0.1484 -0.2690 -0.5528
13230TIP3    H161105   4.951   1.413  13.188 -0.6290 -1.4714  0.5297
13230TIP3    H261106   4.971   1.265  13.164  0.2570 -0.9500 -2.3160
13231TIP3   OH261107   0.335   2.943  16.421  0.2269 -0.5329 -0.5375
13231TIP3    H161108   0.328   2.862  16.370 -0.6571 -0.3573 -0.7101
13231TIP3    H261109   0.415   2.932  16.472  2.2146  0.0129 -3.2858
13232TIP3   OH261110   0.496   6.324  15.977  0.1026  0.2246  0.0381
13232TIP3    H161111   0.556   6.386  16.019 -1.0507  1.2802  0.2005
13232TIP3    H261112   0.419   6.377  15.955 -1.0159 -1.2046  0.3704
13233TIP3   OH261113   5.642   1.785   3.289  0.5965 -0.2713 -0.2622
13233TIP3    H161114   5.731   1.776   3.254  0.7424  0.1983 -0.0220
13233TIP3    H261115   5.599   1.847   3.230  0.5450 -0.2097 -0.1597
13234TIP3   OH261116   4.449   0.373   4.974  0.2705 -0.1425 -0.2606
13234TIP3    H161117   4.524   0.432   4.964  0.9150 -0.9216 -0.0576
13234TIP3    H261118   4.414   0.392   5.061  0.9304 -0.5737  0.1019
13235TIP3   OH261119   5.296   3.657  14.589 -0.5016  0.0349  0.0994
13235TIP3    H161120   5.251   3.718  14.531  0.0087  1.5867  1.2521
13235TIP3    H261121   5.281   3.571  14.550 -0.8796  0.9224 -1.8415
13236TIP3   OH261122   3.163   6.393   3.531 -0.0966  0.1214 -0.4182
13236TIP3    H161123   3.086   6.440   3.563 -0.7807 -2.0810  1.3776
13236TIP3    H261124   3.129   6.315   3.488  1.0832 -1.0324  0.6301
13237TIP3   OH261125   3.502   1.666  12.730  0.4645 -0.4549 -0.2198
13237TIP3    H161126   3.443   1.597  12.700 -2.1742  0.8563  1.6364
13237TIP3    H261127   3.488   1.737  12.668 -0.1404 -0.0334  0.3971
13238TIP3   OH261128   0.386   2.262   3.034 -0.6483 -0.0244 -0.8162
13238TIP3    H161129   0.432   2.345   3.026 -1.0572  0.2711 -0.2350
13238TIP3    H261130   0.444   2.198   2.993 -0.4113  0.5714 -1.4302
13239TIP3   OH261131   4.334   1.790   0.149  0.1593  1.0116  1.0795
13239TIP3    H161132   4.375   1.706   0.168  0.1797  0.9778  0.8879
13239TIP3    H261133   4.281   1.809   0.227  0.2092  0.8562  1.1518
13240TIP3   OH261134   2.485   2.974  15.818  0.0927  0.0391 -0.6661
13240TIP3    H161135   2.442   3.054  15.847  0.2498  1.0705 -3.0000
13240TIP3    H261136   2.579   2.990  15.833  0.0508 -0.1351 -0.2067
13241TIP3   OH261137   4.180   0.216   5.186  0.1760 -0.4001  0.0497
13241TIP3    H161138   4.266   0.244   5.219  0.0601 -0.8632  0.7678
13241TIP3    H261139   4.147   0.292   5.138  0.1588  0.4837  1.3859
13242TIP3   OH261140   2.982   1.407   4.918 -0.1184 -0.2484  0.1335
13242TIP3    H161141   3.033   1.374   4.992  0.9230 -0.1552 -0.5250
13242TIP3    H261142   2.895   1.424   4.955  0.9530  1.9543  1.8947
13243TIP3   OH261143   5.003   2.982  14.623 -0.6920 -0.0897  0.1231
13243TIP3    H161144   5.018   3.041  14.549 -1.7026  1.7007  1.2491
13243TIP3    H261145   5.090   2.950  14.647 -0.1173  0.8691 -0.6063
13244TIP3   OH261146   2.365   0.516   2.376  0.2321 -0.1593 -0.2586
13244TIP3    H161147   2.441   0.553   2.421 -1.2963  0.7267  1.8001
13244TIP3    H261148   2.336   0.445   2.433 -2.4098  1.6853  0.8631
13245TIP3   OH261149   5.610   3.147  15.944  0.0731 -0.5231 -0.7902
13245TIP3    H161150   5.616   3.139  16.039 -0.9047 -0.5966 -0.7221
13245TIP3    H261151   5.689   3.195  15.919 -0.1159  0.3297  0.1622
13246TIP3   OH261152   2.382   1.638  12.055 -0.0849  0.2082 -0.4221
13246TIP3    H161153   2.372   1.677  12.142  0.2178 -1.1934  0.2595
13246TIP3    H261154   2.420   1.552  12.071 -0.6211 -0.3354 -1.9005
13247TIP3   OH261155   2.897   4.503  13.442 -0.1805 -0.1046 -0.1181
13247TIP3    H161156   2.914   4.496  13.536  0.3312  1.0107 -0.1098
13247TIP3    H261157   2.843   4.582  13.433 -1.0687 -0.7599 -0.6720
13248TIP3   OH261158   6.328   4.303   0.013 -0.1058  0.1329  0.0302
13248TIP3    H161159   6.269   4.247   0.063 -0.6318  0.8436  0.2192
13248TIP3    H261160   6.414   4.288   0.052 -0.1864 -0.7358 -0.0959
13249TIP3   OH261161   6.644   1.588  15.141  0.8644  0.0146 -0.2419
13249TIP3    H161162   6.597   1.597  15.058  1.0016 -0.0263 -0.3256
13249TIP3    H261163   6.668   1.677  15.165  0.7292  0.0378 -0.1888
13250TIP3   OH261164   5.840   4.119  15.754 -0.5167 -0.2562 -0.3871
13250TIP3    H161165   5.901   4.171  15.807 -1.1248 -0.8005  0.9041
13250TIP3    H261166   5.896   4.066  15.698  0.1674  0.1288 -0.0786
13251TIP3   OH261167   0.098   4.785  10.956 -0.8423 -0.1056 -0.6227
13251TIP3    H161168   0.051   4.739  10.886 -1.6715  0.4236 -0.4315
13251TIP3    H261169   0.074   4.737  11.035  0.7814 -1.2346 -0.7755
13252TIP3   OH261170   4.688   3.051  14.410  0.2432 -0.4439  0.1315
13252TIP3    H161171   4.651   3.128  14.451 -0.7047 -0.2504 -1.0271
13252TIP3    H261172   4.663   2.978  14.467  1.3784  0.0894  1.3780
13253TIP3   OH261173   3.292   4.840   4.684 -0.0497 -0.4340  0.0542
13253TIP3    H161174   3.376   4.868   4.722  0.5581  2.7494 -3.1387
13253TIP3    H261175   3.226   4.891   4.732  0.2100 -0.1904  0.1574
13254TIP3   OH261176   6.430   2.318  16.315 -0.0358  0.1411  0.8834
13254TIP3    H161177   6.500   2.381  16.332  0.0086 -0.0684  1.4773
13254TIP3    H261178   6.465   2.234  16.344  0.6304 -0.5186 -1.6024
13255TIP3   OH261179   1.011   5.086  16.661 -0.8112  0.5265  0.4937
13255TIP3    H161180   1.089   5.140  16.668 -0.4378  0.0071  0.4298
13255TIP3    H261181   0.981   5.074  16.751 -0.1419 -0.2272  0.6302
13256TIP3   OH261182   3.954   2.470   1.000  0.5020  0.3933 -0.2327
13256TIP3    H161183   3.972   2.560   1.027 -3.4597  0.4346  3.1807
13256TIP3    H261184   3.869   2.474   0.957 -0.2093 -1.8095  0.8392
13257TIP3   OH261185   2.740   1.449  11.526 -0.5680  0.2718  0.0179
13257TIP3    H161186   2.831   1.443  11.498 -0.5889  1.6694 -0.4199
13257TIP3    H261187   2.742   1.420  11.617  0.2961  0.1650 -0.0197
13258TIP3   OH261188   0.290   3.823   2.408 -0.5830  0.1320 -0.1030
13258TIP3    H161189   0.287   3.796   2.316  0.9286  1.0301 -0.4564
13258TIP3    H261190   0.365   3.882   2.413  1.7896 -2.7167  2.4047
13259TIP3   OH261191   3.933   1.000  12.003 -0.1261 -0.3781  0.2891
13259TIP3    H161192   3.907   1.042  11.921  0.3636  1.0224  0.8284
13259TIP3    H261193   3.853   0.958  12.034 -1.3803  2.2995  0.9961
13260TIP3   OH261194   0.668   2.599   2.219 -0.1659  0.1799 -0.3030
13260TIP3    H161195   0.744   2.574   2.271 -0.2730  0.7163  0.1239
13260TIP3    H261196   0.645   2.520   2.169 -0.0372 -0.3279  0.4296
13261TIP3   OH261197   1.535   4.271   3.479 -0.5636 -0.0974  0.0804
13261TIP3    H161198   1.547   4.366   3.477  0.3853 -0.1689 -3.2190
13261TIP3    H261199   1.622   4.235   3.498 -0.7070 -0.3453  0.2885
13262TIP3   OH261200   1.967   4.598  13.232 -0.4151 -0.5532  0.4278
13262TIP3    H161201   2.020   4.586  13.153 -1.0594 -1.2819  0.0905
13262TIP3    H261202   2.029   4.627  13.298 -0.0415  1.2060 -0.6194
13263TIP3   OH261203   5.010   3.677   2.492  0.1868 -0.0043 -1.0252
13263TIP3    H161204   5.015   3.713   2.404 -1.4824 -1.0102 -1.5767
13263TIP3    H261205   5.097   3.692   2.529 -0.0345  3.4531 -1.6073
13264TIP3   OH261206   4.495   0.632  15.892 -0.0956 -0.3668 -0.1935
13264TIP3    H161207   4.425   0.692  15.865 -0.5914  0.8678  3.3781
13264TIP3    H261208   4.508   0.575  15.816 -2.3162  1.7703 -2.3546
13265TIP3   OH261209   6.767   0.369   6.002  0.2022 -0.3445 -0.0059
13265TIP3    H161210   6.747   0.456   6.037 -0.9428 -1.2764  1.8244
13265TIP3    H261211   6.785   0.384   5.909 -2.0700  1.5829 -0.2251
13266TIP3   OH261212   6.318   0.076  14.647  0.1269 -0.3552  0.4380
13266TIP3    H161213   6.253   0.008  14.635 -0.4848  0.4566 -1.1674
13266TIP3    H261214   6.396   0.044  14.603 -0.1809 -0.0121 -0.3731
13267TIP3   OH261215   6.124   4.327  14.237  0.4256  0.0890  0.2560
13267TIP3    H161216   6.128   4.359  14.327  1.8914  0.1474  0.1995
13267TIP3    H261217   6.117   4.406  14.184  2.7723  0.3218  0.1843
13268TIP3   OH261218   1.578   1.126  12.093  0.4240 -0.2912 -0.4722
13268TIP3    H161219   1.666   1.154  12.067  0.4643  1.9969  1.7494
13268TIP3    H261220   1.589   1.087  12.180 -0.5903 -1.1532 -0.7094
13269TIP3   OH261221   6.047   6.232   2.178  0.2370 -0.5136  0.3438
13269TIP3    H161222   6.112   6.288   2.135  1.2396 -1.8820  0.0231
13269TIP3    H261223   6.060   6.248   2.271  0.3338 -0.0305  0.2529
13270TIP3   OH261224   5.749   4.064  11.922 -0.0162  0.5912 -0.5602
13270TIP3    H161225   5.745   4.073  12.017 -0.0795 -1.3297 -0.3533
13270TIP3    H261226   5.827   4.113  11.897  0.6775  0.1361  0.6242
13271TIP3   OH261227   4.115   3.022   3.795 -0.2701  0.2868 -0.1527
13271TIP3    H161228   4.028   3.048   3.766  0.1366 -0.1342 -1.8635
13271TIP3    H261229   4.129   2.937   3.753  0.5750 -0.1104  0.9032
13272TIP3   OH261230   2.606   2.114   0.237 -0.1260 -0.2160  0.1204
13272TIP3    H161231   2.642   2.025   0.239 -2.6437 -1.3313  1.2486
13272TIP3    H261232   2.565   2.125   0.322  0.1241  2.0838  0.0079
13273TIP3   OH261233   5.732   3.328  13.735 -0.1268 -0.5608 -0.1942
13273TIP3    H161234   5.787   3.378  13.675  0.6270 -2.6295 -1.3529
13273TIP3    H261235   5.680   3.393  13.781  1.8201  1.3377 -0.5465
13274TIP3   OH261236   6.204   3.309   0.394  0.1914  0.0041  0.0523
13274TIP3    H161237   6.239   3.380   0.340 -3.2862  2.2858  0.4532
13274TIP3    H261238   6.248   3.320   0.479 -0.6296  2.1159  0.2614
13275TIP3   OH261239   3.927   6.563   3.885  0.7104 -0.3331 -0.0627
13275TIP3    H161240   3.889   6.629   3.828  2.7254 -0.1285 -1.2543
13275TIP3    H261241   3.856   6.500   3.899 -1.1502  1.8555  0.8534
13276TIP3   OH261242   3.419   6.530   2.855 -0.0676  0.1202 -0.2937
13276TIP3    H161243   3.488   6.588   2.885  1.1604 -0.3966 -1.9913
13276TIP3    H261244   3.354   6.589   2.815 -0.2194  0.5280  0.5286
13277TIP3   OH261245   5.235   3.769  14.033  0.1003 -0.8536  0.5673
13277TIP3    H161246   5.208   3.681  14.057  0.3995 -0.7444  1.3330
13277TIP3    H261247   5.330   3.763  14.020  0.0666 -0.7282  0.2577
13278TIP3   OH261248   2.851   2.759  14.940 -0.3388  0.0635  0.4322
13278TIP3    H161249   2.887   2.721  14.860 -1.9900 -2.1442  0.6358
13278TIP3    H261250   2.809   2.840  14.912 -0.9931 -0.7385 -0.9930
13279TIP3   OH261251   5.478   5.791  10.821 -0.3136  0.0952  0.0482
13279TIP3    H161252   5.489   5.718  10.881  0.3988  0.0082 -0.1779
13279TIP3    H261253   5.429   5.755  10.748  1.6921 -0.7125 -0.9856
13280TIP3   OH261254   3.901   4.941  11.803  0.7846  0.0634 -0.3547
13280TIP3    H161255   3.949   5.003  11.859  1.8059  0.0076 -1.1303
13280TIP3    H261256   3.918   4.971  11.714  1.1364 -1.1966 -0.7363
13281TIP3   OH261257   4.511   1.888   2.909 -0.6765 -0.4636  0.0538
13281TIP3    H161258   4.489   1.928   2.825 -0.3261  0.7774  0.5341
13281TIP3    H261259   4.436   1.907   2.965  0.1715  0.9353  0.7474
13282TIP3   OH261260   4.950   1.486   4.367 -0.4565 -0.2356 -0.0311
13282TIP3    H161261   4.883   1.458   4.305 -1.1801 -0.6889  0.9415
13282TIP3    H261262   5.027   1.502   4.312 -1.0062 -0.8494 -1.0197
13283TIP3   OH261263   6.402   6.001  15.317 -0.2523  0.4900  0.3256
13283TIP3    H161264   6.327   6.053  15.347 -0.9914 -0.1264 -0.4025
13283TIP3    H261265   6.365   5.915  15.296  0.4831  0.4458 -0.9181
13284TIP3   OH261266   2.915   5.899  16.239 -1.1727 -0.4313 -0.4508
13284TIP3    H161267   2.889   5.979  16.195  0.7037  1.2692  1.3304
13284TIP3    H261268   2.837   5.872  16.288 -0.8852  2.4574  1.8709
13285TIP3   OH261269   2.969   6.400  13.271  0.2480  0.1297 -0.3261
13285TIP3    H161270   3.036   6.339  13.240  1.1566  1.0073 -0.1258
13285TIP3    H261271   2.908   6.345  13.320  2.0034 -0.3784  1.3861
13286TIP3   OH261272   3.178   2.759   0.819  0.5833  0.3960 -0.2139
13286TIP3    H161273   3.143   2.690   0.876 -1.8108  1.5037 -0.1993
13286TIP3    H261274   3.213   2.825   0.878  0.1064  0.5503 -0.1011
13287TIP3   OH261275   3.854   2.717   1.396 -0.2005 -0.0482 -0.0556
13287TIP3    H161276   3.831   2.809   1.401  1.0193  0.2975 -0.5332
13287TIP3    H261277   3.781   2.672   1.437 -1.1461  1.0734 -0.4630
13288TIP3   OH261278   5.143   4.293  10.864 -0.5087 -0.4293  0.3976
13288TIP3    H161279   5.231   4.326  10.851 -0.0101 -1.6113  0.6589
13288TIP3    H261280   5.116   4.262  10.778 -1.3753  1.5258 -0.0814
13289TIP3   OH261281   1.413   1.853   4.426 -0.6138  0.8860  0.1274
13289TIP3    H161282   1.504   1.882   4.432 -0.6811  1.1060  0.0700
13289TIP3    H261283   1.403   1.827   4.334 -1.2600  3.0194 -0.4650
13290TIP3   OH261284   0.518   0.582  11.748 -0.3112 -0.1639 -0.8473
13290TIP3    H161285   0.540   0.664  11.702  0.1948 -0.8888 -1.9461
13290TIP3    H261286   0.583   0.519  11.717 -0.2042 -0.8027  0.5877
13291TIP3   OH261287   3.629   2.962   0.115 -0.0299  0.3762 -0.6637
13291TIP3    H161288   3.644   2.896   0.048 -0.7771  0.1638 -0.6279
13291TIP3    H261289   3.703   2.952   0.175 -0.6412 -1.1021 -0.1158
13292TIP3   OH261290   5.881   1.613  11.676  0.2467 -0.2490 -0.4412
13292TIP3    H161291   5.878   1.677  11.748 -0.7822  0.8254 -1.3902
13292TIP3    H261292   5.844   1.660  11.602  1.7242 -1.1842 -1.8200
13293TIP3   OH261293   4.853   1.564   6.726  0.1377 -0.0899 -0.2023
13293TIP3    H161294   4.808   1.524   6.801  1.4075  0.0346  0.6666
13293TIP3    H261295   4.936   1.516   6.720 -1.1127 -2.1675 -3.4408
13294TIP3   OH261296   5.184   1.025  10.442 -0.0375  0.3930 -0.1776
13294TIP3    H161297   5.119   1.076  10.393  0.8942  1.9665  0.1596
13294TIP3    H261298   5.166   0.934  10.419 -0.5976  0.9864 -2.2287
13295TIP3   OH261299   5.024   0.551   0.304  0.1855  0.0058 -0.4392
13295TIP3    H161300   5.090   0.581   0.366 -0.6488  0.2815  0.3253
13295TIP3    H261301   5.060   0.469   0.268  1.1315  0.3776 -0.3607
13296TIP3   OH261302   0.404   0.136  14.529  0.3353 -0.7502 -1.1659
13296TIP3    H161303   0.401   0.176  14.616 -1.6942 -0.8375 -1.1383
13296TIP3    H261304   0.488   0.090  14.527  0.2526 -1.1334  0.9336
13297TIP3   OH261305   4.775   1.981  14.657  0.5108 -0.4384 -0.5624
13297TIP3    H161306   4.792   2.043  14.586 -2.5131 -1.4925 -2.3799
13297TIP3    H261307   4.745   2.036  14.730  0.5813  0.4355 -1.1816
13298TIP3   OH261308   3.430   4.893   2.520  0.3120  0.2315  0.0135
13298TIP3    H161309   3.439   4.912   2.613  2.2185 -0.0816 -0.0650
13298TIP3    H261310   3.341   4.858   2.511  0.1283  0.1858  1.7218
13299TIP3   OH261311   3.040   2.341   2.591 -0.1806 -0.5504  0.5458
13299TIP3    H161312   3.073   2.253   2.575 -0.1651 -0.4905  0.2344
13299TIP3    H261313   2.990   2.362   2.512 -0.5583 -0.4558  0.8084
13300TIP3   OH261314   6.500   1.300  10.702 -0.1496  0.5164 -0.2888
13300TIP3    H161315   6.428   1.252  10.742  0.6573 -1.2103 -0.7957
13300TIP3    H261316   6.577   1.244  10.716  0.6269  1.0938 -1.9399
13301TIP3   OH261317   3.552   0.576  14.465  0.1266 -0.2173 -0.4552
13301TIP3    H161318   3.575   0.544  14.552 -0.3369 -1.0699 -0.6305
13301TIP3    H261319   3.487   0.644  14.480  2.5144  2.1105  0.0415
13302TIP3   OH261320   6.394   1.566   1.682  0.0282 -0.0251 -0.4211
13302TIP3    H161321   6.359   1.512   1.611 -1.5338  1.1293 -0.5744
13302TIP3    H261322   6.428   1.644   1.638 -1.4406  0.9466  0.0918
13303TIP3   OH261323   0.833   6.649  14.476  0.2261 -0.0110  0.6116
13303TIP3    H161324   0.833   6.559  14.446 -1.1094  0.3400 -0.5439
13303TIP3    H261325   0.747   6.660  14.518  0.9545  0.3188  2.0769
13304TIP3   OH261326   4.896   1.459   3.315 -0.1297 -0.2649 -0.0384
13304TIP3    H161327   4.844   1.502   3.248 -1.5873 -1.2282  0.4194
13304TIP3    H261328   4.863   1.369   3.317  1.0096 -0.6882  0.8362
13305TIP3   OH261329   2.444   2.514  15.047  0.0681 -0.0820 -0.0511
13305TIP3    H161330   2.472   2.584  14.988 -0.4747 -0.3771 -0.6680
13305TIP3    H261331   2.476   2.541  15.133  1.0656  0.2516 -0.5057
13306TIP3   OH261332   4.287   4.083  13.734 -0.4751  0.0379  0.4702
13306TIP3    H161333   4.317   4.016  13.673  0.3072  1.3479 -0.6355
13306TIP3    H261334   4.361   4.098  13.793 -1.0536 -0.8588  1.4809
13307TIP3   OH261335   1.967   2.338  16.063 -0.1235 -0.0779  0.0873
13307TIP3    H161336   1.908   2.404  16.028 -2.0685 -0.9127  1.6371
13307TIP3    H261337   2.031   2.387  16.115  1.5576  0.9710 -2.7184
13308TIP3   OH261338   3.714   0.638  16.857 -0.1008 -0.2050 -0.0023
13308TIP3    H161339   3.783   0.679  16.911 -0.2235  1.7003 -1.2013
13308TIP3    H261340   3.757   0.563  16.817  0.0972 -1.4845  2.4070
13309TIP3   OH261341   3.895   5.826   1.421 -0.0246  0.1294  0.3035
13309TIP3    H161342   3.956   5.789   1.357 -1.4715 -1.8599 -0.0380
13309TIP3    H261343   3.893   5.919   1.400  0.7967 -0.2001 -1.4980
13310TIP3   OH261344   1.382   2.042  12.026 -0.1644  0.1402 -0.7386
13310TIP3    H161345   1.377   2.014  11.935 -0.5771 -1.6693 -0.1907
13310TIP3    H261346   1.292   2.033  12.059 -0.2324  1.7301 -0.3907
13311TIP3   OH261347   1.512   3.729   0.700 -0.4274 -0.3659  0.0446
13311TIP3    H161348   1.423   3.724   0.665 -0.2807  0.2119 -0.4235
13311TIP3    H261349   1.505   3.694   0.789 -0.6407 -2.7115 -0.8376
13312TIP3   OH261350   2.280   0.564  15.186  0.1962 -0.2400 -0.3745
13312TIP3    H161351   2.267   0.471  15.205 -0.1077 -0.2580 -0.6747
13312TIP3    H261352   2.324   0.565  15.101  0.5623 -0.1206 -0.1865
13313TIP3   OH261353   1.819   0.319  10.902  0.0290 -0.3642 -0.1148
13313TIP3    H161354   1.885   0.334  10.970 -0.2900  0.9936 -0.0679
13313TIP3    H261355   1.845   0.378  10.831 -0.0207 -1.2821 -0.9129
13314TIP3   OH261356   5.423   1.286  11.763  0.3120 -0.0380 -0.0846
13314TIP3    H161357   5.513   1.310  11.743 -0.2899  1.5131 -1.1022
13314TIP3    H261358   5.388   1.360  11.811 -0.2925 -0.8459  0.7540
13315TIP3   OH261359   2.172   3.890  14.879 -0.0717  0.0622 -0.4714
13315TIP3    H161360   2.112   3.825  14.918 -2.0806  1.3088 -1.3107
13315TIP3    H261361   2.236   3.838  14.831 -0.2238 -1.3509  0.7741
13316TIP3   OH261362   2.835   2.842   2.888  0.1640  0.3196  0.1049
13316TIP3    H161363   2.855   2.817   2.979 -1.1175  0.9215  0.5801
13316TIP3    H261364   2.921   2.848   2.846  0.8791  0.9969  1.5446
13317TIP3   OH261365   6.323   4.237   1.234 -0.2216 -0.2779 -0.0154
13317TIP3    H161366   6.325   4.272   1.322  1.0461  0.4854 -0.3285
13317TIP3    H261367   6.414   4.239   1.205 -0.7688  0.7927 -1.8409
13318TIP3   OH261368   4.550   0.980  13.439  0.4561  0.4796 -0.2043
13318TIP3    H161369   4.625   0.925  13.414  0.2692 -0.2271  0.7693
13318TIP3    H261370   4.590   1.053  13.486  0.4792 -0.4140  1.2076
13319TIP3   OH261371   3.821   1.441  13.705 -0.0848 -0.0968  0.5553
13319TIP3    H161372   3.748   1.409  13.652  1.8934 -0.3812 -2.1980
13319TIP3    H261373   3.831   1.374  13.773 -2.5376  0.1382  1.2480
13320TIP3   OH261374   2.000   1.509   3.982  0.0980  0.5030 -0.1124
13320TIP3    H161375   2.075   1.469   3.939  1.2139  2.6561 -0.3355
13320TIP3    H261376   2.038   1.557   4.056 -1.2377  0.4838  0.6096
13321TIP3   OH261377   0.780   2.112  14.497  0.4297 -0.0271 -0.2836
13321TIP3    H161378   0.767   2.200  14.461 -1.2982 -0.1655 -0.1219
13321TIP3    H261379   0.813   2.127  14.585 -0.6757  0.5198  0.0600
13322TIP3   OH261380   1.266   6.041  15.671 -0.2307 -0.3294  0.3958
13322TIP3    H161381   1.331   6.108  15.691 -0.1508 -0.4479  0.5310
13322TIP3    H261382   1.265   5.984  15.747  0.2559 -0.9310 -0.0420
13323TIP3   OH261383   6.588   5.540  12.356 -0.3807  0.2082 -0.2974
13323TIP3    H161384   6.595   5.589  12.274  1.2490 -0.3027 -0.4810
13323TIP3    H261385   6.538   5.598  12.414 -0.8369  0.9193 -1.3679
13324TIP3   OH261386   1.607   1.769   3.175 -0.0730  0.1126  0.2355
13324TIP3    H161387   1.619   1.793   3.083  0.0138 -0.6776  0.0320
13324TIP3    H261388   1.581   1.850   3.218  1.2427  0.8103 -0.2213
13325TIP3   OH261389   3.810   6.601  16.716  0.7031  0.1179  0.2724
13325TIP3    H161390   3.804   6.656  16.638  1.4700 -0.4205 -0.1843
13325TIP3    H261391   3.850   6.520  16.685 -0.3119 -0.6729  0.9454
13326TIP3   OH261392   5.874   0.238   1.482 -0.1665  0.0228 -0.2341
13326TIP3    H161393   5.849   0.239   1.575  1.9815  0.4216  0.3920
13326TIP3    H261394   5.873   0.329   1.455  1.6708  0.2198  0.1786
13327TIP3   OH261395   3.070   1.029   4.373 -0.0852 -0.0438  0.2584
13327TIP3    H161396   3.102   0.987   4.294  1.0549  0.8912  0.2071
13327TIP3    H261397   2.976   1.009   4.374 -0.0536 -0.3628 -1.1368
13328TIP3   OH261398   4.108   5.340  15.717 -0.4384 -0.0405  0.5524
13328TIP3    H161399   4.046   5.267  15.715  1.1496 -1.5488  2.2797
13328TIP3    H261400   4.189   5.304  15.681  0.0827  1.1921  0.4399
13329TIP3   OH261401   1.211   3.028  15.816  0.1476  0.3401 -0.3716
13329TIP3    H161402   1.140   2.988  15.766 -1.3605  1.9940  0.3396
13329TIP3    H261403   1.192   3.121  15.814  2.1094  0.7907  0.1976
13330TIP3   OH261404   1.887   2.567  12.499 -0.5818  0.9105  0.5662
13330TIP3    H161405   1.908   2.585  12.591  0.4422  1.2725  0.2777
13330TIP3    H261406   1.924   2.642  12.451 -0.0960  0.1690 -0.2424
13331TIP3   OH261407   1.349   0.792  11.911  0.0253  0.4016  0.0281
13331TIP3    H161408   1.356   0.698  11.901  0.6204  0.4457 -0.0090
13331TIP3    H261409   1.390   0.828  11.832 -1.3370  0.6864 -0.5699
13332TIP3   OH261410   0.520   1.407   4.826  0.5359 -0.0538  0.4321
13332TIP3    H161411   0.467   1.373   4.898 -1.9323  1.5544 -0.4649
13332TIP3    H261412   0.522   1.502   4.841  1.0907  0.1630 -0.8998
13333TIP3   OH261413   6.112   0.924   2.818 -0.4682  0.0891  0.3079
13333TIP3    H161414   6.137   0.854   2.878 -1.3861 -0.1700  0.3947
13333TIP3    H261415   6.192   0.942   2.767 -0.3333 -1.2958 -0.0026
13334TIP3   OH261416   4.297   1.510  14.725 -0.2631  0.1741  0.0977
13334TIP3    H161417   4.262   1.599  14.724  2.1877  1.2040 -1.6668
13334TIP3    H261418   4.274   1.474  14.640  1.1993  0.1896 -0.3282
13335TIP3   OH261419   1.819   2.968  13.571 -0.3777  0.4923  0.5099
13335TIP3    H161420   1.868   3.007  13.643 -0.4612  2.2431 -0.3258
13335TIP3    H261421   1.848   3.015  13.493 -2.2769  0.5636 -0.2187
13336TIP3   OH261422   2.783   2.841  14.434  0.7874  0.7724  0.0672
13336TIP3    H161423   2.740   2.860  14.518  0.3286 -2.7353  0.8112
13336TIP3    H261424   2.714   2.852  14.369  0.2976  0.6694  0.5533
13337TIP3   OH261425   2.962   6.172  11.512  0.0683  0.0778 -0.4288
13337TIP3    H161426   2.924   6.217  11.587  0.2010  1.2692 -1.0654
13337TIP3    H261427   3.057   6.185  11.522  0.2383 -1.4068  0.2122
13338TIP3   OH261428   1.908   2.665  14.597  0.4339 -0.0804  0.6524
13338TIP3    H161429   1.982   2.651  14.655  1.1803 -2.8521 -0.7841
13338TIP3    H261430   1.834   2.626  14.643  1.4131 -4.2086 -0.8938
13339TIP3   OH261431   0.599   6.628  15.093 -0.5130 -0.0252 -0.2831
13339TIP3    H161432   0.580   6.686  15.019 -1.0227 -1.1523 -1.0758
13339TIP3    H261433   0.693   6.634  15.106 -0.7183  1.9489  0.4991
13340TIP3   OH261434   4.513   3.582  14.945  0.0602  0.4886  0.3720
13340TIP3    H161435   4.525   3.647  14.877  0.2203  0.1302  0.0533
13340TIP3    H261436   4.423   3.551  14.935  0.5666 -0.7359 -0.7406
13341TIP3   OH261437   2.404   2.007  17.217  0.1230 -0.2272  0.4217
13341TIP3    H161438   2.482   2.002  17.272 -0.1595  0.2252  0.8740
13341TIP3    H261439   2.413   1.934  17.156  2.7578  1.9467 -2.0271
13342TIP3   OH261440   2.890   5.102   3.398 -0.3208 -0.1002 -0.2279
13342TIP3    H161441   2.897   5.031   3.462  1.3388 -0.4239 -0.7368
13342TIP3    H261442   2.933   5.069   3.319  0.2436  1.3533 -0.5696
13343TIP3   OH261443   1.075   4.946   4.822 -0.4785  0.4932 -0.1004
13343TIP3    H161444   1.071   4.855   4.791  0.7920  0.4866 -0.3068
13343TIP3    H261445   0.987   4.980   4.810 -0.9674 -0.7155 -0.0321
13344TIP3   OH261446   1.337   0.589  14.742  0.4574  0.0309  0.1054
13344TIP3    H161447   1.294   0.673  14.725  1.6385  0.6392  0.0487
13344TIP3    H261448   1.431   0.608  14.736  0.8609 -0.6664  2.9963
13345TIP3   OH261449   0.163   1.666  14.209  0.1829 -0.1437 -0.0131
13345TIP3    H161450   0.196   1.745  14.251 -0.2815 -0.4403  0.9358
13345TIP3    H261451   0.101   1.699  14.143 -1.2740  0.2759  1.4801
13346TIP3   OH261452   6.242   0.141   2.011 -0.8720  0.9219 -0.2754
13346TIP3    H161453   6.252   0.049   2.033  0.8660  0.9555 -0.7706
13346TIP3    H261454   6.186   0.176   2.081 -1.7328 -0.5275 -0.2034
13347TIP3   OH261455   4.048   3.348   2.799  0.2950 -0.0253 -0.4686
13347TIP3    H161456   4.099   3.429   2.810 -1.1527  0.7207  1.3181
13347TIP3    H261457   4.052   3.329   2.705  1.7937  1.3437 -0.7278
13348TIP3   OH261458   4.644   6.628   0.266  0.6920 -0.0341 -0.3525
13348TIP3    H161459   4.587   6.606   0.339  0.2834 -1.1512 -0.9855
13348TIP3    H261460   4.731   6.596   0.292  0.7818  0.5413  0.0811
13349TIP3   OH261461   1.432   1.846  14.305  0.1594 -0.2450  0.0387
13349TIP3    H161462   1.360   1.804  14.258  0.6406  0.3671 -1.3191
13349TIP3    H261463   1.416   1.825  14.397 -1.5453 -0.4301 -0.2528
13350TIP3   OH261464   2.452   0.145   3.716  0.8523  0.5142  0.1865
13350TIP3    H161465   2.371   0.180   3.678  0.9480  0.4391 -0.0886
13350TIP3    H261466   2.422   0.087   3.786  0.6523  0.1038 -0.2329
13351TIP3   OH261467   5.353   5.685  10.376 -0.1510  0.0410  0.0591
13351TIP3    H161468   5.424   5.670  10.438 -0.9727  0.1578  1.0509
13351TIP3    H261469   5.276   5.645  10.418 -0.6967  0.0137 -0.9412
13352TIP3   OH261470   5.633   6.325  12.656  0.0645 -0.3374 -0.6887
13352TIP3    H161471   5.631   6.232  12.633  0.4166 -0.3180 -0.8109
13352TIP3    H261472   5.657   6.326  12.749 -1.3514 -0.4156 -0.3002
13353TIP3   OH261473   4.106   4.644  16.366 -0.0487  0.6188  0.2056
13353TIP3    H161474   4.199   4.643  16.347 -0.3774  0.4187 -1.5485
13353TIP3    H261475   4.096   4.586  16.442  1.1563  0.0743 -0.0406
13354TIP3   OH261476   4.205   6.591   1.630  0.1396  0.3564  0.2919
13354TIP3    H161477   4.197   6.496   1.616  1.8621  0.2350 -0.1514
13354TIP3    H261478   4.137   6.612   1.693 -2.2955 -0.6459 -1.8190
13355TIP3   OH261479   1.481   4.053  12.706 -0.3869  0.6170  0.2526
13355TIP3    H161480   1.487   4.140  12.667  0.7545  0.5971  0.3454
13355TIP3    H261481   1.542   4.056  12.780 -0.5790 -0.1597  0.4467
13356TIP3   OH261482   1.157   6.142   3.264  0.0741 -0.6668  0.3250
13356TIP3    H161483   1.221   6.079   3.230 -0.3236 -0.2075 -1.3666
13356TIP3    H261484   1.183   6.157   3.354  2.5386 -0.2846 -0.3849
13357TIP3   OH261485   6.709   1.688   1.359 -0.1706 -0.1659  0.4850
13357TIP3    H161486   6.729   1.674   1.452 -0.4572 -0.6424  0.4826
13357TIP3    H261487   6.784   1.652   1.313  0.7699  1.5955  0.5551
13358TIP3   OH261488   1.932   5.566   2.992 -0.0570 -0.5884 -0.3719
13358TIP3    H161489   2.027   5.579   2.998 -0.3289  2.0209 -0.4732
13358TIP3    H261490   1.922   5.479   2.954  2.3114 -0.5737 -1.1887
13359TIP3   OH261491   4.818   0.132  12.250  0.3759  0.4648  0.0724
13359TIP3    H161492   4.859   0.101  12.331  1.4036  0.8444 -0.2893
13359TIP3    H261493   4.796   0.052  12.202 -1.1373  0.1902  1.1206
13360TIP3   OH261494   3.102   3.530  17.208  0.0282 -0.1144 -0.2396
13360TIP3    H161495   3.113   3.497  17.297  0.9336 -0.7577 -0.5822
13360TIP3    H261496   3.007   3.533  17.195 -0.0931 -1.2002  0.3062
13361TIP3   OH261497   1.371   1.912   1.447 -0.0831 -0.0607  0.1642
13361TIP3    H161498   1.379   2.001   1.413 -1.7299  1.1493  2.6550
13361TIP3    H261499   1.384   1.856   1.370 -0.6726  2.3496 -1.8329
13362TIP3   OH261500   1.292   6.472   4.212  0.3612 -0.0016 -0.1323
13362TIP3    H161501   1.276   6.555   4.166  1.8728  0.8402  0.7792
13362TIP3    H261502   1.283   6.405   4.144 -1.8243  0.7861 -0.6965
13363TIP3   OH261503   0.097   3.262   6.458  0.0743 -0.0313  0.6488
13363TIP3    H161504   0.030   3.194   6.465 -1.2258  1.1499  0.1628
13363TIP3    H261505   0.179   3.217   6.475 -0.7698 -1.6713  0.5471
13364TIP3   OH261506   5.503   0.770   4.142  0.4534  0.4869  0.2084
13364TIP3    H161507   5.447   0.740   4.070 -0.9142  0.3141  1.3011
13364TIP3    H261508   5.452   0.838   4.185  0.2875 -0.8607  2.2988
13365TIP3   OH261509   6.385   5.144   3.328 -0.0488 -0.5723 -0.3869
13365TIP3    H161510   6.408   5.234   3.352  0.5139 -1.2921  2.0967
13365TIP3    H261511   6.443   5.123   3.255  0.5734  0.7101 -0.2871
13366TIP3   OH261512   2.895   0.159   5.266 -0.3451  0.0655 -0.7482
13366TIP3    H161513   2.916   0.133   5.356  0.8599 -0.7565 -1.2376
13366TIP3    H261514   2.976   0.196   5.232 -0.7774  0.3279 -1.5188
13367TIP3   OH261515   5.426   2.317  13.561  0.1389 -0.0003  0.5746
13367TIP3    H161516   5.465   2.232  13.539  0.1573  0.2713 -0.4658
13367TIP3    H261517   5.470   2.379  13.504 -0.8068  0.5215  0.3970
13368TIP3   OH261518   2.259   0.317  13.142 -0.5861  0.5740  0.5613
13368TIP3    H161519   2.298   0.323  13.055  0.3491 -0.7711  0.8697
13368TIP3    H261520   2.290   0.395  13.188 -1.8672  1.8182 -0.5797
13369TIP3   OH261521   3.534   6.319  12.783  0.2089 -0.4795 -0.1565
13369TIP3    H161522   3.495   6.305  12.869  0.5287  4.1684  0.9885
13369TIP3    H261523   3.628   6.322  12.799  0.5953 -2.8682 -1.4102
13370TIP3   OH261524   4.604   6.732  10.945  0.7964  0.3702 -0.1468
13370TIP3    H161525   4.613   6.679  10.866  0.8673  0.1483  0.0060
13370TIP3    H261526   4.616   6.822  10.916  1.3270  0.2544 -0.3063
13371TIP3   OH261527   6.660   2.864   3.598  0.5248 -0.1271  0.0588
13371TIP3    H161528   6.581   2.866   3.652  0.9672  0.2179  0.7093
13371TIP3    H261529   6.628   2.852   3.509 -0.2185 -0.7168  0.3956
13372TIP3   OH261530   2.474   2.459  12.592 -0.3540  0.3493 -0.2677
13372TIP3    H161531   2.380   2.439  12.591 -0.3093  0.1519 -0.4536
13372TIP3    H261532   2.483   2.526  12.661 -0.7859  1.1008 -0.9187
13373TIP3   OH261533   6.020   0.422   0.739 -0.7094 -0.5251  0.0923
13373TIP3    H161534   5.984   0.504   0.772  1.3571 -0.5317  2.7132
13373TIP3    H261535   6.020   0.363   0.815  1.6920 -1.5349 -0.5785
13374TIP3   OH261536   1.593   4.549   2.506 -0.2390  0.4157  0.1503
13374TIP3    H161537   1.510   4.534   2.552 -0.4072 -0.1454 -0.3233
13374TIP3    H261538   1.567   4.568   2.416  0.1356  0.4891  0.0566
13375TIP3   OH261539   4.728   6.078   4.864  0.0611  0.4996 -0.3667
13375TIP3    H161540   4.702   6.162   4.903 -1.1485  0.1185 -0.3007
13375TIP3    H261541   4.675   6.013   4.910 -0.5706 -0.0883 -1.8539
13376TIP3   OH261542   1.751   2.872   4.072 -1.0021 -0.2496  0.8122
13376TIP3    H161543   1.707   2.925   4.138  0.0067  0.6738  0.7723
13376TIP3    H261544   1.736   2.919   3.990  0.7048  0.5287  0.9136
13377TIP3   OH261545   6.350   5.655   1.690 -0.5338 -0.1259  0.9891
13377TIP3    H161546   6.413   5.598   1.647  1.1107  1.5442  1.0624
13377TIP3    H261547   6.268   5.641   1.642  0.5616 -0.3632 -0.9094
13378TIP3   OH261548   1.480   1.631  13.635  0.5102 -0.1410 -0.2283
13378TIP3    H161549   1.400   1.653  13.683 -0.9295 -3.0496 -1.0576
13378TIP3    H261550   1.506   1.713  13.592 -1.5433  1.0676  0.6951
13379TIP3   OH261551   4.760   6.130   3.805 -0.5910  0.0640  0.1596
13379TIP3    H161552   4.716   6.153   3.724  0.4656 -0.0913 -0.4733
13379TIP3    H261553   4.849   6.110   3.779 -0.7183 -1.9215  1.0670
13380TIP3   OH261554   2.498   2.691  15.257 -0.1385  0.3309  0.0547
13380TIP3    H161555   2.584   2.725  15.233 -0.1160  1.2573  1.3168
13380TIP3    H261556   2.514   2.640  15.337 -0.7659  0.5199  0.3101
13381TIP3   OH261557   1.498   4.560   5.125  0.2320  0.6353 -0.3744
13381TIP3    H161558   1.512   4.474   5.163  0.6717 -0.3579 -2.6037
13381TIP3    H261559   1.464   4.613   5.197  2.1793 -0.7153  1.6915
13382TIP3   OH261560   3.456   5.818   3.193  0.2201  0.6491 -0.7921
13382TIP3    H161561   3.428   5.844   3.105 -0.6774  2.0660 -0.1335
13382TIP3    H261562   3.376   5.825   3.246  1.3739  3.1441  0.8194
13383TIP3   OH261563   4.366   3.445  16.102 -0.1760  0.2140 -0.0999
13383TIP3    H161564   4.336   3.535  16.090 -1.1000 -0.2442 -1.4170
13383TIP3    H261565   4.450   3.442  16.056  0.8316  0.8690  1.5818
13384TIP3   OH261566   5.738   2.649  16.018 -0.3668 -0.2233 -0.1840
13384TIP3    H161567   5.807   2.626  15.955  0.3103  2.5214 -0.5984
13384TIP3    H261568   5.781   2.644  16.103 -0.3183 -0.7013 -0.2336
13385TIP3   OH261569   5.344   3.562   0.874  0.4007  0.1177 -0.0044
13385TIP3    H161570   5.333   3.584   0.967  1.8645 -0.1628  0.2491
13385TIP3    H261571   5.398   3.483   0.874 -2.0355 -1.6925 -1.0196
13386TIP3   OH261572   1.484   6.154  14.503 -0.4498 -0.0897  0.3705
13386TIP3    H161573   1.424   6.228  14.493 -0.4858 -0.1781 -0.0943
13386TIP3    H261574   1.504   6.128  14.414 -2.0038 -1.9156  0.4773
13387TIP3   OH261575   3.750   4.354   0.853  0.6830  0.6726  0.0751
13387TIP3    H161576   3.815   4.341   0.785  0.3313 -1.0854  0.0408
13387TIP3    H261577   3.711   4.268   0.867  1.1083  0.8114  2.8681
13388TIP3   OH261578   2.972   0.361   2.926  0.4360 -0.0339  0.0158
13388TIP3    H161579   2.936   0.275   2.906  2.0824 -0.5937 -0.6763
13388TIP3    H261580   3.066   0.347   2.933  0.5754  1.4064  1.6104
13389TIP3   OH261581   5.147   6.379  14.281  0.5475 -0.3245  0.0672
13389TIP3    H161582   5.135   6.456  14.338 -1.0658 -1.6364  1.6321
13389TIP3    H261583   5.240   6.359  14.288  0.2759 -1.0602  3.2358
13390TIP3   OH261584   3.488   5.895   2.247  0.0510 -0.2085 -0.0463
13390TIP3    H161585   3.550   5.957   2.209 -0.2671  0.2305  0.1384
13390TIP3    H261586   3.497   5.817   2.193  2.4996 -1.0457  1.3973
13391TIP3   OH261587   5.564   0.897  15.007 -0.2119  0.1498  0.4840
13391TIP3    H161588   5.490   0.940  14.963 -1.1059 -0.5080  1.3038
13391TIP3    H261589   5.524   0.844  15.076  0.9139 -1.4174 -0.0017
13392TIP3   OH261590   3.482   5.671  15.919  0.2350 -0.3231 -0.1149
13392TIP3    H161591   3.419   5.735  15.886 -1.5871 -1.5815  0.6916
13392TIP3    H261592   3.544   5.721  15.970 -0.7488  0.8852 -0.0619
13393TIP3   OH261593   2.551   4.864   5.001 -0.2842  0.3112  0.3730
13393TIP3    H161594   2.644   4.853   5.021  0.2511  2.1427 -0.8481
13393TIP3    H261595   2.530   4.952   5.031 -0.7452  1.1626 -2.1666
13394TIP3   OH261596   4.179   5.334  16.027  0.1171 -0.4189  0.1792
13394TIP3    H161597   4.167   5.303  15.937  0.6469 -0.9243  0.2761
13394TIP3    H261598   4.124   5.276  16.080 -0.6926  0.2792  0.1221
13395TIP3   OH261599   4.884   3.440   2.535 -0.1349  0.0593 -0.2171
13395TIP3    H161600   4.915   3.528   2.515 -0.2195  0.0929 -0.2008
13395TIP3    H261601   4.875   3.398   2.450 -0.6510  0.2558 -0.2643
13396TIP3   OH261602   1.944   1.748  12.734  0.6137  0.0978 -0.4243
13396TIP3    H161603   1.912   1.741  12.824  0.0582  0.2246 -0.6110
13396TIP3    H261604   1.871   1.718  12.680  0.6413  0.8357 -0.8756
13397TIP3   OH261605   0.785   3.358   2.198  0.0192  0.1195 -0.0717
13397TIP3    H161606   0.868   3.317   2.173  0.0024  0.0908 -0.0809
13397TIP3    H261607   0.798   3.451   2.181 -0.7673 -0.1143 -2.4128
13398TIP3   OH261608   2.440   4.699   4.578 -0.1739  0.5904  0.1799
13398TIP3    H161609   2.500   4.773   4.574 -0.5460  0.8848  0.0939
13398TIP3    H261610   2.415   4.694   4.671 -0.4892  0.8435  0.1097
13399TIP3   OH261611   0.319   6.373   5.298  0.0493  0.4453  0.2274
13399TIP3    H161612   0.241   6.416   5.333  0.2993  1.4726 -0.4380
13399TIP3    H261613   0.378   6.445   5.276  0.4170 -0.2222 -1.0714
13400TIP3   OH261614   2.365   4.232  11.425 -0.2425 -0.2927 -0.2203
13400TIP3    H161615   2.338   4.310  11.378  2.0666  0.7302  0.0031
13400TIP3    H261616   2.394   4.171  11.357 -0.3369 -0.2587 -0.2910
13401TIP3   OH261617   2.957   1.862  13.704  0.1265  0.1106  0.0752
13401TIP3    H161618   2.985   1.941  13.752  1.1184 -1.2267  1.8519
13401TIP3    H261619   2.875   1.836  13.746  0.5534 -0.5875  0.5034
13402TIP3   OH261620   1.589   3.099   1.518 -0.2836 -0.1793  0.1401
13402TIP3    H161621   1.561   3.054   1.439  0.8213 -2.3669  0.9123
13402TIP3    H261622   1.518   3.082   1.581 -0.4606  0.2625  0.0601
13403TIP3   OH261623   1.442   0.936   2.250  0.7904 -0.4262 -0.0130
13403TIP3    H161624   1.440   0.925   2.155  0.7299 -0.7339  0.0223
13403TIP3    H261625   1.535   0.930   2.273  0.8788  0.3484 -0.1277
13404TIP3   OH261626   3.886   6.022  12.343 -0.0649 -0.4051 -0.2100
13404TIP3    H161627   3.936   5.957  12.392  1.5616  0.2881 -0.8910
13404TIP3    H261628   3.868   5.980  12.259 -1.5519 -1.0237  0.3735
13405TIP3   OH261629   5.728   0.745  13.093 -0.1988 -0.2920  0.1719
13405TIP3    H161630   5.681   0.746  13.009  0.7853 -0.7169 -0.4078
13405TIP3    H261631   5.816   0.713  13.070  0.1593 -0.1670  1.3306
13406TIP3   OH261632   1.969   2.804   2.361  0.1522 -0.1621  0.0686
13406TIP3    H161633   2.054   2.819   2.403  0.0334  0.9311 -0.0298
13406TIP3    H261634   1.945   2.715   2.384  1.4568 -0.5750 -0.1349
13407TIP3   OH261635   5.247   5.595   3.325 -0.0352  0.3386  0.0125
13407TIP3    H161636   5.180   5.528   3.311 -0.2290  0.4313  0.4662
13407TIP3    H261637   5.317   5.549   3.372  0.0764  0.3245 -0.1644
13408TIP3   OH261638   2.811   1.967   5.005  0.0791 -0.7142  0.1940
13408TIP3    H161639   2.764   1.920   5.074  0.7460  0.7046  1.6859
13408TIP3    H261640   2.751   2.035   4.976 -0.1502 -1.2260 -0.5609
13409TIP3   OH261641   2.531   4.800  16.002  0.3610  0.1852 -0.0021
13409TIP3    H161642   2.609   4.747  15.986  0.5968  0.1791  1.1151
13409TIP3    H261643   2.543   4.878  15.946  2.3726  1.3625  1.8967
13410TIP3   OH261644   6.212   3.960   0.765  0.3608  0.2946 -0.6618
13410TIP3    H161645   6.124   3.979   0.798  0.3631  0.0438 -0.5142
13410TIP3    H261646   6.252   4.046   0.754  0.0207  0.4224 -0.9364
13411TIP3   OH261647   0.088   1.009   3.668  0.0560  0.8035 -0.2649
13411TIP3    H161648   0.176   1.046   3.677  1.0027 -1.3149 -0.2939
13411TIP3    H261649   0.070   0.965   3.751 -0.5538  0.3641 -0.6132
13412TIP3   OH261650   6.181   1.403  12.593 -0.1175  0.0685  0.2455
13412TIP3    H161651   6.104   1.448  12.558 -0.7172 -0.5433  0.7458
13412TIP3    H261652   6.148   1.319  12.624  0.6618 -0.0013  0.9351
13413TIP3   OH261653   0.654   6.411  16.304 -0.2904 -0.2295  0.2955
13413TIP3    H161654   0.729   6.449  16.351 -0.1778 -0.5830  0.4003
13413TIP3    H261655   0.654   6.456  16.220 -2.4740  2.8986  1.7684
13414TIP3   OH261656   2.615   6.554  13.537 -0.3857  0.0096  0.2045
13414TIP3    H161657   2.652   6.487  13.479 -2.6822 -2.2499  1.1758
13414TIP3    H261658   2.536   6.584  13.492 -1.3606 -0.6529  1.4441
13415TIP3   OH261659   2.037   4.726   2.780  0.5586  0.2339  0.1295
13415TIP3    H161660   2.049   4.759   2.869  1.1507 -0.4844  0.3280
13415TIP3    H261661   1.984   4.647   2.791  2.1272 -0.8713  0.0607
13416TIP3   OH261662   0.540   5.035  12.172  0.2980 -0.6993 -0.4550
13416TIP3    H161663   0.526   4.950  12.130  0.9100 -1.5975  1.0771
13416TIP3    H261664   0.555   5.014  12.264 -1.4919  1.2215  0.3713
13417TIP3   OH261665   5.637   0.020   6.226 -0.4944 -0.0508 -0.4816
13417TIP3    H161666   5.670   0.089   6.283 -0.1449 -0.8077  0.2518
13417TIP3    H261667   5.551   0.052   6.197 -0.1942  0.8368 -0.4322
13418TIP3   OH261668   0.870   5.830  15.079  0.6794 -0.6311 -0.0962
13418TIP3    H161669   0.821   5.790  15.008 -0.3912 -1.2359  0.9590
13418TIP3    H261670   0.849   5.924  15.074 -1.5973 -1.0092  1.0425
13419TIP3   OH261671   3.687   0.665   5.903 -0.5788  0.0318  0.1192
13419TIP3    H161672   3.721   0.705   5.983 -1.7671  0.9552  0.1861
13419TIP3    H261673   3.619   0.724   5.873 -0.3898 -0.4691 -1.4114
13420TIP3   OH261674   3.006   2.599  11.026 -0.3543  0.2264  0.3823
13420TIP3    H161675   2.940   2.600  10.956  1.1411 -0.3498 -1.0952
13420TIP3    H261676   3.026   2.507  11.039  0.6876  0.4305  0.3001
13421TIP3   OH261677   5.881   1.635   5.665  0.1992 -1.3209  0.7430
13421TIP3    H161678   5.815   1.691   5.706 -0.1717 -1.2738  0.1049
13421TIP3    H261679   5.900   1.568   5.730 -0.3422 -1.2181  1.0128
13422TIP3   OH261680   6.500   2.603   0.455  0.5078 -0.0364 -0.0660
13422TIP3    H161681   6.588   2.582   0.486  0.0527 -0.5255  0.9397
13422TIP3    H261682   6.512   2.625   0.362  1.6322 -0.4418 -0.0339
13423TIP3   OH261683   1.594   0.222   1.255  0.4776 -0.3530 -0.2773
13423TIP3    H161684   1.679   0.193   1.288  0.0812 -3.0888 -1.4402
13423TIP3    H261685   1.614   0.300   1.203  2.1914 -0.6189 -0.0629
13424TIP3   OH261686   3.551   1.908   2.844  0.1602 -0.2728 -0.3230
13424TIP3    H161687   3.591   1.968   2.907  0.9180  0.3605 -1.3605
13424TIP3    H261688   3.505   1.964   2.782 -0.2684 -0.8529 -0.5447
13425TIP3   OH261689   6.242   6.700  12.327  0.2286  0.5902 -0.5557
13425TIP3    H161690   6.155   6.677  12.292  0.2723 -0.0673 -0.2484
13425TIP3    H261691   6.267   6.624  12.380  2.5049 -0.7819 -3.3656
13426TIP3   OH261692   5.335   4.293   5.376  0.3053 -0.8069  0.2191
13426TIP3    H161693   5.274   4.284   5.303 -1.7923  0.8913  1.6118
13426TIP3    H261694   5.307   4.226   5.438 -0.9865  0.6576  1.3193
13427TIP3   OH261695   1.577   5.079  15.059 -0.4256  0.0939 -0.1016
13427TIP3    H161696   1.537   5.163  15.037 -0.6641 -0.2259 -0.9116
13427TIP3    H261697   1.654   5.074  15.003  0.7541  0.6792  1.4059
13428TIP3   OH261698   3.274   4.222  16.754 -0.1912  0.0800 -0.3258
13428TIP3    H161699   3.314   4.236  16.668 -0.4378 -0.3698 -0.5133
13428TIP3    H261700   3.185   4.193  16.735 -0.3168  0.1919  0.0834
13429TIP3   OH261701   2.459   0.879   5.117  0.3417 -0.2380 -0.1851
13429TIP3    H161702   2.474   0.887   5.211 -0.8563 -0.1138  0.0066
13429TIP3    H261703   2.547   0.873   5.080  0.8329 -0.3528  0.9410
13430TIP3   OH261704   4.817   2.504   4.743 -0.5791  0.4271 -0.1978
13430TIP3    H161705   4.740   2.516   4.800  1.3338 -0.4814  2.8385
13430TIP3    H261706   4.798   2.425   4.693 -1.3212 -0.2482  1.1064
13431TIP3   OH261707   4.551   1.071  10.922  0.3478 -0.7507 -0.5883
13431TIP3    H161708   4.635   1.069  10.968  0.7123 -0.4207 -1.2138
13431TIP3    H261709   4.494   1.125  10.976  0.3558 -1.4531  0.1366
13432TIP3   OH261710   1.903   3.759   0.596  0.0981 -0.2920  0.2747
13432TIP3    H161711   1.859   3.797   0.673 -2.2458 -0.5266 -0.8523
13432TIP3    H261712   1.935   3.834   0.547  0.2186 -0.0525  0.7223
13433TIP3   OH261713   3.905   3.728  12.515  0.2365  0.3311 -0.0737
13433TIP3    H161714   3.979   3.670  12.532  1.0526  1.1889 -0.5990
13433TIP3    H261715   3.832   3.669  12.496  1.5352 -0.5658 -2.6879
13434TIP3   OH261716   0.189   1.737  14.975 -0.4295 -0.7535 -0.3306
13434TIP3    H161717   0.179   1.663  15.034 -2.2072 -0.9388 -0.8144
13434TIP3    H261718   0.153   1.812  15.023 -0.9644 -0.7136 -0.7830
13435TIP3   OH261719   2.983   6.236  15.752 -0.0471  0.0680 -0.2390
13435TIP3    H161720   3.075   6.215  15.735 -0.0718  0.7224 -1.3386
13435TIP3    H261721   2.944   6.240  15.665 -0.8253  1.0643  0.1433
13436TIP3   OH261722   1.450   3.173   1.924 -0.0373  0.2801 -0.3817
13436TIP3    H161723   1.473   3.264   1.903  2.6959 -0.4902 -1.1425
13436TIP3    H261724   1.399   3.143   1.849 -1.3752  1.2838  0.0918
13437TIP3   OH261725   5.068   0.053  11.318 -0.0299  0.2873  0.0708
13437TIP3    H161726   5.032   0.100  11.243  0.1601 -1.2061 -0.9995
13437TIP3    H261727   4.992   0.012  11.359 -0.2711  1.8407  1.3135
13438TIP3   OH261728   3.537   2.724   6.113 -0.3581 -0.4797 -0.0353
13438TIP3    H161729   3.622   2.704   6.151  0.3146 -0.1979 -1.3647
13438TIP3    H261730   3.514   2.809   6.150  0.3479 -0.1516 -0.3413
13439TIP3   OH261731   0.540   5.029   1.224  0.1685  0.2611  0.2811
13439TIP3    H161732   0.454   5.012   1.185  1.2346  2.7719 -3.8096
13439TIP3    H261733   0.600   4.974   1.174  1.1892 -0.4365  2.1775
13440TIP3   OH261734   3.420   0.589  11.559  0.4650  0.7180 -0.4172
13440TIP3    H161735   3.482   0.635  11.615  0.3150  0.9088 -0.4095
13440TIP3    H261736   3.456   0.598  11.471  0.7639  0.3164 -0.3390
13441TIP3   OH261737   1.575   5.538   4.684  0.1160  0.4953 -0.2403
13441TIP3    H161738   1.662   5.543   4.644  0.2459  3.2284  0.1617
13441TIP3    H261739   1.522   5.492   4.619  1.4408  0.4463 -1.3539
13442TIP3   OH261740   1.699   0.464  15.802 -0.5512 -0.3081  0.1818
13442TIP3    H161741   1.787   0.427  15.797 -0.6184 -0.5524  0.7234
13442TIP3    H261742   1.700   0.516  15.882 -1.0915 -0.8325  0.5386
13443TIP3   OH261743   0.031   1.394   4.645 -0.2296 -0.4712  0.3449
13443TIP3    H161744  -0.002   1.474   4.685  1.4539 -0.4959  1.8787
13443TIP3    H261745   0.078   1.423   4.567 -1.4987 -0.2153 -0.3671
13444TIP3   OH261746   6.369   3.376  11.446 -1.3008 -0.1841 -0.1145
13444TIP3    H161747   6.299   3.340  11.500 -0.1401 -1.9789  0.2514
13444TIP3    H261748   6.335   3.371  11.357 -1.9321 -0.3015  0.1252
13445TIP3   OH261749   3.404   1.409  14.212 -0.1210  0.1952 -0.7556
13445TIP3    H161750   3.394   1.479  14.147 -0.4116  0.1916 -0.7172
13445TIP3    H261751   3.315   1.383  14.233 -0.0005 -0.7331 -1.3437
13446TIP3   OH261752   3.405   0.413   6.361  0.0523  0.3660 -0.0077
13446TIP3    H161753   3.462   0.427   6.437 -0.7104 -0.3499  0.7172
13446TIP3    H261754   3.458   0.363   6.300  0.1676 -0.4452  0.7336
13447TIP3   OH261755   5.219   1.722   1.387 -0.7180  0.1283 -0.0624
13447TIP3    H161756   5.161   1.685   1.321 -2.1240  1.3505  0.4353
13447TIP3    H261757   5.160   1.761   1.452  0.6490  0.7262  0.8737
13448TIP3   OH261758   5.483   0.615   3.450  0.2192  0.3525  0.3441
13448TIP3    H161759   5.458   0.690   3.503  2.5749  2.2431 -1.0142
13448TIP3    H261760   5.491   0.543   3.513 -1.4805  1.3360  1.7849
13449TIP3   OH261761   6.023   6.225  15.283  0.1379 -0.1176 -0.1445
13449TIP3    H161762   6.021   6.195  15.374  1.2068 -2.3355 -0.7633
13449TIP3    H261763   5.947   6.281  15.273 -0.7989 -0.9932  1.7440
13450TIP3   OH261764   5.370   2.232   5.903  0.2931 -0.0750  0.8079
13450TIP3    H161765   5.344   2.169   5.836  0.0897 -0.2053  1.0069
13450TIP3    H261766   5.304   2.301   5.899  0.7699  0.3584  0.2799
13451TIP3   OH261767   5.542   0.859  15.438  0.5206 -0.1405 -0.4855
13451TIP3    H161768   5.451   0.867  15.410  0.3794  2.5489  0.4193
13451TIP3    H261769   5.541   0.889  15.529  1.8216 -3.3879  0.7568
13452TIP3   OH261770   2.724   0.269   3.665  0.1926 -0.1498 -0.0019
13452TIP3    H161771   2.713   0.240   3.575  0.1397  0.8518 -0.3297
13452TIP3    H261772   2.650   0.231   3.713  0.3122 -0.8158 -0.3426
13453TIP3   OH261773   4.746   5.869  10.624 -0.4254 -0.8479 -0.3558
13453TIP3    H161774   4.756   5.794  10.682  0.2318 -0.2014  0.4044
13453TIP3    H261775   4.763   5.945  10.680 -0.2649 -0.1762 -1.2823
13454TIP3   OH261776   5.380   5.678  17.159 -0.3321  0.2936 -0.6738
13454TIP3    H161777   5.290   5.650  17.144 -0.8991  1.3401  0.5958
13454TIP3    H261778   5.395   5.663  17.253  0.8222  0.1302 -0.8673
13455TIP3   OH261779   5.423   1.852  16.987 -0.2252 -0.1348 -0.2478
13455TIP3    H161780   5.395   1.794  16.916 -1.5014 -0.5722  0.5909
13455TIP3    H261781   5.463   1.793  17.051  0.7122  0.2313 -0.4801
13456TIP3   OH261782   6.693   5.021   2.917  0.2333  0.2598 -0.0297
13456TIP3    H161783   6.611   5.010   2.869 -0.7312 -2.9867  2.0793
13456TIP3    H261784   6.756   4.965   2.872  0.5318  0.5400  0.0285
13457TIP3   OH261785   2.696   5.676  13.661 -0.0340  0.6901 -0.0745
13457TIP3    H161786   2.671   5.699  13.751  0.3816  0.7673  0.0240
13457TIP3    H261787   2.750   5.598  13.670 -0.5421  0.2999 -0.3199
13458TIP3   OH261788   3.613   6.103   0.051  0.6452 -0.2394 -0.3007
13458TIP3    H161789   3.522   6.121   0.028  0.2279 -2.2268 -0.3812
13458TIP3    H261790   3.639   6.177   0.106 -0.8769  0.5608 -0.6132
13459TIP3   OH261791   5.919   0.137   0.622  0.1844  0.0169 -0.0627
13459TIP3    H161792   5.843   0.194   0.627  0.8366  0.8080  1.6988
13459TIP3    H261793   5.888   0.060   0.574 -1.7263  0.3154  0.6021
13460TIP3   OH261794   2.889   0.381   0.745 -0.1227 -0.0901 -0.6545
13460TIP3    H161795   2.933   0.309   0.700  0.7134  0.2633 -0.4198
13460TIP3    H261796   2.902   0.457   0.688 -0.4894  0.0053 -0.6135
13461TIP3   OH261797   5.671   0.778  13.820  0.4366  0.6110  0.6273
13461TIP3    H161798   5.683   0.832  13.899  0.0380  0.9201  0.4783
13461TIP3    H261799   5.760   0.755  13.794  0.5677  0.4187  1.2300
13462TIP3   OH261800   4.582   6.555  10.744  0.4972  0.3015 -0.8831
13462TIP3    H161801   4.599   6.470  10.703  0.7519 -0.2543  0.3340
13462TIP3    H261802   4.494   6.548  10.779  0.4683  0.6001 -0.8911
13463TIP3   OH261803   5.936   6.207   5.547  0.4953 -0.0555 -0.4538
13463TIP3    H161804   5.883   6.151   5.490  0.9911 -2.5718  1.3476
13463TIP3    H261805   5.882   6.217   5.626  1.2170  0.3831 -0.0118
13464TIP3   OH261806   4.247   2.969  11.866  0.0569  0.1316  0.3609
13464TIP3    H161807   4.224   3.008  11.782  0.1618  0.9255  0.6915
13464TIP3    H261808   4.342   2.954  11.860 -0.0388 -0.4123  0.1050
13465TIP3   OH261809   5.700   1.332  17.155  0.1347  0.0702 -0.2264
13465TIP3    H161810   5.612   1.357  17.184 -0.3941 -0.0770 -1.6084
13465TIP3    H261811   5.754   1.408  17.177 -0.4799  0.4548  0.0109
13466TIP3   OH261812   2.640   3.334  13.603 -0.1346  0.0425 -1.1460
13466TIP3    H161813   2.708   3.366  13.544  1.9106 -0.4771  0.8057
13466TIP3    H261814   2.661   3.374  13.687  0.5720 -3.6445  0.6323
13467TIP3   OH261815   2.960   0.597   6.744  0.0652 -0.6361 -0.3973
13467TIP3    H161816   2.981   0.503   6.744  0.6405 -0.5123  0.2594
13467TIP3    H261817   3.041   0.640   6.771 -0.2546  0.0399 -0.4901
13468TIP3   OH261818   1.296   0.927   2.816  0.6282  0.0605 -0.1726
13468TIP3    H161819   1.243   0.905   2.740  0.6787 -0.5096 -0.0499
13468TIP3    H261820   1.274   0.860   2.881 -0.8319  1.5976  1.0145
13469TIP3   OH261821   1.872   2.236   0.460  0.0666 -0.0607 -0.3483
13469TIP3    H161822   1.796   2.267   0.509  0.5966 -0.0804  0.5133
13469TIP3    H261823   1.859   2.141   0.454 -0.9282  0.1418 -1.8972
13470TIP3   OH261824   3.155   4.888   4.025  0.1539 -0.2415 -0.0968
13470TIP3    H161825   3.115   4.903   3.939  0.5753 -1.9324 -0.6407
13470TIP3    H261826   3.083   4.897   4.087 -0.0272  1.6514 -0.5358
13471TIP3   OH261827   2.934   6.299  14.445  0.4545 -0.8728 -0.0002
13471TIP3    H161828   2.924   6.203  14.444  0.1095 -0.8361 -1.7250
13471TIP3    H261829   2.860   6.331  14.394  0.6110  0.3358  0.5071
13472TIP3   OH261830   0.306   0.868  13.821  0.0888  0.1427  0.4152
13472TIP3    H161831   0.293   0.961  13.836 -2.5872 -0.2537  1.0915
13472TIP3    H261832   0.305   0.828  13.908  0.2500 -0.6315  0.0780
13473TIP3   OH261833   1.323   4.450  16.816 -0.2801  0.0791  0.4987
13473TIP3    H161834   1.376   4.524  16.785  0.0813  0.3958  1.8116
13473TIP3    H261835   1.233   4.476  16.799 -0.0860  0.1294 -0.5055
13474TIP3   OH261836   5.527   2.084  15.338  0.3415 -0.3361 -0.5761
13474TIP3    H161837   5.604   2.138  15.356  1.8342 -2.2386 -0.9094
13474TIP3    H261838   5.524   2.021  15.410 -0.3658 -0.8551 -1.0364
13475TIP3   OH261839   1.717   2.986  14.482 -0.2530  0.1314  0.0257
13475TIP3    H161840   1.649   3.052  14.484 -2.2086 -1.7749  1.6961
13475TIP3    H261841   1.700   2.931  14.559  1.8282 -1.7440 -0.7242
13476TIP3   OH261842   3.210   2.963   0.095 -0.0870  0.2412  0.2497
13476TIP3    H161843   3.270   2.946   0.167  0.2056  2.3152  0.5710
13476TIP3    H261844   3.260   2.943   0.016  0.9799  1.7017  0.5225
13477TIP3   OH261845   5.906   4.097  14.790  0.8857 -0.3833 -0.3457
13477TIP3    H161846   5.940   4.187  14.792  0.1404 -0.1136  0.4778
13477TIP3    H261847   5.937   4.057  14.871 -0.6504 -0.1622  0.3739
13478TIP3   OH261848   2.528   3.175  11.648 -0.3284 -0.2047  0.3978
13478TIP3    H161849   2.532   3.090  11.691 -0.8648  0.0981  1.0485
13478TIP3    H261850   2.618   3.207  11.649  0.1832 -1.4114 -1.2070
13479TIP3   OH261851   0.407   5.059   0.820  0.2374  0.3921 -0.4171
13479TIP3    H161852   0.497   5.061   0.854 -0.4387 -1.1612  1.7062
13479TIP3    H261853   0.400   4.974   0.776 -0.5054 -0.0557  0.5179
13480TIP3   OH261854   6.470   6.207   4.294 -0.7026  0.1751 -0.2122
13480TIP3    H161855   6.487   6.120   4.259  1.0283  0.0318  0.8877
13480TIP3    H261856   6.467   6.264   4.216 -0.3543 -0.6274 -0.8208
13481TIP3   OH261857   0.839   4.370  15.534 -0.3792 -0.2431 -1.0371
13481TIP3    H161858   0.756   4.325  15.548 -0.1381 -1.0191 -1.9521
13481TIP3    H261859   0.902   4.299  15.521  0.5286  0.3164  0.1055
13482TIP3   OH261860   1.724   3.845  16.739 -0.4041 -0.4729 -0.8972
13482TIP3    H161861   1.713   3.868  16.832 -0.3964  0.1359 -1.0423
13482TIP3    H261862   1.635   3.830  16.708 -0.4471 -0.2162 -0.9035
13483TIP3   OH261863   5.937   5.480   2.346 -0.3387  0.3860 -0.0065
13483TIP3    H161864   5.992   5.547   2.306  2.2920 -1.3574  0.4526
13483TIP3    H261865   5.957   5.486   2.439 -2.3815  0.8779  0.4535
13484TIP3   OH261866   1.811   5.305  13.869 -0.0064 -0.1791  0.1344
13484TIP3    H161867   1.721   5.306  13.901  0.1612 -0.3941  0.6251
13484TIP3    H261868   1.827   5.214  13.845  0.1623 -0.1907  0.2884
13485TIP3   OH261869   1.318   2.737   2.330  0.5651 -0.4587 -0.6701
13485TIP3    H161870   1.271   2.657   2.353  0.8779 -0.8503 -1.3783
13485TIP3    H261871   1.409   2.710   2.320  0.6199 -0.0822 -1.2516
13486TIP3   OH261872   1.697   5.165   2.534 -0.0398 -0.3402 -0.1642
13486TIP3    H161873   1.790   5.148   2.518  0.0981  0.8689 -0.7845
13486TIP3    H261874   1.655   5.150   2.449 -0.0355  1.3730 -0.5093
13487TIP3   OH261875   1.202   1.839   2.221 -0.1069  0.7979 -0.4721
13487TIP3    H161876   1.110   1.828   2.196 -0.1145  1.1306 -0.5865
13487TIP3    H261877   1.251   1.809   2.145 -0.1134  0.2214 -0.2562
13488TIP3   OH261878   0.640   4.723  14.683  0.1816  0.0499 -0.0026
13488TIP3    H161879   0.559   4.672  14.683  0.2604 -0.0803  0.4248
13488TIP3    H261880   0.692   4.687  14.611  0.7767 -1.3466  1.0813
13489TIP3   OH261881   5.305   0.969   3.988  0.2187  0.3678  0.1544
13489TIP3    H161882   5.249   1.030   4.036  0.7700  0.9447  0.0701
13489TIP3    H261883   5.346   1.021   3.920  0.6987 -0.0940  0.0781
13490TIP3   OH261884   6.729   5.934   2.603 -0.8582 -0.1655  0.5121
13490TIP3    H161885   6.635   5.934   2.621 -1.0434 -3.0512  0.1155
13490TIP3    H261886   6.737   5.972   2.516 -1.6309  0.3297  0.6532
13491TIP3   OH261887   4.015   5.494   4.844  0.2127  0.4779  0.2789
13491TIP3    H161888   4.026   5.586   4.868  2.3927  0.0213  1.3050
13491TIP3    H261889   4.090   5.475   4.788 -0.6082 -0.4944 -0.5115
13492TIP3   OH261890   3.816   4.531   4.756 -0.9554 -0.2516 -0.6734
13492TIP3    H161891   3.778   4.447   4.730 -3.7132  0.4861  0.5644
13492TIP3    H261892   3.840   4.572   4.673 -0.3845 -1.8680 -1.3597
13493TIP3   OH261893   0.651   4.046   1.264 -0.3322 -0.1023  0.2199
13493TIP3    H161894   0.739   4.073   1.293  0.5959 -0.2617 -2.2198
13493TIP3    H261895   0.651   3.951   1.272 -1.1493  0.0152  2.3181
13494TIP3   OH261896   0.185   5.274  11.379  0.0099 -0.1352 -0.3252
13494TIP3    H161897   0.133   5.322  11.444 -0.3225  0.1583 -0.8060
13494TIP3    H261898   0.162   5.183  11.392  0.7392 -0.1983  0.6863
13495TIP3   OH261899   4.440   4.019   2.440 -0.2986  0.1257 -0.7346
13495TIP3    H161900   4.527   4.043   2.469  0.1017  0.6874 -2.2703
13495TIP3    H261901   4.435   3.925   2.453  0.8752 -0.0509 -1.3924
13496TIP3   OH261902   0.424   6.426   3.576  0.3910 -0.1537  0.4999
13496TIP3    H161903   0.408   6.503   3.631  4.8381  1.1643  0.3819
13496TIP3    H261904   0.453   6.359   3.637  4.6012  1.0803  0.1772
13497TIP3   OH261905   0.638   4.780   4.233  0.2745 -0.2622 -0.2089
13497TIP3    H161906   0.581   4.795   4.157 -0.8225  1.1619  0.8280
13497TIP3    H261907   0.718   4.744   4.196 -0.0957  0.7161 -2.1018
13498TIP3   OH261908   5.044   4.141  16.433 -0.4014 -0.0044  0.1036
13498TIP3    H161909   5.063   4.099  16.349  0.1166  2.6155 -1.1965
13498TIP3    H261910   5.071   4.077  16.498  1.3915 -1.2518 -1.7221
13499TIP3   OH261911   0.841   1.521  14.114 -0.2158 -0.2531  0.1866
13499TIP3    H161912   0.892   1.592  14.153 -0.6067 -0.3747  0.9406
13499TIP3    H261913   0.786   1.563  14.049  0.7534 -0.1019 -0.5707
13500TIP3   OH261914   3.096   0.589  14.705 -0.1867  0.0686 -0.1678
13500TIP3    H161915   3.098   0.615  14.797  0.9037  1.4370 -0.5461
13500TIP3    H261916   3.118   0.496  14.707  0.4017  0.2050  0.9315
13501TIP3   OH261917   2.843   1.924   1.667  0.2059  0.6056  0.1362
13501TIP3    H161918   2.856   1.879   1.750 -2.0158  0.0856  0.2791
13501TIP3    H261919   2.921   1.904   1.616  1.8411  1.3121  2.2088
13502TIP3   OH261920   4.047   4.857   0.675 -0.5735  0.6742  0.0025
13502TIP3    H161921   3.996   4.915   0.618  0.1598 -0.3264 -1.7775
13502TIP3    H261922   4.138   4.883   0.660 -0.2622 -0.6794 -0.5879
13503TIP3   OH261923   3.026   5.818  10.950 -0.0220  0.2297  0.0282
13503TIP3    H161924   2.979   5.781  11.025  0.7584  1.8971  1.4213
13503TIP3    H261925   2.989   5.773  10.874  0.6855 -3.1212  1.5010
13504TIP3   OH261926   2.561   1.856   2.413  0.0068 -0.0654 -0.0507
13504TIP3    H161927   2.565   1.947   2.384 -1.1810 -0.6556 -2.3424
13504TIP3    H261928   2.652   1.826   2.411  0.3294  0.8818  0.0845
13505TIP3   OH261929   1.242   3.838  11.338 -0.0695 -0.0888  0.4200
13505TIP3    H161930   1.203   3.925  11.328  0.3086  0.2884  1.9784
13505TIP3    H261931   1.194   3.783  11.276 -0.6137  1.1297 -0.2709
13506TIP3   OH261932   1.517   5.296  16.637 -0.6809 -0.2528  0.1998
13506TIP3    H161933   1.573   5.248  16.575 -0.9814 -1.3754  0.7737
13506TIP3    H261934   1.450   5.337  16.581  0.1010  0.2483 -0.3865
13507TIP3   OH261935   0.279   2.982  14.680 -0.7854 -0.0077 -0.7807
13507TIP3    H161936   0.238   3.058  14.723  1.6507  0.9315  0.0580
13507TIP3    H261937   0.367   2.979  14.717 -0.3727 -2.4805 -1.8065
13508TIP3   OH261938   4.153   5.829  12.052  0.1453 -0.1220 -0.1098
13508TIP3    H161939   4.068   5.830  12.095 -0.1706 -0.0003 -0.7305
13508TIP3    H261940   4.138   5.872  11.968  0.8743  0.1160 -0.1259
13509TIP3   OH261941   4.842   0.768   4.075 -0.1428  0.0734 -0.1757
13509TIP3    H161942   4.837   0.672   4.079  0.8081  0.0417  1.7856
13509TIP3    H261943   4.767   0.798   4.127  1.3355  0.2666  1.9701
13510TIP3   OH261944   2.715   5.606  16.928 -0.0665 -0.1345  0.1011
13510TIP3    H161945   2.801   5.643  16.945  0.1729 -0.8573  0.4995
13510TIP3    H261946   2.679   5.585  17.015 -0.2429 -0.7136 -0.1043
13511TIP3   OH261947   4.480   3.505   5.021  0.6504 -0.0723 -0.5469
13511TIP3    H161948   4.524   3.520   4.938  2.1910  1.3790  0.4702
13511TIP3    H261949   4.434   3.587   5.038 -0.6381 -0.7768 -0.4965
13512TIP3   OH261950   1.820   6.354  15.783 -0.2957 -0.1671  0.1165
13512TIP3    H161951   1.780   6.267  15.791 -0.2121 -0.4450 -1.9057
13512TIP3    H261952   1.911   6.336  15.761  0.0671  0.4530  1.0769
13513TIP3   OH261953   1.907   3.120   2.043 -0.2334  0.4466  0.2964
13513TIP3    H161954   1.926   3.146   1.953  1.4339  1.8376  0.9881
13513TIP3    H261955   1.984   3.069   2.070 -0.1780  1.0317  1.2879
13514TIP3   OH261956   0.870   2.279  11.538  0.2656 -0.3066  0.3661
13514TIP3    H161957   0.860   2.359  11.589 -0.7335 -1.6581  2.3938
13514TIP3    H261958   0.860   2.308  11.447 -0.3838  1.8098  1.0529
13515TIP3   OH261959   5.849   4.533   3.322  0.7025 -0.3044  0.0574
13515TIP3    H161960   5.888   4.475   3.388  1.1372 -1.3353 -1.0589
13515TIP3    H261961   5.762   4.497   3.308  0.2879  0.4384  0.6833
13516TIP3   OH261962   6.415   0.153   5.245  0.1616 -0.4221 -0.0108
13516TIP3    H161963   6.503   0.128   5.273  0.0873  0.4631  1.1057
13516TIP3    H261964   6.386   0.082   5.188  0.3542 -2.3556  2.1696
13517TIP3   OH261965   4.036   0.568  15.599 -0.0439 -0.1828 -0.3576
13517TIP3    H161966   3.955   0.617  15.614 -0.1672  0.0299 -1.6017
13517TIP3    H261967   4.021   0.483  15.642  0.9001  1.3845  3.5477
13518TIP3   OH261968   2.425   1.994   3.320  0.5285 -0.1343  0.2282
13518TIP3    H161969   2.339   1.991   3.360  0.7664 -0.2142  0.7421
13518TIP3    H261970   2.486   1.996   3.394  0.9739 -0.3294 -0.1285
13519TIP3   OH261971   1.256   3.142   5.024 -0.0942  0.3723  0.1281
13519TIP3    H161972   1.270   3.057   4.982  0.9203  1.0614 -1.0006
13519TIP3    H261973   1.176   3.130   5.075 -0.2445 -1.1146 -0.3933
13520TIP3   OH261974   5.835   1.641   1.828 -0.3305  0.1847 -0.2534
13520TIP3    H161975   5.924   1.673   1.812  0.3219 -0.8371  1.1213
13520TIP3    H261976   5.842   1.546   1.823 -1.5750  0.1050 -1.1168
13521TIP3   OH261977   3.332   3.837   3.253  0.1166 -0.4950 -0.4416
13521TIP3    H161978   3.367   3.787   3.178 -0.5251 -1.8490  0.1195
13521TIP3    H261979   3.366   3.791   3.330 -0.6939 -0.2087  0.0959
13522TIP3   OH261980   1.181   2.116   1.126  0.2998  0.0254  0.5298
13522TIP3    H161981   1.261   2.162   1.102  0.2821 -0.3370 -0.2669
13522TIP3    H261982   1.188   2.103   1.221  1.8308 -1.1809  0.2926
13523TIP3   OH261983   2.872   0.785  15.327 -0.0893  0.6672 -0.4749
13523TIP3    H161984   2.815   0.736  15.267 -1.0219  1.0123  0.1151
13523TIP3    H261985   2.908   0.719  15.386 -2.4772  0.8070  1.2460
13524TIP3   OH261986   2.162   0.780   2.718 -0.1740  0.3558  0.0845
13524TIP3    H161987   2.212   0.798   2.797  1.2977 -1.2616 -0.3965
13524TIP3    H261988   2.141   0.687   2.724 -0.0058  0.1875 -1.3990
13525TIP3   OH261989   4.185   0.645   0.442 -0.0671 -0.2522 -0.5944
13525TIP3    H161990   4.170   0.610   0.530 -0.2090  0.0287 -0.5060
13525TIP3    H261991   4.203   0.738   0.456  0.6535 -0.3516 -0.7943
13526TIP3   OH261992   5.348   4.768  15.459  0.4511  0.2177 -0.7852
13526TIP3    H161993   5.378   4.859  15.448 -0.1632  0.4244 -0.8016
13526TIP3    H261994   5.349   4.731  15.371 -0.4184  0.5786 -0.9655
13527TIP3   OH261995   6.547   2.970  15.244 -0.1755 -0.7146  0.8159
13527TIP3    H161996   6.578   2.954  15.154  1.3147 -0.8241  1.3197
13527TIP3    H261997   6.534   2.883  15.281 -2.7388 -0.7111  0.1306
13528TIP3   OH261998   2.160   5.940   1.053  0.0803 -0.0672 -0.7321
13528TIP3    H161999   2.188   6.006   0.989 -0.3636 -1.3990 -2.3790
13528TIP3    H262000   2.064   5.938   1.045  0.1092 -1.0916 -0.9137
13529TIP3   OH262001   3.657   1.498  16.855  0.3893  0.0372 -0.9754
13529TIP3    H162002   3.638   1.589  16.876 -0.1567  0.0637 -1.5383
13529TIP3    H262003   3.717   1.469  16.924  2.3184  1.4437 -1.9824
13530TIP3   OH262004   1.678   3.160  14.152  0.5632  0.2466  0.0512
13530TIP3    H162005   1.618   3.213  14.204 -1.1401 -0.4815 -1.0797
13530TIP3    H262006   1.708   3.218  14.082  0.5181  0.3724  0.1367
13531TIP3   OH262007   2.005   1.458  14.164 -0.4091  0.1311 -0.0264
13531TIP3    H162008   1.926   1.512  14.165 -0.3172  0.3155 -0.9246
13531TIP3    H262009   2.077   1.522  14.170 -0.3227 -0.0225  0.6189
13532TIP3   OH262010   1.474   5.298   3.975 -0.3950 -0.2763 -0.4363
13532TIP3    H162011   1.403   5.286   4.038 -1.1015  0.0491 -1.1585
13532TIP3    H262012   1.482   5.213   3.932  0.5191 -0.6921  0.5143
13533TIP3   OH262013   3.457   3.582   1.307 -0.1700 -0.1003  0.5758
13533TIP3    H162014   3.422   3.558   1.221 -1.8330 -0.2177  1.2428
13533TIP3    H262015   3.380   3.584   1.364  0.9817 -0.8104  2.2423
13534TIP3   OH262016   4.818   5.049   3.243 -0.4039  0.5501  0.1601
13534TIP3    H162017   4.865   5.066   3.324  1.0361  0.7737 -0.6982
13534TIP3    H262018   4.774   4.965   3.259 -0.2159  0.6359  1.1984
13535TIP3   OH262019   0.633   0.742   1.675 -0.3964  0.2502 -0.3084
13535TIP3    H162020   0.596   0.788   1.600 -1.0333 -0.6386 -0.5673
13535TIP3    H262021   0.559   0.731   1.735 -0.9057 -2.4278 -1.2630
13536TIP3   OH262022   6.505   0.757  12.584  0.3252 -0.6743 -0.3992
13536TIP3    H162023   6.493   0.849  12.608  3.2300  0.1338 -1.6208
13536TIP3    H262024   6.437   0.741  12.519 -0.0558  0.6977 -0.3860
13537TIP3   OH262025   6.611   6.434  12.716  0.5024  0.1748  0.1420
13537TIP3    H162026   6.698   6.466  12.693  0.0839  0.5057 -1.0521
13537TIP3    H262027   6.622   6.339  12.725  1.2729  0.3632  1.4565
13538TIP3   OH262028   5.962   4.020  15.538 -0.0235 -0.2653  0.0608
13538TIP3    H162029   5.912   4.099  15.518 -0.1374 -0.2055  0.5649
13538TIP3    H262030   5.916   3.950  15.492  1.5915  0.3063 -2.6713
13539TIP3   OH262031   4.410   1.551  12.642  0.0210 -0.2124 -0.5413
13539TIP3    H162032   4.357   1.575  12.566  0.9555  1.1723 -0.7929
13539TIP3    H262033   4.434   1.460  12.626 -1.5089 -0.5853 -0.8573
13540TIP3   OH262034   6.551   3.562  15.995  0.1050  0.0571 -0.0897
13540TIP3    H162035   6.623   3.575  15.933 -0.3846 -1.0136 -0.9129
13540TIP3    H262036   6.591   3.572  16.081  0.9258  0.9662 -0.5543
13541TIP3   OH262037   0.236   1.140   3.872  0.3494 -0.0855 -0.0468
13541TIP3    H162038   0.191   1.061   3.902  0.4342 -0.4753 -0.9120
13541TIP3    H262039   0.221   1.204   3.941 -1.0386 -0.3857 -0.0504
13542TIP3   OH262040   5.601   4.869   0.180 -0.1230 -0.1992 -0.9359
13542TIP3    H162041   5.520   4.902   0.219 -0.0866  0.0756 -1.0875
13542TIP3    H262042   5.617   4.786   0.225  0.2674  0.4106  0.1135
13543TIP3   OH262043   5.818   1.499   6.292 -0.3873  0.7948  0.2677
13543TIP3    H162044   5.852   1.516   6.204 -1.6320 -0.0400 -0.3923
13543TIP3    H262045   5.844   1.408   6.310 -0.8171  0.7078  0.4433
13544TIP3   OH262046   4.168   4.547   4.941  0.0029 -0.3202 -0.9054
13544TIP3    H162047   4.121   4.624   4.909  1.7805  1.1552 -0.1584
13544TIP3    H262048   4.243   4.538   4.883  1.2277  0.1262  0.5372
13545TIP3   OH262049   0.924   4.567  11.715  0.0819  0.3352  1.1534
13545TIP3    H162050   0.877   4.638  11.759  0.0055  2.2399 -1.7269
13545TIP3    H262051   1.015   4.576  11.745 -0.0432  1.2780  1.2922
13546TIP3   OH262052   2.010   4.923  10.872  0.1275 -0.8665 -0.1777
13546TIP3    H162053   1.960   4.997  10.907  0.7172 -0.3239 -0.4584
13546TIP3    H262054   2.075   4.963  10.814 -0.1203 -1.6772 -1.0402
13547TIP3   OH262055   5.340   3.210   0.018 -0.1939 -0.1265  0.2083
13547TIP3    H162056   5.261   3.160  -0.002  0.4403 -0.2559 -2.2420
13547TIP3    H262057   5.367   3.247  -0.066  1.0689  1.8603  1.4061
13548TIP3   OH262058   0.264   2.065   3.620 -0.4852  0.5625 -0.4633
13548TIP3    H162059   0.285   1.982   3.664  1.0804 -0.3947 -2.8095
13548TIP3    H262060   0.286   2.132   3.684 -0.6554 -0.7753  1.0728
13549TIP3   OH262061   0.146   1.572   5.572 -0.2073 -0.3759  0.0728
13549TIP3    H162062   0.112   1.524   5.647 -4.2513 -2.0775 -2.5371
13549TIP3    H262063   0.137   1.664   5.597 -1.1284 -0.8854  1.8011
13550TIP3   OH262064   0.592   3.706  13.503  0.3811 -0.4355  0.3324
13550TIP3    H162065   0.579   3.613  13.524 -0.4721 -0.5893 -0.7459
13550TIP3    H262066   0.685   3.714  13.485  0.8313 -0.6507  2.3526
13551TIP3   OH262067   4.670   6.195   0.827  0.1205 -1.0227 -0.0452
13551TIP3    H162068   4.601   6.135   0.855 -0.4332 -1.0514 -1.4012
13551TIP3    H262069   4.751   6.144   0.834 -0.1452 -1.3989  0.3361
13552TIP3   OH262070   6.602   5.664  15.195  0.0653 -0.0671  0.0063
13552TIP3    H162071   6.573   5.581  15.232  0.7429  0.1527  1.0874
13552TIP3    H262072   6.633   5.642  15.107 -3.3727 -0.2968 -1.3259
13553TIP3   OH262073   1.034   5.487   2.223 -0.1009 -0.0858  0.1645
13553TIP3    H162074   1.086   5.410   2.246 -0.0837 -0.0372  0.2867
13553TIP3    H262075   0.943   5.462   2.240 -0.0853 -0.0388  0.3116
13554TIP3   OH262076   5.479   2.205  14.792 -0.1561  0.1607  0.3068
13554TIP3    H162077   5.472   2.145  14.718 -0.6937  0.8376 -0.2034
13554TIP3    H262078   5.569   2.194  14.823  0.0684 -0.1458 -0.4270
13555TIP3   OH262079   1.817   3.521  14.755 -0.1836 -0.0443  0.0052
13555TIP3    H162080   1.778   3.599  14.795  0.9864  1.7203 -2.0972
13555TIP3    H262081   1.856   3.473  14.829 -1.2452  1.1439  1.3927
13556TIP3   OH262082   6.353   1.916   5.003  0.5655 -0.2792 -0.0827
13556TIP3    H162083   6.268   1.959   5.017  0.6695 -0.2702  0.5813
13556TIP3    H262084   6.370   1.926   4.910 -0.0741 -0.1077 -0.1902
13557TIP3   OH262085   6.184   5.318   2.467 -0.8098 -0.0049 -0.8121
13557TIP3    H162086   6.190   5.401   2.514 -0.3939  0.0008 -0.8781
13557TIP3    H262087   6.160   5.343   2.377 -2.2009 -0.0490 -0.4863
13558TIP3   OH262088   4.075   3.184  15.434 -0.5524 -0.1379 -0.1127
13558TIP3    H162089   4.108   3.208  15.521 -0.9036 -2.4260  0.7380
13558TIP3    H262090   4.111   3.250  15.375 -1.1292  2.0772  1.8846
13559TIP3   OH262091   2.589   1.403  12.588 -0.0890  0.1203  0.3198
13559TIP3    H162092   2.566   1.439  12.503 -0.6776  0.0112  0.4303
13559TIP3    H262093   2.665   1.454  12.616 -1.1023  1.4904  0.6151
13560TIP3   OH262094   4.721   5.326   3.472 -0.0959  0.5705 -0.4110
13560TIP3    H162095   4.704   5.403   3.418 -0.6773 -0.3568 -1.5948
13560TIP3    H262096   4.635   5.284   3.482  0.0288  0.6214  1.1122
13561TIP3   OH262097   5.569   4.132  12.342 -0.3243  0.0817  0.3424
13561TIP3    H162098   5.519   4.207  12.311  0.5728  0.2970 -0.6277
13561TIP3    H262099   5.570   4.141  12.437 -0.6585  1.0188  0.2582
13562TIP3   OH262100   5.206   0.498   4.478 -0.4741 -0.0130  0.5465
13562TIP3    H162101   5.260   0.422   4.457  0.5202  0.3768  1.6273
13562TIP3    H262102   5.253   0.543   4.548  0.8444  3.5298 -2.2606
13563TIP3   OH262103   0.241   1.069   0.791 -0.0762  0.0893  0.1352
13563TIP3    H162104   0.195   1.130   0.849  0.2086 -0.6072  1.1201
13563TIP3    H262105   0.173   1.035   0.733 -0.8183 -0.8744  1.5246
13564TIP3   OH262106   1.178   2.590   2.668  0.2472 -0.4629 -0.2115
13564TIP3    H162107   1.170   2.540   2.750 -2.2135 -0.7816 -0.5698
13564TIP3    H262108   1.116   2.662   2.678  2.4946  1.6499 -0.4226
13565TIP3   OH262109   1.206   0.195  10.543  0.7472  0.2724 -0.2220
13565TIP3    H162110   1.260   0.129  10.500  0.5473  1.8833 -3.2130
13565TIP3    H262111   1.269   0.251  10.590  1.1351 -0.6535  0.3870
13566TIP3   OH262112   2.847   6.221  12.472 -0.7981  0.4057  0.3611
13566TIP3    H162113   2.802   6.244  12.391  0.0509  0.7796 -0.0162
13566TIP3    H262114   2.940   6.235  12.453 -0.3544 -1.8358  0.6022
13567TIP3   OH262115   5.384   5.692   3.000  0.1801  0.4432  0.5252
13567TIP3    H162116   5.325   5.729   3.066 -1.2571 -1.3648  0.3346
13567TIP3    H262117   5.391   5.600   3.023 -1.2196 -0.5231 -2.3521
13568TIP3   OH262118   4.090   5.524   4.080  0.2261 -0.3133  0.3597
13568TIP3    H162119   4.175   5.561   4.104  0.0219  0.8903 -0.6688
13568TIP3    H262120   4.092   5.518   3.985 -1.5261  1.6271  0.1223
13569TIP3   OH262121   0.682   1.079  14.280 -0.3394 -0.1701 -0.1331
13569TIP3    H162122   0.597   1.075  14.323  0.4194  1.6635  1.7291
13569TIP3    H262123   0.689   1.169  14.249  1.3976  0.0863  0.8736
13570TIP3   OH262124   6.075   6.100   3.320 -0.0892  0.0172  0.0505
13570TIP3    H162125   6.131   6.115   3.244 -1.9221  0.5932 -1.2318
13570TIP3    H262126   6.136   6.073   3.389  1.6022 -0.7365 -1.6525
13571TIP3   OH262127   2.604   2.445   1.131  0.2052 -0.0960 -0.2197
13571TIP3    H162128   2.561   2.437   1.046 -0.1553  2.2319 -0.3237
13571TIP3    H262129   2.683   2.496   1.114  0.1822  0.3191  0.8320
13572TIP3   OH262130   3.495   2.623   1.906  0.6587  0.8141  0.0318
13572TIP3    H162131   3.471   2.570   1.830 -1.1816  0.9893  0.4522
13572TIP3    H262132   3.483   2.713   1.878 -0.6726  0.8664  0.7022
13573TIP3   OH262133   3.252   5.407   1.892 -0.8575 -0.0662 -0.1510
13573TIP3    H162134   3.182   5.459   1.853 -1.4651 -1.6537 -1.2505
13573TIP3    H262135   3.319   5.402   1.824  0.4669  1.5777  0.9474
13574TIP3   OH262136   6.300   6.570  15.072  0.4885  0.1632 -0.0060
13574TIP3    H162137   6.288   6.663  15.054 -1.4611 -0.5202 -2.8837
13574TIP3    H262138   6.389   6.552  15.045  0.9025  1.1721  0.6204
13575TIP3   OH262139   3.437   2.123   6.154 -0.1888  0.2447 -0.7403
13575TIP3    H162140   3.403   2.045   6.109  0.7503  0.7795 -2.4947
13575TIP3    H262141   3.527   2.100   6.177 -0.8090 -0.1888  1.3797
13576TIP3   OH262142   2.394   1.018   3.447  0.2258 -0.1488  0.0500
13576TIP3    H162143   2.307   0.984   3.429 -0.9545  2.2951  0.7698
13576TIP3    H262144   2.425   0.965   3.521 -0.8534 -0.7042  0.1296
13577TIP3   OH262145   1.312   4.585  15.165  0.0877 -0.2086 -0.0555
13577TIP3    H162146   1.276   4.632  15.089 -0.3705 -2.1853 -1.1524
13577TIP3    H262147   1.263   4.618  15.240  0.1501  1.3923 -0.6846
13578TIP3   OH262148   3.574   0.554  12.045 -0.0264 -0.4068 -0.1606
13578TIP3    H162149   3.646   0.598  12.090  1.0748 -0.6359 -1.6243
13578TIP3    H262150   3.615   0.514  11.968 -1.2553 -2.7289  0.3086
13579TIP3   OH262151   2.676   1.182   2.409 -0.1153  0.2034 -0.5635
13579TIP3    H162152   2.678   1.271   2.372 -1.6070  0.3125 -0.4543
13579TIP3    H262153   2.751   1.138   2.370  1.0128  1.6873 -0.1611
13580TIP3   OH262154   4.475   1.442  15.796 -0.5804  0.5039 -0.4728
13580TIP3    H162155   4.476   1.398  15.711  1.4020  0.0853 -0.2940
13580TIP3    H262156   4.549   1.503  15.792 -0.5463  0.5875  0.8737
13581TIP3   OH262157   0.784   1.312   4.080 -0.6915  0.4097  0.0214
13581TIP3    H162158   0.757   1.402   4.098 -0.6127  0.0655  2.1244
13581TIP3    H262159   0.832   1.286   4.159  0.1826 -1.1369 -0.9782
13582TIP3   OH262160   3.541   5.991  11.932 -0.1941  0.5575  0.0801
13582TIP3    H162161   3.595   6.054  11.885  0.0739  1.8808  2.0287
13582TIP3    H262162   3.468   5.973  11.873 -0.0902  2.4462 -0.7002
13583TIP3   OH262163   4.219   2.862  11.341  0.2134  0.1414 -0.0560
13583TIP3    H162164   4.249   2.867  11.431  0.4313 -1.4720 -0.0153
13583TIP3    H262165   4.243   2.774  11.312 -0.0646  0.5455 -1.6133
13584TIP3   OH262166   2.086   6.778  12.339 -0.5930 -0.4809 -0.3481
13584TIP3    H162167   2.164   6.799  12.389 -0.6855 -1.2171  0.1202
13584TIP3    H262168   2.017   6.832  12.377 -0.3964 -0.1061 -0.5189
13585TIP3   OH262169   5.720   4.546   2.873 -0.0498 -0.0875  0.1402
13585TIP3    H162170   5.763   4.599   2.806 -1.3279 -1.1838 -1.6487
13585TIP3    H262171   5.791   4.499   2.916  0.7807  0.3762 -0.6926
13586TIP3   OH262172   1.153   5.765  15.638 -0.4961  0.2550  0.0893
13586TIP3    H162173   1.154   5.854  15.603 -0.4252  0.3646  0.3643
13586TIP3    H262174   1.245   5.738  15.638 -0.5674  0.0050 -0.4340
13587TIP3   OH262175   5.745   4.755   1.784 -0.3135  0.2986 -0.1123
13587TIP3    H162176   5.833   4.769   1.820 -0.5333  2.1079 -0.1925
13587TIP3    H262177   5.706   4.689   1.842  0.9112 -0.1884  0.2041
13588TIP3   OH262178   1.436   2.113  12.419 -0.1329  0.2641  0.7935
13588TIP3    H162179   1.344   2.086  12.424 -1.0115  2.7827  0.1052
13588TIP3    H262180   1.443   2.184  12.482  0.5304  2.0146 -1.1215
13589TIP3   OH262181   0.100   1.852  16.074  0.1331 -0.2360 -0.2248
13589TIP3    H162182   0.146   1.816  16.150  0.7207  0.5791 -0.1860
13589TIP3    H262183   0.168   1.894  16.022 -0.5774  1.1236 -0.0999
13590TIP3   OH262184   4.052   3.539   0.326  0.0040 -0.0545  0.1206
13590TIP3    H162185   4.077   3.559   0.236  0.2516  1.0996  0.4341
13590TIP3    H262186   3.977   3.479   0.317  0.2813 -0.2730 -0.8415
13591TIP3   OH262187   6.393   4.919  15.457  0.1850  0.0830  0.3582
13591TIP3    H162188   6.346   4.884  15.381  0.9873  2.0147 -1.1038
13591TIP3    H262189   6.428   4.842  15.501  0.6546 -1.0455 -1.8718
13592TIP3   OH262190   2.872   5.306   5.366 -0.3295 -0.2527  0.3144
13592TIP3    H162191   2.889   5.400   5.359 -1.7630 -0.0972 -3.5305
13592TIP3    H262192   2.796   5.299   5.424 -0.4343  0.9836  0.3425
13593TIP3   OH262193   0.009   4.803  15.307 -0.1582  0.2298 -0.3224
13593TIP3    H162194   0.068   4.870  15.343 -1.8147  1.3037  0.5165
13593TIP3    H262195  -0.004   4.741  15.379  0.1972 -0.1969 -0.6185
13594TIP3   OH262196   1.729   5.155  14.407 -0.3534  0.1562 -0.0447
13594TIP3    H162197   1.699   5.118  14.324  1.0152  1.0320 -0.9775
13594TIP3    H262198   1.749   5.246  14.387  0.5907  0.2232  1.0864
13595TIP3   OH262199   0.091   0.129   6.441  0.3838  0.8426 -0.1087
13595TIP3    H162200   0.022   0.080   6.487 -0.5422 -1.2496 -3.3701
13595TIP3    H262201   0.170   0.113   6.492 -0.9608  0.7992  2.0820
13596TIP3   OH262202   0.003   6.324  11.563  0.1445 -0.6846  0.3451
13596TIP3    H162203  -0.073   6.372  11.596 -0.5099 -0.9063 -0.7772
13596TIP3    H262204   0.001   6.339  11.468  0.4665 -2.1427  0.0878
13597TIP3   OH262205   4.573   1.033   4.526  0.2677  0.3442 -0.0349
13597TIP3    H162206   4.645   1.092   4.549 -0.6364  1.2764  0.4561
13597TIP3    H262207   4.513   1.038   4.600 -0.2362 -0.5670 -0.3622
13598TIP3   OH262208   4.354   1.009  11.873  0.4703  0.2971  0.6417
13598TIP3    H162209   4.442   1.044  11.887  1.9662 -2.3750 -1.0682
13598TIP3    H262210   4.336   1.025  11.781 -0.7231  0.4632  0.8819
13599TIP3   OH262211   0.616   2.825  14.896  0.1622 -0.9240 -0.2861
13599TIP3    H162212   0.704   2.795  14.874  0.0240 -0.9415 -0.8446
13599TIP3    H262213   0.567   2.818  14.813 -0.5491 -1.5628  0.1680
13600TIP3   OH262214   5.578   6.286   1.131  0.6591  0.5567  0.1921
13600TIP3    H162215   5.639   6.227   1.087 -0.7225 -0.6456 -0.1737
13600TIP3    H262216   5.531   6.230   1.192 -0.5891  1.3111 -0.0560
13601TIP3   OH262217   1.923   1.871   2.434  0.1652 -0.6192 -0.2274
13601TIP3    H162218   1.948   1.787   2.472  1.7958 -1.9189 -3.7414
13601TIP3    H262219   2.005   1.920   2.429 -0.4415  0.4445  0.0669
13602TIP3   OH262220   0.141   6.718  16.959 -0.3733  0.0305  0.2946
13602TIP3    H162221   0.053   6.712  16.921 -2.0823 -0.0857  3.8884
13602TIP3    H262222   0.182   6.634  16.937 -0.7064  0.4419 -2.2194
13603TIP3   OH262223   1.969   5.160  14.977  0.0028 -0.3658  0.2508
13603TIP3    H162224   1.926   5.104  15.041 -0.1665 -0.4640  0.0502
13603TIP3    H262225   1.944   5.249  15.003  2.0011 -0.2171  1.8662
13604TIP3   OH262226   4.256   4.839  13.792  0.4211 -0.0175 -0.0552
13604TIP3    H162227   4.286   4.756  13.829 -0.5874  0.6164  2.3665
13604TIP3    H262228   4.315   4.904  13.830 -1.1096  0.7319  1.1508
13605TIP3   OH262229   0.231   2.260   4.559  0.0138 -0.5834  0.8469
13605TIP3    H162230   0.254   2.351   4.539 -1.3365 -0.2194  0.8970
13605TIP3    H262231   0.169   2.235   4.491  0.0958 -1.3597  1.0426
13606TIP3   OH262232   0.530   5.369  15.596 -0.0717 -0.7335  0.1982
13606TIP3    H162233   0.445   5.412  15.602  0.6934  0.8583  0.1842
13606TIP3    H262234   0.591   5.430  15.637  1.1949 -1.4755 -0.5049
13607TIP3   OH262235   2.925   2.366  12.029 -0.3097  0.2461  0.8781
13607TIP3    H162236   2.939   2.276  12.001 -1.4017  0.4311 -0.4038
13607TIP3    H262237   2.951   2.419  11.953  0.8000  1.0578  1.7908
13608TIP3   OH262238   6.276   3.140  11.737 -0.0026  0.2235 -0.3022
13608TIP3    H162239   6.227   3.061  11.711 -2.4999  0.7078  2.3964
13608TIP3    H262240   6.228   3.212  11.696  0.2804  0.5375 -0.0872
13609TIP3   OH262241   1.607   4.562   4.624 -0.6097 -0.1904 -0.3826
13609TIP3    H162242   1.622   4.626   4.555  0.2527 -0.1278 -0.1535
13609TIP3    H262243   1.559   4.611   4.692 -1.5913 -0.2945 -0.9834
13610TIP3   OH262244   2.128   3.456  12.479 -0.4882 -0.7162 -0.8646
13610TIP3    H162245   2.220   3.439  12.500 -0.1001  1.1355 -0.8466
13610TIP3    H262246   2.121   3.437  12.385 -0.2164 -1.3887 -0.7477
13611TIP3   OH262247   2.553   5.280   4.725 -0.0037  0.8991  0.4779
13611TIP3    H162248   2.505   5.334   4.789  1.1204  1.8371  0.5723
13611TIP3    H262249   2.639   5.322   4.719  0.7533 -0.6361  0.1924
13612TIP3   OH262250   4.029   4.799   0.964  0.2129 -0.4953 -0.4800
13612TIP3    H162251   3.950   4.746   0.951 -0.8273  0.6696  0.7737
13612TIP3    H262252   4.043   4.841   0.879 -0.6411 -0.5709 -0.6768
13613TIP3   OH262253   1.614   5.014  13.210 -0.3787 -0.2589 -0.8792
13613TIP3    H162254   1.657   4.929  13.216  1.2459  0.5411 -0.4668
13613TIP3    H262255   1.686   5.077  13.213 -1.5062  1.1235 -1.6174
13614TIP3   OH262256   1.030   0.268   0.227 -0.3156  0.2285  0.2037
13614TIP3    H162257   1.122   0.292   0.235  0.4899 -1.4899 -2.3744
13614TIP3    H262258   1.018   0.195   0.288  0.7303 -1.0222 -1.0032
13615TIP3   OH262259   2.903   0.129   5.565  0.4034  0.4710 -0.2714
13615TIP3    H162260   2.832   0.111   5.626 -0.4084 -0.8219 -1.5344
13615TIP3    H262261   2.967   0.060   5.581 -0.3223 -0.5654 -1.5667
13616TIP3   OH262262   6.221   0.927   4.309  0.7207  0.2583 -0.4602
13616TIP3    H162263   6.256   0.996   4.253  2.4159 -0.5061 -0.4033
13616TIP3    H262264   6.164   0.876   4.251 -2.8933  3.1626  0.0955
13617TIP3   OH262265   6.246   2.041  16.965  0.5176 -0.6550  0.1483
13617TIP3    H162266   6.168   2.066  16.917  1.3965 -1.5119 -1.8464
13617TIP3    H262267   6.283   1.968  16.914  1.7405 -1.3322  1.9168
13618TIP3   OH262268   6.652   2.970  14.657  0.6179 -0.2038  0.2291
13618TIP3    H162269   6.634   2.980  14.563  0.2982 -3.5785 -0.1881
13618TIP3    H262270   6.721   2.903  14.661  0.3665 -0.4053  2.4109
13619TIP3   OH262271   2.626   1.086  11.645  0.2328 -0.3302 -0.0253
13619TIP3    H162272   2.648   1.151  11.711 -0.6893  1.8980 -1.8033
13619TIP3    H262273   2.701   1.085  11.586 -0.9998  1.5287 -1.7405
13620TIP3   OH262274   6.094   3.591  13.992  0.1335  0.1097 -0.3764
13620TIP3    H162275   6.150   3.664  13.967  1.5754 -0.7571  0.1774
13620TIP3    H262276   6.155   3.521  14.017 -1.1596 -0.2114  2.2954
13621TIP3   OH262277   2.783   4.662  14.917  0.1854  0.6850  0.3314
13621TIP3    H162278   2.688   4.647  14.915  0.3223 -0.2128 -1.2607
13621TIP3    H262279   2.793   4.754  14.894 -0.3086  0.8353  0.6983
13622TIP3   OH262280   2.053   3.444  15.325 -0.1147  0.6090 -0.2891
13622TIP3    H162281   2.098   3.498  15.391 -1.1241 -1.2152  2.0373
13622TIP3    H262282   1.965   3.481  15.319 -1.0840 -1.1004  1.9352
13623TIP3   OH262283   4.762   4.612   0.708  0.6808 -0.1702  0.1863
13623TIP3    H162284   4.719   4.684   0.753 -0.4129 -0.1546 -0.8336
13623TIP3    H262285   4.793   4.555   0.778 -1.5502 -0.4990  0.9893
13624TIP3   OH262286   0.175   0.503  16.119 -0.2431  0.2109  0.3838
13624TIP3    H162287   0.125   0.524  16.039  1.1312  1.0951 -0.2893
13624TIP3    H262288   0.115   0.452  16.172 -1.8520  1.1811 -0.4158
13625TIP3   OH262289   6.108   0.355  16.865 -0.5845 -0.0899  0.1775
13625TIP3    H162290   6.107   0.415  16.939 -0.7540  0.3189 -0.1477
13625TIP3    H262291   6.025   0.308  16.871 -0.4259 -0.3302  0.4656
13626TIP3   OH262292   1.284   1.657   4.753  0.3973 -0.2664 -0.1154
13626TIP3    H162293   1.318   1.569   4.741 -2.3720 -1.5927  0.9371
13626TIP3    H262294   1.211   1.664   4.691 -0.3383  0.7313  0.8131
13627TIP3   OH262295   2.039   5.193  16.572 -0.1813 -0.2130 -0.7099
13627TIP3    H162296   2.036   5.235  16.486  0.3711 -0.2466 -0.7435
13627TIP3    H262297   2.003   5.259  16.632 -0.4555 -0.1465 -0.9441
13628TIP3   OH262298   4.343   1.391   0.540 -0.0035  0.3062 -0.2791
13628TIP3    H162299   4.350   1.486   0.533  0.9935  0.1398 -2.1207
13628TIP3    H262300   4.268   1.368   0.485  0.2061 -0.0170 -0.4387
13629TIP3   OH262301   5.107   2.098  16.847 -0.0954 -0.5722  0.4999
13629TIP3    H162302   5.092   2.192  16.859 -1.7537 -0.5748 -1.1849
13629TIP3    H262303   5.201   2.090  16.837  0.0086  1.0070 -0.0229
13630TIP3   OH262304   4.563   5.287   4.594  0.5456  0.3917  0.1727
13630TIP3    H162305   4.504   5.223   4.635 -0.2403 -0.1419 -1.6973
13630TIP3    H262306   4.613   5.323   4.667 -1.7447  0.5179  1.8193
13631TIP3   OH262307   2.275   2.347  11.235 -0.8381  0.4833 -0.2458
13631TIP3    H162308   2.216   2.330  11.161 -1.6269 -1.3033  0.7236
13631TIP3    H262309   2.331   2.270  11.239 -2.1469 -0.4694  2.1843
13632TIP3   OH262310   2.149   1.978   4.095  0.0780 -0.4871  0.1062
13632TIP3    H162311   2.117   1.945   4.011 -0.6766  0.2235  0.0993
13632TIP3    H262312   2.166   2.070   4.079 -3.2008  0.5204  1.5066
13633TIP3   OH262313   4.039   6.249  14.845  0.2755  0.4650 -0.1815
13633TIP3    H162314   4.087   6.200  14.778  0.6481 -1.6186  1.4814
13633TIP3    H262315   4.050   6.341  14.821 -0.5440 -0.1869 -3.5640
13634TIP3   OH262316   0.465   3.149   6.205  0.2046 -0.1136  0.0243
13634TIP3    H162317   0.478   3.207   6.280 -0.8107 -0.1015  0.2024
13634TIP3    H262318   0.514   3.069   6.229 -1.6124 -0.8402  1.5729
13635TIP3   OH262319   2.302   0.833  11.153  0.5087  0.2083  0.6418
13635TIP3    H162320   2.354   0.914  11.152  2.1886 -0.7984 -0.6220
13635TIP3    H262321   2.224   0.854  11.102  1.6411  0.6617 -1.0025
13636TIP3   OH262322   3.612   5.091   4.894  0.2832  0.4025 -0.2094
13636TIP3    H162323   3.658   5.126   4.818 -0.8126 -1.0067 -1.5972
13636TIP3    H262324   3.530   5.140   4.897 -0.1061 -0.2178 -0.5591
13637TIP3   OH262325   5.442   4.833   3.498 -0.0149  0.1352 -0.0993
13637TIP3    H162326   5.424   4.756   3.445  0.2264 -0.1890  0.2803
13637TIP3    H262327   5.484   4.895   3.438 -0.1238 -0.0653 -0.3835
13638TIP3   OH262328   1.702   2.525  16.972  0.2776 -0.2664 -0.0796
13638TIP3    H162329   1.734   2.535  17.062 -0.4818  1.9359  0.0109
13638TIP3    H262330   1.616   2.486  16.981  0.0002  0.3983  0.2010
13639TIP3   OH262331   5.803   5.058   1.758 -0.2576  0.5558 -0.1976
13639TIP3    H162332   5.852   5.058   1.676  0.8410  2.0180  0.4174
13639TIP3    H262333   5.779   4.966   1.773 -0.8856  0.3267 -2.3613
13640TIP3   OH262334   3.326   1.685   3.945  0.7226  0.0791 -0.5871
13640TIP3    H162335   3.251   1.664   4.000  1.2629 -0.1494  0.0816
13640TIP3    H262336   3.298   1.760   3.893 -1.0235 -1.7815 -2.5271
13641TIP3   OH262337   0.627   1.822   2.538 -0.3595 -0.2829 -0.3859
13641TIP3    H162338   0.662   1.882   2.473 -0.7793  1.0580  0.5936
13641TIP3    H262339   0.685   1.833   2.614 -0.2491 -1.3683 -0.2938
13642TIP3   OH262340   3.527   4.715   0.969  0.0805 -0.5977 -0.2096
13642TIP3    H162341   3.507   4.728   0.877  0.8299  0.2434 -0.2704
13642TIP3    H262342   3.448   4.742   1.016  0.6408  1.7839 -0.4811
13643TIP3   OH262343   1.361   3.288   2.567 -0.0607  0.1487  0.1027
13643TIP3    H162344   1.374   3.196   2.544  1.9463  0.3859  0.0933
13643TIP3    H262345   1.304   3.323   2.499 -0.5775 -1.0000 -0.0669
13644TIP3   OH262346   4.165   0.127  11.579 -0.2059 -0.0019 -0.4866
13644TIP3    H162347   4.215   0.207  11.563  3.0857 -1.5207  1.1770
13644TIP3    H262348   4.212   0.059  11.530 -0.6506 -1.5216  1.0822
13645TIP3   OH262349   4.561   4.705   1.256 -0.1135  0.3194 -0.4330
13645TIP3    H162350   4.517   4.630   1.217 -0.4776 -1.0477  2.3508
13645TIP3    H262351   4.644   4.669   1.289  1.6337  2.0973 -2.6008
13646TIP3   OH262352   6.485   3.568  14.428  0.7676  0.4453 -0.4739
13646TIP3    H162353   6.558   3.536  14.376 -1.2811  0.0463 -3.3510
13646TIP3    H262354   6.439   3.630  14.371 -1.2916  0.4749  1.0825
13647TIP3   OH262355   3.486   1.810  13.048  0.1860 -0.8490 -0.1500
13647TIP3    H162356   3.516   1.897  13.072  0.9503 -1.2654  0.4620
13647TIP3    H262357   3.493   1.759  13.129  0.9229 -1.7824 -0.7812
13648TIP3   OH262358   3.686   6.421  13.321  0.5859  0.3373 -0.1609
13648TIP3    H162359   3.720   6.387  13.403  0.1293 -1.9540 -0.8351
13648TIP3    H262360   3.753   6.482  13.290  1.5832 -0.0993  1.0618
13649TIP3   OH262361   6.187   5.354  15.987 -0.1923  0.3684  0.4821
13649TIP3    H162362   6.142   5.270  15.999 -1.3333  0.5433 -1.9581
13649TIP3    H262363   6.180   5.397  16.073 -1.3179 -1.2013  1.2363
13650TIP3   OH262364   2.230   5.085  13.897 -0.3432 -0.2283  0.4781
13650TIP3    H162365   2.182   5.016  13.851  0.1077 -1.7014  2.1212
13650TIP3    H262366   2.169   5.159  13.899 -1.9076 -1.4853  1.0123
13651TIP3   OH262367   1.835   4.575  12.612 -0.3143 -0.3608 -0.1007
13651TIP3    H162368   1.869   4.565  12.523  0.3067 -0.1219  0.1101
13651TIP3    H262369   1.899   4.629  12.657 -0.6054 -0.5147  0.5088
13652TIP3   OH262370   1.046   4.093   4.539  0.3021 -0.2405  0.6248
13652TIP3    H162371   1.017   4.002   4.530 -0.1495  0.1176 -2.1968
13652TIP3    H262372   1.044   4.108   4.634 -1.3833 -2.5809  1.0721
13653TIP3   OH262373   5.155   2.957  16.272  0.1192 -0.0629  0.1742
13653TIP3    H162374   5.118   2.917  16.193 -0.3254 -2.1684  1.3786
13653TIP3    H262375   5.082   3.008  16.309 -0.6731 -1.5892  0.8200
13654TIP3   OH262376   0.944   2.376  16.599  0.4127 -0.0821  0.1747
13654TIP3    H162377   0.886   2.415  16.665 -1.3613 -2.4974  0.1779
13654TIP3    H262378   0.947   2.442  16.529  2.0797  2.4037  2.3641
13655TIP3   OH262379   0.838   4.280  11.489  0.1795 -0.0626 -0.3975
13655TIP3    H162380   0.835   4.186  11.506  2.6727  0.1690  2.2287
13655TIP3    H262381   0.811   4.321  11.571  1.6700  1.4236 -0.5682
13656TIP3   OH262382   2.814   2.614  12.945 -0.4076 -0.1748 -0.4395
13656TIP3    H162383   2.724   2.601  12.915 -1.0939  0.5796  1.1302
13656TIP3    H262384   2.830   2.539  13.003  0.7886 -1.4610 -2.3262
13657TIP3   OH262385   3.053   2.060  16.709  0.0213 -0.4764 -0.2543
13657TIP3    H162386   3.030   2.049  16.616  0.4290  2.3962 -0.8121
13657TIP3    H262387   2.973   2.096  16.749  0.2899 -0.3375  0.1623
13658TIP3   OH262388   2.384   6.364  11.009  0.3642  0.1868  0.1908
13658TIP3    H162389   2.350   6.293  11.063  0.7065  0.8548  1.3233
13658TIP3    H262390   2.314   6.430  11.010  0.5243  0.3574  0.1389
13659TIP3   OH262391   4.227   0.694  14.029 -0.4646  0.3449  0.8822
13659TIP3    H162392   4.154   0.632  14.021 -0.1159  0.1122 -0.7795
13659TIP3    H262393   4.262   0.678  14.116 -1.2687 -0.8006  1.0220
13660TIP3   OH262394   2.549   6.390   6.631 -0.3499 -0.1323 -0.0121
13660TIP3    H162395   2.519   6.479   6.647 -1.6974 -0.6878  0.7512
13660TIP3    H262396   2.469   6.341   6.613  0.3359 -1.2555 -0.0954
13661TIP3   OH262397   0.878   5.454  13.022 -0.1859  0.3922 -0.4199
13661TIP3    H162398   0.876   5.414  12.935  0.0343 -1.8749  0.5509
13661TIP3    H262399   0.793   5.431  13.061  0.0352  0.6948  0.2553
13662TIP3   OH262400   4.279   5.744  12.297  0.0155 -0.0153 -0.4296
13662TIP3    H162401   4.237   5.796  12.229  1.3383  1.3635 -0.2531
13662TIP3    H262402   4.276   5.800  12.375  1.7437 -0.0125 -0.3087
13663TIP3   OH262403   6.001   1.865  11.242 -1.1418  0.4284 -0.3645
13663TIP3    H162404   6.012   1.774  11.269 -0.6926  0.0685 -1.6878
13663TIP3    H262405   5.935   1.900  11.303  0.1009 -0.1920  1.4241
13664TIP3   OH262406   0.989   2.330   5.698  0.1892  0.5101 -0.3564
13664TIP3    H162407   1.048   2.346   5.773  0.6888  2.8254 -1.1643
13664TIP3    H262408   0.977   2.416   5.658 -2.5572 -0.1440 -1.1558
13665TIP3   OH262409   6.230   6.514   5.115 -0.4202  0.4017  0.5413
13665TIP3    H162410   6.263   6.601   5.139 -1.1301  0.3844  1.6701
13665TIP3    H262411   6.144   6.509   5.156 -0.5939 -0.6577  0.0813
13666TIP3   OH262412   4.526   6.332   4.400  0.0060 -0.6268 -0.2443
13666TIP3    H162413   4.443   6.315   4.444  0.7980 -1.3213  1.0300
13666TIP3    H262414   4.556   6.415   4.437 -0.5229  0.0933 -1.3662
13667TIP3   OH262415   3.023   3.565  15.980 -0.0103 -0.2712 -0.0063
13667TIP3    H162416   3.043   3.550  15.887  1.0132 -0.5443  0.2469
13667TIP3    H262417   2.978   3.650  15.981 -0.1998 -0.3533 -0.7656
13668TIP3   OH262418   5.386   6.450  12.607  0.5158 -0.1470 -0.3893
13668TIP3    H162419   5.338   6.375  12.642 -0.7144  1.2756  1.1212
13668TIP3    H262420   5.472   6.446  12.650 -0.3634  0.5807  1.5314
13669TIP3   OH262421   2.031   2.534  11.842  0.0183  0.0440  0.6169
13669TIP3    H162422   2.011   2.615  11.795  1.4985  0.5940  0.8712
13669TIP3    H262423   2.085   2.484  11.780  1.7116  0.6334  1.5536
13670TIP3   OH262424   6.330   2.315  15.817 -0.1461 -1.0621 -0.5607
13670TIP3    H162425   6.302   2.339  15.905 -0.3923 -2.4794 -0.2256
13670TIP3    H262426   6.378   2.233  15.828  2.6806  0.3508 -1.3470
13671TIP3   OH262427   1.311   4.924  11.306  0.0894  0.2724 -0.3072
13671TIP3    H162428   1.248   4.928  11.378  0.2846  0.3702 -0.1407
13671TIP3    H262429   1.257   4.924  11.227 -0.1556 -0.7392 -0.1453
13672TIP3   OH262430   4.399   5.057  12.817  0.5430  0.3078  0.1747
13672TIP3    H162431   4.411   5.062  12.722  2.0165  0.6689  0.3664
13672TIP3    H262432   4.413   4.965  12.838  3.1815  0.6867  0.3770
13673TIP3   OH262433   1.916   6.712   1.864  0.3466  0.5867 -0.3908
13673TIP3    H162434   1.923   6.806   1.850 -0.0001  0.4784 -1.3909
13673TIP3    H262435   1.885   6.677   1.780  1.4729 -0.5349 -0.3820
13674TIP3   OH262436   6.318   2.732  15.571  0.3216  0.2992 -0.0952
13674TIP3    H162437   6.263   2.811  15.567 -0.1255 -0.0627 -2.3864
13674TIP3    H262438   6.325   2.713  15.664 -1.7308  1.5714  0.3951
13675TIP3   OH262439   3.258   0.792   2.184 -0.6676  0.3425  0.0367
13675TIP3    H162440   3.205   0.870   2.201  2.1802  2.4719 -0.0744
13675TIP3    H262441   3.226   0.759   2.100 -1.5340  1.7735 -0.2252
13676TIP3   OH262442   6.385   1.269  15.899  0.4718  0.1552 -0.3985
13676TIP3    H162443   6.394   1.192  15.955  0.3509 -0.5024 -1.2721
13676TIP3    H262444   6.308   1.314  15.933 -0.8506 -1.3392 -1.3113
13677TIP3   OH262445   1.425   4.884   0.749  0.5844  0.3410 -0.2478
13677TIP3    H162446   1.373   4.822   0.801 -1.8017  2.1372 -0.3242
13677TIP3    H262447   1.425   4.848   0.661  0.2274 -0.1585 -0.0463
13678TIP3   OH262448   0.931   5.182   1.917  0.3620 -0.3063  0.3546
13678TIP3    H162449   0.885   5.120   1.861  0.6409 -1.9060  1.8016
13678TIP3    H262450   1.003   5.214   1.864 -0.5676 -0.1808 -0.8748
13679TIP3   OH262451   5.421   6.220  14.330  0.0679 -0.5990  0.8280
13679TIP3    H162452   5.510   6.221  14.296 -0.3707  1.3588 -0.4218
13679TIP3    H262453   5.431   6.215  14.425  1.5329  0.2680  0.7487
13680TIP3   OH262454   3.357   2.696  15.107  0.3775  0.7650 -0.1515
13680TIP3    H162455   3.264   2.692  15.129  0.1871 -0.3224 -1.0193
13680TIP3    H262456   3.391   2.610  15.133  1.3233  1.4340  0.8826
13681TIP3   OH262457   1.493   1.568  12.894 -0.1852 -0.1129 -0.6502
13681TIP3    H162458   1.528   1.592  12.980 -0.8676 -0.1441 -0.3653
13681TIP3    H262459   1.413   1.520  12.912  0.0613 -0.7853 -1.2876
13682TIP3   OH262460   5.592   5.190   0.254 -0.5410  0.0201  0.4060
13682TIP3    H162461   5.620   5.268   0.302 -1.0034  0.9906 -0.8449
13682TIP3    H262462   5.538   5.142   0.316  1.3617 -0.3787  1.8784
13683TIP3   OH262463   3.627   4.714   2.127  0.4205 -0.2984  0.5551
13683TIP3    H162464   3.626   4.793   2.181 -1.1591  0.8614 -1.0513
13683TIP3    H262465   3.550   4.665   2.154 -2.3716  1.8769 -2.6300
13684TIP3   OH262466   0.988   3.246  10.773  0.0592  0.3567 -0.4195
13684TIP3    H162467   0.926   3.191  10.725  0.9812 -1.2136  0.1021
13684TIP3    H262468   1.048   3.278  10.706 -0.8592  1.2980 -0.8234
13685TIP3   OH262469   2.714   2.491   0.463  0.1627  0.1185  0.2111
13685TIP3    H162470   2.719   2.399   0.486  2.8785 -0.1938 -1.1988
13685TIP3    H262471   2.785   2.532   0.514 -1.0770  1.5030  0.9253
13686TIP3   OH262472   6.720   2.125  13.829 -0.0725 -0.2846  0.5134
13686TIP3    H162473   6.735   2.115  13.735 -1.1662  2.7810 -0.0791
13686TIP3    H262474   6.634   2.085  13.844  0.1891 -0.9515  0.2794
13687TIP3   OH262475   0.586   0.120  13.491 -0.0259 -0.1669 -0.2798
13687TIP3    H162476   0.588   0.059  13.418 -1.7456 -0.8855  0.2131
13687TIP3    H262477   0.653   0.087  13.551 -0.2957 -1.0507 -0.4380
13688TIP3   OH262478   6.191   6.088  10.475  0.5670 -0.4129 -0.1612
13688TIP3    H162479   6.102   6.072  10.507  1.8379 -2.7027  2.8100
13688TIP3    H262480   6.214   6.007  10.429  1.2788 -0.0894 -0.3843
13689TIP3   OH262481   5.043   5.984   1.915 -0.0478  0.2157 -0.0817
13689TIP3    H162482   5.119   5.939   1.880 -0.1827  1.3512 -2.0110
13689TIP3    H262483   5.079   6.059   1.962  0.0517  0.6023 -0.7634
13690TIP3   OH262484   5.533   0.153  11.434  0.2641 -0.5363 -0.7420
13690TIP3    H162485   5.465   0.101  11.390  1.6871 -0.8331 -2.7634
13690TIP3    H262486   5.603   0.090  11.453 -0.1330 -0.3272  1.7126
13691TIP3   OH262487   5.035   4.820  12.441 -0.1993 -0.3607  0.1923
13691TIP3    H162488   4.977   4.745  12.448  1.7127 -2.5167 -3.8052
13691TIP3    H262489   5.103   4.804  12.507  1.2645 -3.4391 -1.8364
13692TIP3   OH262490   6.627   0.439   5.204  0.5543 -0.2334 -0.1340
13692TIP3    H162491   6.635   0.512   5.266  0.9276 -1.7999  1.7912
13692TIP3    H262492   6.710   0.438   5.157 -0.2513  1.8203 -1.7220
13693TIP3   OH262493   5.971   0.866  13.810 -0.4277  0.2354 -0.0310
13693TIP3    H162494   6.064   0.880  13.827 -0.3784 -1.8526  1.8619
13693TIP3    H262495   5.969   0.795  13.746 -0.7548  1.4985 -1.4779
13694TIP3   OH262496   6.276   4.503   1.881  0.5093  0.3127  0.5460
13694TIP3    H162497   6.206   4.548   1.835  0.1454 -0.8625 -0.0815
13694TIP3    H262498   6.345   4.492   1.816 -0.5060 -2.4945 -0.2011
13695TIP3   OH262499   6.145   5.643  14.725  0.1844 -0.0912 -0.2199
13695TIP3    H162500   6.115   5.553  14.735 -2.1020  0.7276  0.8053
13695TIP3    H262501   6.162   5.673  14.814  1.6265  0.3110 -0.6000
13696TIP3   OH262502   2.721   1.867   0.307 -0.1100 -0.0588  0.2023
13696TIP3    H162503   2.789   1.800   0.301  1.3538  1.4140 -0.5455
13696TIP3    H262504   2.744   1.918   0.385  1.6155  2.3946 -1.7600
13697TIP3   OH262505   2.502   1.651  12.760  0.3351  0.4128  0.1322
13697TIP3    H162506   2.540   1.567  12.732  1.5182  1.2602 -0.9394
13697TIP3    H262507   2.420   1.657  12.712  1.3286  0.8624 -1.6141
13698TIP3   OH262508   0.143   3.846   1.919  0.3313 -0.0069  0.2835
13698TIP3    H162509   0.054   3.881   1.930  0.1611 -0.6232  0.9873
13698TIP3    H262510   0.130   3.762   1.877  0.5644 -0.1753  0.5470
13699TIP3   OH262511   1.846   6.527  15.287 -0.1750 -0.1824  0.7734
13699TIP3    H162512   1.793   6.530  15.207 -2.1144  0.6216  2.0243
13699TIP3    H262513   1.793   6.477  15.349 -0.6841  2.7333  2.8669
13700TIP3   OH262514   0.038   4.605   4.952  0.3752  0.4919  0.1696
13700TIP3    H162515  -0.006   4.523   4.931  0.1306  1.1663 -2.2768
13700TIP3    H262516   0.039   4.608   5.047  0.6296 -2.4483  0.3308
13701TIP3   OH262517   1.909   2.169   3.404 -0.3399  0.3404 -0.2543
13701TIP3    H162518   1.976   2.231   3.377  0.2552  0.3906  1.2801
13701TIP3    H262519   1.892   2.117   3.325  2.0853 -0.2242 -0.4696
13702TIP3   OH262520   0.783   2.523  16.781 -0.1624  0.0108  0.3304
13702TIP3    H162521   0.795   2.617  16.775 -0.1631 -0.0699 -1.5164
13702TIP3    H262522   0.764   2.507  16.873 -2.6153  2.0924  0.2956
13703TIP3   OH262523   2.171   1.439   4.863 -0.2905  0.0298  0.2537
13703TIP3    H162524   2.263   1.415   4.863 -0.0919  0.7594  0.5605
13703TIP3    H262525   2.153   1.469   4.952  0.0976  3.1865 -0.5940
13704TIP3   OH262526   4.114   4.280   6.112 -0.0587  0.2487  0.1180
13704TIP3    H162527   4.039   4.222   6.101  0.7704 -1.0448  1.0634
13704TIP3    H262528   4.091   4.359   6.062 -0.8811 -1.1610 -1.8551
13705TIP3   OH262529   4.117   5.107   4.725  0.2065 -0.4333  0.8281
13705TIP3    H162530   4.032   5.079   4.758 -0.5511 -3.8734 -3.1775
13705TIP3    H262531   4.163   5.026   4.707  2.7925  1.2657 -0.7744
13706TIP3   OH262532   6.295   0.294  10.532  0.3132 -0.0334 -0.0976
13706TIP3    H162533   6.345   0.365  10.492  0.5039 -1.3227 -2.2827
13706TIP3    H262534   6.278   0.233  10.461 -0.1860 -2.0204  1.6242
13707TIP3   OH262535   4.220   4.354  15.813  0.0182 -0.0394  0.4224
13707TIP3    H162536   4.229   4.280  15.873 -0.2432 -2.0874 -1.9565
13707TIP3    H262537   4.310   4.387  15.802  0.6566 -2.0782 -0.9440
13708TIP3   OH262538   6.683   1.626  11.915 -0.4849 -0.5727  0.5833
13708TIP3    H162539   6.696   1.531  11.905  1.0314 -0.2825 -0.4262
13708TIP3    H262540   6.613   1.646  11.852 -0.0195 -0.8522 -0.0404
13709TIP3   OH262541   4.863   4.687  14.203 -0.2236  0.5361 -0.1676
13709TIP3    H162542   4.812   4.629  14.147 -1.2117 -1.0227  2.1823
13709TIP3    H262543   4.819   4.772  14.197 -1.9739 -0.2976  0.3215
13710TIP3   OH262544   4.827   3.301   4.298  0.2978 -0.0095  0.2328
13710TIP3    H162545   4.832   3.389   4.260  0.7968 -0.3526 -0.5213
13710TIP3    H262546   4.892   3.250   4.249 -0.3224 -0.9180  0.3394
13711TIP3   OH262547   6.451   1.738  11.776  0.3834 -0.0615  0.8945
13711TIP3    H162548   6.479   1.829  11.785 -0.2250 -0.0030  2.5648
13711TIP3    H262549   6.356   1.742  11.764 -0.1570 -0.4816  4.0143
13712TIP3   OH262550   6.166   1.328   2.974  0.0283 -0.0107 -0.4555
13712TIP3    H162551   6.237   1.267   2.955  1.1407  0.9310  0.5095
13712TIP3    H262552   6.110   1.324   2.897  0.6200 -1.4583 -0.8573
13713TIP3   OH262553   2.338   0.753   0.962 -0.5473 -0.5220  0.3949
13713TIP3    H162554   2.291   0.791   0.888 -1.1784 -2.1728 -0.0898
13713TIP3    H262555   2.427   0.739   0.929  0.2543  2.1552  1.1643
13714TIP3   OH262556   6.517   4.324   0.221  0.1501  0.1301  0.1493
13714TIP3    H162557   6.514   4.345   0.314  0.7034 -1.5497  0.5857
13714TIP3    H262558   6.602   4.281   0.209 -0.3837 -0.6872 -0.8938
13715TIP3   OH262559   2.524   0.739   2.507  0.5519  0.2107 -0.8729
13715TIP3    H162560   2.511   0.764   2.598  0.4735 -0.7304 -0.6139
13715TIP3    H262561   2.610   0.775   2.484  0.9381 -0.2312 -0.1667
13716TIP3   OH262562   0.892   2.576  12.029  0.3403  0.1442 -0.6254
13716TIP3    H162563   0.975   2.535  12.054 -0.2284 -1.2723 -0.9819
13716TIP3    H262564   0.918   2.645  11.968  1.1693 -1.7387 -2.5785
13717TIP3   OH262565   0.799   2.878   0.777 -0.5579 -0.3401 -0.3062
13717TIP3    H162566   0.792   2.793   0.733 -0.8725 -0.9099  0.7980
13717TIP3    H262567   0.764   2.940   0.713 -1.2357 -1.1716 -0.7780
13718TIP3   OH262568   4.763   0.805  11.273 -0.2677 -0.0291  0.0272
13718TIP3    H162569   4.812   0.817  11.192 -2.3301 -1.9739 -1.6580
13718TIP3    H262570   4.797   0.723  11.310 -0.2147  0.1841  0.4613
13719TIP3   OH262571   3.819   5.428  16.638 -0.0217 -0.4973 -0.2013
13719TIP3    H162572   3.913   5.429  16.620 -0.1517 -0.4051 -0.8990
13719TIP3    H262573   3.813   5.432  16.734  0.6775 -0.1179 -0.1660
13720TIP3   OH262574   4.329   0.765   5.836  0.6946 -0.1156  0.5139
13720TIP3    H162575   4.240   0.790   5.814  0.6548  0.4619  1.3034
13720TIP3    H262576   4.322   0.678   5.873  0.8398 -1.4294 -2.3108
13721TIP3   OH262577   5.757   0.043  11.601 -0.4256 -0.1611  0.1286
13721TIP3    H162578   5.847   0.072  11.615 -0.5904  0.6438 -0.4107
13721TIP3    H262579   5.760  -0.005  11.518 -0.5852  0.2928 -0.1409
13722TIP3   OH262580   2.578   0.213  14.164  0.3884 -0.2581  0.3660
13722TIP3    H162581   2.522   0.175  14.096  1.5910 -3.6633  1.0618
13722TIP3    H262582   2.624   0.284  14.120 -2.0305  0.5073 -1.1098
13723TIP3   OH262583   4.629   5.348   2.995  0.3249 -0.5899  0.1024
13723TIP3    H162584   4.639   5.263   2.953  0.3302 -0.4770 -0.1235
13723TIP3    H262585   4.535   5.361   3.003  0.3114 -0.2846 -0.5353
13724TIP3   OH262586   3.325   3.987   2.178  0.6608 -0.2774  0.3505
13724TIP3    H162587   3.345   4.073   2.215  0.5488 -0.3443  0.5672
13724TIP3    H262588   3.384   3.979   2.103 -0.1674  0.4999 -0.4116
13725TIP3   OH262589   4.436   1.843   5.012 -0.0813 -0.1833 -0.2889
13725TIP3    H162590   4.396   1.912   5.065 -1.2962  0.7535 -2.2859
13725TIP3    H262591   4.530   1.856   5.022 -0.1897 -1.0071  2.7407
13726TIP3   OH262592   3.749   2.750  14.510  0.1371 -0.6180 -0.5172
13726TIP3    H162593   3.785   2.767  14.598 -1.2063  0.2701 -0.0996
13726TIP3    H262594   3.812   2.790  14.450 -0.4774  1.6257  0.2327
13727TIP3   OH262595   3.577   0.520   5.184 -0.1271 -0.7034  0.0971
13727TIP3    H162596   3.596   0.568   5.103  1.2243 -2.6489 -0.8305
13727TIP3    H262597   3.663   0.492   5.215 -0.7934 -1.7842  1.0386
13728TIP3   OH262598   4.092   6.343   6.409 -0.4101  0.0466  0.1522
13728TIP3    H162599   4.117   6.280   6.476  0.4450 -0.5903 -0.7521
13728TIP3    H262600   4.170   6.354   6.355 -0.1715  2.6859  0.8758
13729TIP3   OH262601   5.568   6.037   1.365 -0.7215  0.1546 -0.6355
13729TIP3    H162602   5.570   5.968   1.299  1.1346  0.3399 -0.8184
13729TIP3    H262603   5.584   5.993   1.448  1.2710  0.4068 -0.8422
13730TIP3   OH262604   3.117   3.575  14.677  0.4195 -0.8214  0.1339
13730TIP3    H162605   3.123   3.585  14.581 -0.4043  0.5559  0.1990
13730TIP3    H262606   3.027   3.549  14.693  0.2458  0.0521  0.6052
13731TIP3   OH262607   4.723   5.128   0.584 -0.1405 -0.0548 -0.5883
13731TIP3    H162608   4.691   5.215   0.560  1.2131  0.4225 -0.7713
13731TIP3    H262609   4.785   5.106   0.514  1.2561 -0.1504  0.6152
13732TIP3   OH262610   1.255   4.689  13.857 -0.4857 -0.4765  0.4365
13732TIP3    H162611   1.194   4.646  13.917  0.7577 -1.6253  0.9143
13732TIP3    H262612   1.327   4.719  13.913 -0.2773  0.2651 -0.2100
13733TIP3   OH262613   2.230   0.457  12.672 -0.5763  0.0695 -0.7643
13733TIP3    H162614   2.168   0.511  12.722  1.0759  0.9172  0.4739
13733TIP3    H262615   2.254   0.387  12.733  0.2674  0.2136 -0.9193
13734TIP3   OH262616   3.152   0.741  11.038 -0.0329 -0.7176 -0.5687
13734TIP3    H162617   3.234   0.791  11.042  0.3681 -1.3718  2.7016
13734TIP3    H262618   3.181   0.649  11.035 -0.5439 -0.9884  1.3774
13735TIP3   OH262619   6.775   2.111  11.617 -0.1362 -0.0990  0.0839
13735TIP3    H162620   6.735   2.033  11.580  0.1667  0.7733 -2.2136
13735TIP3    H262621   6.869   2.096  11.610 -0.0700  0.1804  0.3218
13736TIP3   OH262622   3.285   2.078   4.729 -0.2353  0.0992  0.5124
13736TIP3    H162623   3.275   2.029   4.648 -0.2047  2.0081 -0.7049
13736TIP3    H262624   3.209   2.054   4.781  0.5888 -2.4548  0.7036
13737TIP3   OH262625   5.234   2.480  14.311  0.5400 -0.2764 -0.3277
13737TIP3    H162626   5.321   2.468  14.272  0.6670 -0.4409 -0.0019
13737TIP3    H262627   5.175   2.484  14.237  0.9638  1.1415 -0.6223
13738TIP3   OH262628   5.749   1.820  11.033  0.2613 -0.2915  0.6478
13738TIP3    H162629   5.666   1.789  10.997 -0.3751  1.0224  0.9385
13738TIP3    H262630   5.815   1.761  10.997 -0.4426  0.3934 -1.9141
13739TIP3   OH262631   1.132   6.311   4.393  0.0654 -0.4022 -0.4400
13739TIP3    H162632   1.046   6.293   4.355 -0.2946  0.4571 -0.0725
13739TIP3    H262633   1.169   6.378   4.336 -0.1204  0.2687  0.2059
13740TIP3   OH262634   4.552   0.543   6.625 -0.0360 -0.3834  0.0060
13740TIP3    H162635   4.635   0.557   6.578  0.0138  0.2959  0.2943
13740TIP3    H262636   4.487   0.592   6.575 -0.2988 -1.0313 -0.2997
13741TIP3   OH262637   5.276   2.070  11.874 -0.5466  0.0950 -0.5179
13741TIP3    H162638   5.237   2.126  11.941  0.7770  0.4603 -0.0327
13741TIP3    H262639   5.276   1.982  11.913 -0.1812  0.2296 -0.2099
13742TIP3   OH262640   0.383   1.434   0.756  0.2017  0.1649 -0.5032
13742TIP3    H162641   0.411   1.344   0.741 -1.0501 -0.3392  0.0558
13742TIP3    H262642   0.451   1.487   0.714  1.9865 -0.9635  0.7792
13743TIP3   OH262643   1.056   5.248  11.287  0.2428 -0.8753 -0.5438
13743TIP3    H162644   1.089   5.308  11.219  0.7588 -0.6262 -0.0836
13743TIP3    H262645   1.127   5.244  11.351 -0.2595 -1.0759  0.0043
13744TIP3   OH262646   5.744   3.430   4.126 -0.0039  0.1742  0.0175
13744TIP3    H162647   5.752   3.382   4.043  0.2524  0.4394 -0.1156
13744TIP3    H262648   5.831   3.467   4.140  0.0330 -0.1079  0.5544
13745TIP3   OH262649   6.062   0.094   3.414  0.1335 -0.0486  0.6027
13745TIP3    H162650   6.062   0.002   3.387 -0.2143  0.3255 -0.7299
13745TIP3    H262651   5.970   0.114   3.432  0.3020 -0.1587  1.6236
13746TIP3   OH262652   1.377   3.714   5.970 -0.6483  0.0211  0.7543
13746TIP3    H162653   1.345   3.704   5.881 -1.3946 -1.3943  1.1485
13746TIP3    H262654   1.327   3.651   6.021 -0.9964  1.5349  2.3892
13747TIP3   OH262655   1.011   3.606   4.107  0.0306  0.2602  0.1420
13747TIP3    H162656   0.921   3.637   4.100  0.2404  0.8895  0.2227
13747TIP3    H262657   1.005   3.526   4.160 -0.3949  0.6869  0.7406
13748TIP3   OH262658   2.467   6.064  12.524 -0.4125 -0.6706 -0.1166
13748TIP3    H162659   2.404   5.994  12.506  0.4352 -1.4463 -0.1195
13748TIP3    H262660   2.419   6.125  12.581 -1.0141 -1.4770  0.2579
13749TIP3   OH262661   5.216   0.405   2.638 -0.4239 -0.0159 -0.1616
13749TIP3    H162662   5.217   0.476   2.702 -1.2069  0.2836 -0.4662
13749TIP3    H262663   5.223   0.449   2.553  0.2060 -0.3821 -0.3069
13750TIP3   OH262664   5.616   1.415  14.484 -0.3075 -0.0810 -0.0074
13750TIP3    H162665   5.664   1.437  14.564 -0.3159  0.3580 -0.1217
13750TIP3    H262666   5.572   1.332  14.504  2.5303 -1.9099 -0.7400
13751TIP3   OH262667   3.877   1.756   2.943 -0.2120  0.0234  0.4634
13751TIP3    H162668   3.938   1.767   2.869  0.7926 -0.2626  1.2283
13751TIP3    H262669   3.800   1.716   2.904  0.2136  0.0884 -0.4792
13752TIP3   OH262670   3.284   4.474  12.700  0.5844  0.3098  0.3962
13752TIP3    H162671   3.341   4.475  12.623  1.2467 -0.1745  0.8645
13752TIP3    H262672   3.325   4.536  12.760  0.9689 -0.4936  0.9754
13753TIP3   OH262673   2.869   1.851  10.964  0.2339  0.4308  0.5176
13753TIP3    H162674   2.782   1.862  11.003  0.3815  1.7265  0.5150
13753TIP3    H262675   2.929   1.891  11.027  0.3468  3.9206 -1.5722
13754TIP3   OH262676   1.673   2.070   1.327 -0.1662  0.3658 -0.2381
13754TIP3    H162677   1.655   2.083   1.420  2.0444  0.8155  0.1887
13754TIP3    H262678   1.720   1.988   1.322 -1.0319 -0.1035 -1.1054
13755TIP3   OH262679   5.814   1.480  13.914  0.0417 -0.0127  0.1495
13755TIP3    H162680   5.859   1.527  13.984  0.9648 -1.4294  0.5452
13755TIP3    H262681   5.824   1.388  13.937  0.3469 -0.5097 -1.8274
13756TIP3   OH262682   3.586   1.206  15.245 -0.2340 -0.3570 -0.3373
13756TIP3    H162683   3.587   1.286  15.191  1.5563  0.4201  0.7425
13756TIP3    H262684   3.494   1.179  15.247 -1.1663  2.5398  0.5013
13757TIP3   OH262685   0.444   4.484   3.532  0.0632  0.7825 -0.0530
13757TIP3    H162686   0.472   4.405   3.578  1.7991  0.4523 -1.5429
13757TIP3    H262687   0.526   4.526   3.506 -0.8494  2.2882 -0.5831
13758TIP3   OH262688   0.710   0.919  11.951 -0.5064  0.4820 -0.0436
13758TIP3    H162689   0.756   0.999  11.927  0.4662  0.1881  0.7880
13758TIP3    H262690   0.619   0.946  11.961 -0.5376  1.0772 -1.6763
13759TIP3   OH262691   0.670   3.778  14.694 -0.5193  0.4832 -0.0207
13759TIP3    H162692   0.663   3.859  14.746  0.9244 -0.1275  1.1955
13759TIP3    H262693   0.686   3.709  14.758 -0.6572 -0.6246 -1.1326
13760TIP3   OH262694   2.004   1.568  14.787  0.7814 -0.7121 -0.2026
13760TIP3    H162695   1.972   1.581  14.877  1.3602 -0.1096 -0.0792
13760TIP3    H262696   1.933   1.602  14.732  0.0557 -1.8703 -0.0032
13761TIP3   OH262697   2.513   5.289  15.898 -0.0924  0.7125 -0.0740
13761TIP3    H162698   2.470   5.204  15.884  0.7984  0.0426  1.0461
13761TIP3    H262699   2.447   5.343  15.941 -0.5061  0.4174 -0.3340
13762TIP3   OH262700   2.505   5.629  13.449 -0.0561  0.1614 -0.1754
13762TIP3    H162701   2.490   5.569  13.522  0.7170 -1.4623 -1.2764
13762TIP3    H262702   2.528   5.712  13.490  0.4524 -0.7229  1.4114
13763TIP3   OH262703   2.889   6.293  10.866 -0.3643 -0.3773 -0.3937
13763TIP3    H162704   2.829   6.242  10.920 -0.6070 -0.7107 -0.9661
13763TIP3    H262705   2.832   6.341  10.806 -0.0683 -0.6065 -0.8636
13764TIP3   OH262706   3.712   5.221   4.433 -0.1168 -0.3660 -0.4770
13764TIP3    H162707   3.725   5.140   4.385 -0.7097 -0.9304  0.2890
13764TIP3    H262708   3.632   5.259   4.396  0.0519 -0.2239 -0.7005
13765TIP3   OH262709   0.756   5.662   5.534  0.3895  0.1435  0.1569
13765TIP3    H162710   0.794   5.671   5.447 -2.5889  0.2190 -1.2528
13765TIP3    H262711   0.726   5.750   5.556  0.8118  0.0544  1.1488
13766TIP3   OH262712   1.062   5.340  13.526  0.2604 -0.5137  0.7017
13766TIP3    H162713   1.137   5.400  13.528 -0.7820  1.3165 -3.6379
13766TIP3    H262714   0.990   5.391  13.563 -0.3487  0.6575 -1.8790
13767TIP3   OH262715   2.661   4.962  15.779 -0.1104 -0.1860 -0.2711
13767TIP3    H162716   2.684   5.002  15.695  1.4484  0.8297  0.5818
13767TIP3    H262717   2.745   4.952  15.824 -1.0509  1.3636  2.0233
13768TIP3   OH262718   1.960   0.120  11.560  0.0904 -0.1579 -0.1825
13768TIP3    H162719   2.029   0.057  11.540 -0.8099 -0.3725 -3.0542
13768TIP3    H262720   1.991   0.202  11.522  0.2218  0.5973  1.4913
13769TIP3   OH262721   0.661   1.749   5.603 -0.3780  0.0549  0.0461
13769TIP3    H162722   0.655   1.664   5.648 -2.0294  1.0639  1.9235
13769TIP3    H262723   0.747   1.783   5.627  0.3893 -1.1138 -0.8874
13770TIP3   OH262724   1.753   4.143  11.759 -0.3819  0.5208  1.0152
13770TIP3    H162725   1.719   4.056  11.779 -0.4157  0.9577  3.1187
13770TIP3    H262726   1.741   4.152  11.664  0.8332 -2.2433  0.4887
13771TIP3   OH262727   6.610   2.987  16.265 -0.0564  0.1100 -0.2914
13771TIP3    H162728   6.607   3.074  16.302 -2.3676  0.0499 -0.2138
13771TIP3    H262729   6.686   2.946  16.306  0.4012  1.6989  0.5195
13772TIP3   OH262730   5.310   3.024  12.905 -0.1432 -0.1846 -0.5095
13772TIP3    H162731   5.270   2.937  12.906 -0.0532 -0.2444  1.1162
13772TIP3    H262732   5.376   3.019  12.836 -0.7464 -1.1184 -1.0441
13773TIP3   OH262733   5.070   2.032   3.213  0.3131  0.1641 -0.4036
13773TIP3    H162734   5.116   2.039   3.129 -0.0520  0.3925 -0.5868
13773TIP3    H262735   5.133   1.991   3.272  0.8728  0.7965 -0.5551
13774TIP3   OH262736   5.047   0.737   1.449 -0.1068 -0.0623  0.4832
13774TIP3    H162737   5.120   0.750   1.510 -1.0688  0.9700  1.4919
13774TIP3    H262738   4.975   0.707   1.505 -1.1939  1.4968 -0.0051
13775TIP3   OH262739   1.409   2.653  16.795 -0.0215 -0.5601 -0.8723
13775TIP3    H162740   1.469   2.635  16.723  1.2962 -0.9944  0.2950
13775TIP3    H262741   1.420   2.746  16.813  2.0391 -1.0441  0.7711
13776TIP3   OH262742   0.730   6.717   3.036  0.2262  0.1367  0.0015
13776TIP3    H162743   0.694   6.680   3.116  2.4765 -1.8170  0.2402
13776TIP3    H262744   0.822   6.690   3.037  1.3804  3.5329 -1.2496
13777TIP3   OH262745   1.671   3.287  13.210 -0.4620  0.7490 -0.5158
13777TIP3    H162746   1.585   3.274  13.171 -1.1780  1.0793  0.8652
13777TIP3    H262747   1.673   3.227  13.285  0.7224  0.3610 -0.8365
13778TIP3   OH262748   1.882   4.384  14.612  0.5391 -0.1052 -0.1005
13778TIP3    H162749   1.862   4.363  14.521 -1.9238 -0.6539  0.4851
13778TIP3    H262750   1.972   4.353  14.625 -0.2765 -3.5015 -1.3937
13779TIP3   OH262751   1.923   4.566   1.174  0.2900 -0.1079  0.1572
13779TIP3    H162752   1.925   4.622   1.251 -0.1284 -1.2038  0.9898
13779TIP3    H262753   2.013   4.534   1.165  0.2143 -0.4248  0.5281
13780TIP3   OH262754   5.580   1.476  11.187 -0.2654 -0.2086 -0.0466
13780TIP3    H162755   5.565   1.508  11.098  0.8411  0.0783 -0.1411
13780TIP3    H262756   5.563   1.382  11.182 -4.5183  0.3025  0.4376
13781TIP3   OH262757   3.910   2.934   0.038  0.7309  0.4554  0.1002
13781TIP3    H162758   3.959   2.953  -0.042  2.2528  0.8658  1.0787
13781TIP3    H262759   3.853   2.861   0.015  1.7810 -0.0098 -1.1215
13782TIP3   OH262760   4.244   3.428  12.206 -0.5950  0.4776  0.6248
13782TIP3    H162761   4.291   3.361  12.158 -1.5330  0.5962 -0.5031
13782TIP3    H262762   4.222   3.387  12.290 -1.4291 -0.7495 -0.1698
13783TIP3   OH262763   4.095   4.947   2.319  0.8239  0.3371 -0.5034
13783TIP3    H162764   4.006   4.966   2.291  0.2585  0.1088  1.0417
13783TIP3    H262765   4.107   4.854   2.301  0.5801  0.2651 -0.3036
13784TIP3   OH262766   0.104   2.898  11.407  0.1887  1.0891 -0.2363
13784TIP3    H162767   0.138   2.913  11.495 -0.4495 -0.8190  0.3877
13784TIP3    H262768   0.132   2.810  11.385  1.3803  1.9683 -2.4915
13785TIP3   OH262769   5.777   2.641   1.636  0.6226  0.5454 -0.1438
13785TIP3    H162770   5.833   2.602   1.703  0.5113  2.1402  0.9355
13785TIP3    H262771   5.836   2.660   1.563  0.9586 -0.2218 -0.0788
13786TIP3   OH262772   6.171   0.527   0.167  0.0373  0.3674  0.2170
13786TIP3    H162773   6.124   0.517   0.085 -1.5492  1.5314  0.9316
13786TIP3    H262774   6.103   0.540   0.233  1.3287  3.1610  1.1596
13787TIP3   OH262775   2.317   4.843  11.356  0.0619 -0.1943 -0.1659
13787TIP3    H162776   2.364   4.760  11.347 -0.0118 -0.1309 -1.2843
13787TIP3    H262777   2.358   4.900  11.291  0.9167  1.0440  1.3803
13788TIP3   OH262778   5.110   3.014   0.433 -0.4435  0.5726 -0.0915
13788TIP3    H162779   5.075   3.098   0.463 -4.2803 -0.5198 -0.9376
13788TIP3    H262780   5.101   3.018   0.338  2.1265  0.2393 -0.4022
13789TIP3   OH262781   6.211   2.282   5.610  0.3976 -0.2911  0.2540
13789TIP3    H162782   6.122   2.259   5.638  0.6756 -0.9828  0.5842
13789TIP3    H262783   6.267   2.218   5.652  1.0149 -0.1712 -0.3650
13790TIP3   OH262784   5.502   3.391   0.411 -0.3562 -0.1159  0.7394
13790TIP3    H162785   5.556   3.461   0.375 -0.1122 -0.2684  0.8038
13790TIP3    H262786   5.455   3.354   0.336 -2.4168  1.7446  1.0134
13791TIP3   OH262787   0.621   0.004   5.568  0.4617 -1.0084 -0.0283
13791TIP3    H162788   0.536  -0.010   5.610  0.2670 -1.5442 -0.5838
13791TIP3    H262789   0.600   0.039   5.482  0.8163 -0.8878 -0.0668
13792TIP3   OH262790   2.837   2.231   1.154  0.2102  0.2112  0.1787
13792TIP3    H162791   2.754   2.278   1.145 -0.3174 -0.6876  0.2589
13792TIP3    H262792   2.849   2.223   1.249 -0.7579 -1.5834  0.2042
13793TIP3   OH262793   1.290   4.268   1.389  0.3801  0.2026 -0.0175
13793TIP3    H162794   1.373   4.221   1.388 -0.0708 -0.5864 -0.7411
13793TIP3    H262795   1.312   4.354   1.427  1.2426 -0.4969  1.1356
13794TIP3   OH262796   3.732   0.744   5.374  0.1070  0.4535 -0.2301
13794TIP3    H162797   3.660   0.710   5.427  0.7473 -1.7152 -0.6242
13794TIP3    H262798   3.748   0.832   5.408  0.8117 -0.9437  3.6083
13795TIP3   OH262799   5.199   1.708   0.299 -0.3182  0.0829 -0.1153
13795TIP3    H162800   5.189   1.730   0.207  0.4151 -0.4789 -0.3328
13795TIP3    H262801   5.161   1.621   0.307  0.6014 -0.3233 -0.1096
13796TIP3   OH262802   4.334   4.255   0.562  0.3892  0.3090 -0.5107
13796TIP3    H162803   4.351   4.170   0.602 -0.4426 -0.0936 -1.0012
13796TIP3    H262804   4.300   4.309   0.634 -0.3367 -0.1687 -0.4868
13797TIP3   OH262805   5.782   6.688   2.456  0.2642  0.8943 -0.2131
13797TIP3    H162806   5.815   6.731   2.377  1.4948 -0.7757 -0.6774
13797TIP3    H262807   5.698   6.649   2.429  0.0427  1.4259 -0.3047
13798TIP3   OH262808   5.192   2.405   0.043  0.0223 -0.3444  0.3907
13798TIP3    H162809   5.281   2.394   0.074 -0.0780  1.5546  1.5682
13798TIP3    H262810   5.138   2.403   0.123 -1.1590 -2.5295 -0.3799
13799TIP3   OH262811   0.119   5.651   5.720 -0.3810 -0.0485 -0.2775
13799TIP3    H162812   0.066   5.615   5.649 -0.6189  0.6466 -0.4531
13799TIP3    H262813   0.190   5.698   5.676  0.5857 -1.2349 -0.0500
13800TIP3   OH262814   0.218   1.390   2.309  0.2456 -0.4525 -0.1361
13800TIP3    H162815   0.232   1.352   2.222 -0.7346 -1.2635  0.0572
13800TIP3    H262816   0.167   1.326   2.357  0.3412  0.2051  0.8959
13801TIP3   OH262817   3.656   1.980  15.613  0.4888  0.1454 -0.5266
13801TIP3    H162818   3.745   1.951  15.592 -0.1412  0.0379 -3.4149
13801TIP3    H262819   3.605   1.959  15.535 -3.4985 -5.0331  2.8298
13802TIP3   OH262820   3.197   3.903   0.208 -0.4680  0.4537 -0.1524
13802TIP3    H162821   3.172   3.924   0.118  0.3849 -2.2382 -1.1445
13802TIP3    H262822   3.253   3.975   0.236  1.8820 -0.0317 -3.0257
13803TIP3   OH262823   0.624   2.549  12.553 -0.0500 -0.1135 -0.0715
13803TIP3    H162824   0.667   2.597  12.622 -0.6928 -0.8210  0.8520
13803TIP3    H262825   0.676   2.566  12.475 -0.3020  2.1224  0.1819
13804TIP3   OH262826   5.151   1.315  17.133 -0.1838  0.6692  0.7246
13804TIP3    H162827   5.179   1.248  17.071 -1.9966 -0.3416  0.9449
13804TIP3    H262828   5.131   1.391  17.079 -1.5225 -0.1286  0.0643
13805TIP3   OH262829   2.148   2.685   3.176 -0.0835  0.1900  0.3378
13805TIP3    H162830   2.153   2.677   3.081 -0.7497  1.2388  0.2000
13805TIP3    H262831   2.064   2.727   3.192  0.1835  0.3532  1.3732
13806TIP3   OH262832   2.351   0.397  14.795 -0.1521 -0.4492 -0.4161
13806TIP3    H162833   2.326   0.476  14.747 -1.2626  0.2377  1.1830
13806TIP3    H262834   2.332   0.325  14.735  0.3150  0.4556 -1.6822
13807TIP3   OH262835   0.597   4.969   1.677  0.4459  0.1887  0.4771
13807TIP3    H162836   0.569   5.012   1.596  0.7151 -0.7768 -0.1421
13807TIP3    H262837   0.689   4.993   1.688  1.8357 -3.2214 -1.9884
13808TIP3   OH262838   4.984   4.752  15.719 -0.2299 -0.2917 -0.0750
13808TIP3    H162839   5.012   4.681  15.661 -0.2694 -0.5543  0.2253
13808TIP3    H262840   4.976   4.711  15.805 -5.1399 -1.2519 -0.6534
13809TIP3   OH262841   1.285   1.427   3.329  0.1034 -0.2046 -0.3392
13809TIP3    H162842   1.284   1.342   3.285 -0.6750 -0.4879  0.1979
13809TIP3    H262843   1.324   1.487   3.265  2.1812 -1.2650 -0.1241
13810TIP3   OH262844   4.792   2.222   5.229  0.0205  0.2854 -0.2502
13810TIP3    H162845   4.771   2.265   5.146 -0.5263 -1.8110 -1.2620
13810TIP3    H262846   4.814   2.132   5.205 -0.3773 -0.4456  1.9031
13811TIP3   OH262847   2.142   0.603   1.678 -0.2055 -0.3372  0.6964
13811TIP3    H162848   2.096   0.685   1.696  0.3860  0.3161 -0.6506
13811TIP3    H262849   2.232   0.619   1.706  0.5346  0.4167 -1.8045
13812TIP3   OH262850   0.539   0.718  14.832  0.1539 -0.2008 -0.2063
13812TIP3    H162851   0.539   0.802  14.877  0.2273 -0.4720  0.3113
13812TIP3    H262852   0.449   0.707  14.802  0.1577  0.0863 -0.3262
13813TIP3   OH262853   3.338   3.962   5.356  0.6302  0.2373  0.2945
13813TIP3    H162854   3.332   3.893   5.289 -0.7169  0.9103 -0.3288
13813TIP3    H262855   3.254   4.007   5.350  0.7040  0.6670  2.0882
13814TIP3   OH262856   5.998   4.297   6.029 -0.3800 -0.6199  0.0762
13814TIP3    H162857   6.035   4.346   6.102 -0.8761 -0.1909  0.0408
13814TIP3    H262858   6.072   4.281   5.971 -0.3763  0.8839 -0.3638
13815TIP3   OH262859   2.839   1.302   3.981  0.1069  0.0371 -0.2156
13815TIP3    H162860   2.855   1.263   4.067 -1.2843 -0.1835 -0.0216
13815TIP3    H262861   2.776   1.243   3.940 -1.0317  1.3599 -0.4491
13816TIP3   OH262862   3.633   4.131   3.834 -0.2348 -0.2209 -0.3070
13816TIP3    H162863   3.640   4.202   3.897 -2.0371  1.3128 -1.7030
13816TIP3    H262864   3.621   4.175   3.750 -3.0233 -2.1128 -1.0237
13817TIP3   OH262865   5.624   6.625  11.824  0.0785 -0.3879 -0.0298
13817TIP3    H162866   5.534   6.633  11.793  0.3484 -0.6301 -0.9094
13817TIP3    H262867   5.616   6.596  11.914 -0.7281 -0.1906 -0.0313
13818TIP3   OH262868   4.214   3.594   2.699  0.3382 -0.8282 -0.3167
13818TIP3    H162869   4.219   3.659   2.629 -0.2225  1.1748  1.4258
13818TIP3    H262870   4.287   3.615   2.757  0.7721 -2.4301 -0.2302
13819TIP3   OH262871   2.420   2.201  13.840  0.4366  0.6551  0.1017
13819TIP3    H162872   2.447   2.110  13.856  0.5095  0.8427  1.1122
13819TIP3    H262873   2.420   2.241  13.927  0.2444  1.5821 -0.3209
13820TIP3   OH262874   2.249   3.324  13.931  0.2065  0.3531  0.2744
13820TIP3    H162875   2.301   3.375  13.869  0.7389 -0.6092 -0.0811
13820TIP3    H262876   2.256   3.234  13.900 -2.4278  0.2717 -0.3628
13821TIP3   OH262877   6.068   0.051  14.181 -0.6540 -0.4490  0.2437
13821TIP3    H162878   6.112  -0.024  14.142 -0.4893  0.4946 -1.4700
13821TIP3    H262879   5.980   0.020  14.200  0.2453 -1.9265  2.3728
13822TIP3   OH262880   6.458   5.563   1.474 -0.4546 -0.3335  0.7331
13822TIP3    H162881   6.401   5.615   1.417  0.6178  0.3784  0.2916
13822TIP3    H262882   6.419   5.475   1.472 -0.9180 -0.1205 -0.4278
13823TIP3   OH262883   1.512   0.926   4.138  0.3483 -0.1585 -0.6888
13823TIP3    H162884   1.551   0.844   4.108 -0.2886 -0.9856  0.6713
13823TIP3    H262885   1.525   0.925   4.232 -1.9322  0.0679 -0.3289
13824TIP3   OH262886   1.137   6.110   4.704 -0.9588 -0.0453 -0.1181
13824TIP3    H162887   1.227   6.096   4.731 -1.4778  0.1127  1.8114
13824TIP3    H262888   1.112   6.029   4.661  0.0333 -0.1584 -0.5004
13825TIP3   OH262889   5.406   4.155   4.017 -0.2405  0.1204  0.4473
13825TIP3    H162890   5.456   4.073   4.016 -0.3957  0.0178 -1.0652
13825TIP3    H262891   5.471   4.223   4.034 -0.1683 -0.3060  2.1500
13826TIP3   OH262892   0.371   5.064  16.966 -0.0529 -0.2130  0.3658
13826TIP3    H162893   0.394   5.136  16.908  1.5676  0.0622  1.2966
13826TIP3    H262894   0.291   5.093  17.011  1.4108  1.7388  1.8812
13827TIP3   OH262895   5.311   3.161  11.074  0.1355  0.0961  0.2105
13827TIP3    H162896   5.315   3.166  10.979 -0.5550  0.0122  0.1770
13827TIP3    H262897   5.395   3.121  11.099  0.8585  1.2512 -0.2699
13828TIP3   OH262898   5.662   1.876   0.979 -0.5725 -0.5510  0.4410
13828TIP3    H162899   5.752   1.902   0.961 -0.7573  0.2192  0.6034
13828TIP3    H262900   5.669   1.814   1.051 -0.1174 -1.0306 -0.0080
13829TIP3   OH262901   3.730   1.595   4.499 -0.2460 -0.6942  0.1224
13829TIP3    H162902   3.675   1.654   4.550 -1.0220 -2.8815  2.0045
13829TIP3    H262903   3.796   1.652   4.460 -0.7769  1.3845  2.0172
13830TIP3   OH262904   5.212   5.752  13.430  0.1222 -0.0495 -0.6914
13830TIP3    H162905   5.275   5.682  13.420  0.1222 -0.2834  0.6958
13830TIP3    H262906   5.210   5.770  13.524  0.6728  2.3193 -1.0580
13831TIP3   OH262907   3.412   6.446   0.368  0.1032  0.0182  0.4702
13831TIP3    H162908   3.351   6.426   0.297 -1.3334  0.2491  1.6031
13831TIP3    H262909   3.475   6.373   0.366  0.6336  0.4467 -1.5477
13832TIP3   OH262910   4.593   5.607   3.941 -0.1635  0.0955 -0.3179
13832TIP3    H162911   4.584   5.593   4.035  1.6917 -0.2829 -0.1687
13832TIP3    H262912   4.629   5.525   3.907 -0.2925  0.4199 -1.2837
13833TIP3   OH262913   3.917   4.847  16.461  0.3459  0.4609  0.1594
13833TIP3    H162914   3.969   4.780  16.417  0.8789  1.3318 -0.5618
13833TIP3    H262915   3.974   4.879  16.530  0.0284  0.0723  0.6127
13834TIP3   OH262916   0.304   5.340  12.004  0.3271  0.1509 -0.2586
13834TIP3    H162917   0.280   5.431  11.987  0.0125  0.0818 -0.1898
13834TIP3    H262918   0.308   5.300  11.918  0.1899  0.1613 -0.2698
13835TIP3   OH262919   3.603   3.170   2.336 -0.4442  0.2169  0.3632
13835TIP3    H162920   3.695   3.148   2.354  0.2027 -0.5988 -3.2315
13835TIP3    H262921   3.563   3.086   2.313 -1.6820  0.7984  0.3457
13836TIP3   OH262922   4.345   3.142  14.396  0.2590 -0.4216 -0.5257
13836TIP3    H162923   4.377   3.093  14.321  1.4312  1.3720 -1.2690
13836TIP3    H262924   4.377   3.093  14.472  1.0873 -1.0080 -1.2320
13837TIP3   OH262925   2.610   2.418   6.482 -0.3193  0.0445 -0.2491
13837TIP3    H162926   2.632   2.403   6.574 -0.7340  0.1595 -0.1279
13837TIP3    H262927   2.656   2.349   6.435 -0.2511 -0.1270  0.0636
13838TIP3   OH262928   6.224   0.754   1.448  0.0405 -0.0819 -0.6808
13838TIP3    H162929   6.230   0.658   1.454 -0.0132 -0.2295 -2.4485
13838TIP3    H262930   6.132   0.773   1.462  0.3046 -0.1038  1.3585
13839TIP3   OH262931   2.780   3.726  12.137 -0.0745 -0.4168 -0.2874
13839TIP3    H162932   2.850   3.770  12.186 -0.7272  0.2889  0.0374
13839TIP3    H262933   2.699   3.764  12.171 -0.6338 -1.3484 -0.5309
13840TIP3   OH262934   3.368   6.439  15.524 -0.0104  0.0019 -0.0229
13840TIP3    H162935   3.340   6.377  15.591 -1.0837  0.9025  0.3802
13840TIP3    H262936   3.288   6.470  15.484  0.5672  0.3745 -0.9267
13841TIP3   OH262937   0.102   1.614   1.153  0.1823  0.2639  0.4833
13841TIP3    H162938   0.161   1.545   1.122 -1.3225 -0.8755  0.0398
13841TIP3    H262939   0.130   1.692   1.106  0.0112 -0.7181 -1.3522
13842TIP3   OH262940   0.379   0.301   5.355 -0.0226  0.2526 -0.2578
13842TIP3    H162941   0.359   0.387   5.393 -0.0198 -0.0010  0.3141
13842TIP3    H262942   0.397   0.245   5.430  3.9823  0.7097 -0.6577
13843TIP3   OH262943   2.707   3.708   3.949 -0.0352  0.2514 -0.2641
13843TIP3    H162944   2.715   3.633   3.890 -1.4867  1.7575 -2.5178
13843TIP3    H262945   2.681   3.670   4.032 -2.8109 -1.6635 -1.8458
13844TIP3   OH262946   2.703   0.920   0.730  0.3054 -0.7081 -0.4020
13844TIP3    H162947   2.701   1.015   0.740  0.4123 -0.7901  0.4088
13844TIP3    H262948   2.677   0.905   0.639 -2.2888 -0.0192  0.1416
13845TIP3   OH262949   0.662   1.810   3.019  0.1259 -0.4536 -0.0575
13845TIP3    H162950   0.698   1.816   3.107 -2.0486 -0.6065  0.9252
13845TIP3    H262951   0.593   1.743   3.025 -0.5385  0.0188 -1.6795
13846TIP3   OH262952   3.042   4.933  16.290 -0.7855  0.5934  0.2043
13846TIP3    H162953   3.113   4.990  16.319 -0.2351 -0.4218  0.9087
13846TIP3    H262954   2.963   4.970  16.331 -0.6500  1.6330 -0.4542
13847TIP3   OH262955   4.538   1.669   1.891  0.0908  0.5088  0.0177
13847TIP3    H162956   4.609   1.613   1.923  1.2967  1.7793 -0.3173
13847TIP3    H262957   4.545   1.749   1.943 -1.2643  0.5771  0.1358
13848TIP3   OH262958   1.695   6.361   6.117  0.1966 -0.3297 -0.5990
13848TIP3    H162959   1.600   6.378   6.116  0.1508 -0.5832 -0.5130
13848TIP3    H262960   1.703   6.274   6.154  0.4126 -0.6435 -1.3685
13849TIP3   OH262961   6.481   1.683  10.309 -0.3116  0.2043  0.4468
13849TIP3    H162962   6.562   1.707  10.352 -1.2959  0.7796  2.0557
13849TIP3    H262963   6.466   1.591  10.333 -1.0847  0.6524  1.7511
13850TIP3   OH262964   5.089   6.255  13.999 -0.0181  0.2531  0.1842
13850TIP3    H162965   5.016   6.198  13.974  0.1761  0.1264 -0.0881
13850TIP3    H262966   5.100   6.240  14.093  1.3809 -1.7144 -0.2318
13851TIP3   OH262967   2.992   5.263   1.567 -0.4072  0.5727  0.4252
13851TIP3    H162968   3.054   5.305   1.508 -1.3975  0.6183 -0.6165
13851TIP3    H262969   3.040   5.188   1.603  0.6504  1.3195  0.6176
13852TIP3   OH262970   1.197   6.089   6.305 -0.0431 -0.2330 -0.5643
13852TIP3    H162971   1.174   6.017   6.363  2.2813 -0.1267  0.6057
13852TIP3    H262972   1.195   6.051   6.217 -0.6253 -1.2221 -0.1393
13853TIP3   OH262973   2.492   4.930   2.682  0.6002 -0.2466 -0.2940
13853TIP3    H162974   2.565   4.988   2.659 -1.1344  1.8604 -0.7321
13853TIP3    H262975   2.505   4.853   2.626  1.2364  1.0743 -2.0560
13854TIP3   OH262976   1.320   3.731  14.833  0.2917 -0.1708 -0.2001
13854TIP3    H162977   1.327   3.687  14.749  0.6907 -0.1313 -0.1899
13854TIP3    H262978   1.289   3.819  14.811  1.2917  0.1467 -0.4028
13855TIP3   OH262979   5.322   2.858   6.550 -0.3310 -0.3208 -0.0278
13855TIP3    H162980   5.315   2.828   6.459 -2.0605  0.8358 -0.3166
13855TIP3    H262981   5.382   2.933   6.546 -1.0558  0.2542 -0.3798
13856TIP3   OH262982   5.234   3.200   3.848 -0.5053  0.3209 -0.6003
13856TIP3    H162983   5.158   3.246   3.881 -1.1860 -1.3230  0.2389
13856TIP3    H262984   5.307   3.233   3.901 -0.9149  0.6423 -0.2288
13857TIP3   OH262985   3.946   3.283   1.832 -0.5978 -0.1094  0.2570
13857TIP3    H162986   3.957   3.337   1.910 -0.3641 -1.5071  1.2213
13857TIP3    H262987   3.851   3.277   1.821 -0.6438 -0.2430  0.6884
13858TIP3   OH262988   5.981   3.371  14.934  0.0246 -0.4901 -0.4606
13858TIP3    H162989   6.049   3.326  14.882 -1.1419  0.1837 -2.7157
13858TIP3    H262990   5.938   3.301  14.982 -0.3549 -1.5671 -2.2531
13859TIP3   OH262991   3.938   4.279  11.112  0.0249 -0.1534 -0.0135
13859TIP3    H162992   3.994   4.273  11.034 -0.5071 -1.4368 -0.3244
13859TIP3    H262993   3.941   4.191  11.150  0.0256  0.3787  1.2519
13860TIP3   OH262994   2.819   3.843   5.648 -0.3282  0.4496  0.6299
13860TIP3    H162995   2.881   3.888   5.705 -0.6796 -0.3004  1.6525
13860TIP3    H262996   2.735   3.885   5.667 -0.6850 -0.6669  1.7040
13861TIP3   OH262997   1.784   2.090  12.559  0.7325 -0.2044  0.4484
13861TIP3    H162998   1.802   2.099  12.652  3.6450 -1.6371  0.1499
13861TIP3    H262999   1.742   2.004  12.551  0.8383 -0.2579  0.4493
13862TIP3   OH263000   3.219   5.472   2.156  0.3097 -0.1627  0.2271
13862TIP3    H163001   3.127   5.445   2.156  0.3803 -0.4161  0.6888
13862TIP3    H263002   3.240   5.486   2.063 -0.8074  2.0292  0.2422
13863TIP3   OH263003   2.087   6.564  12.869  0.0574  0.2077 -0.0503
13863TIP3    H163004   2.126   6.480  12.842  0.4135  0.3178  0.1164
13863TIP3    H263005   2.066   6.552  12.962  0.1846  0.3327 -0.0056
13864TIP3   OH263006   6.074   1.818   3.435  0.6039  0.0781 -0.4475
13864TIP3    H163007   6.167   1.837   3.433  0.9430 -1.3259  0.3556
13864TIP3    H263008   6.056   1.794   3.526 -0.0712 -1.7423 -1.0076
13865TIP3   OH263009   6.236   6.337   4.901 -0.6773  0.2470  0.0482
13865TIP3    H163010   6.180   6.262   4.925  0.3785 -0.1203  1.4758
13865TIP3    H263011   6.228   6.397   4.975  0.0110  0.6501 -0.1981
13866TIP3   OH263012   1.253   1.379   4.426 -0.0151 -0.3133 -0.7858
13866TIP3    H163013   1.254   1.291   4.463  1.0027  0.1977  0.4864
13866TIP3    H263014   1.328   1.381   4.366 -1.6264 -1.1212 -2.9866
13867TIP3   OH263015   5.875   1.607  15.492  0.3755 -0.1983  0.0610
13867TIP3    H163016   5.919   1.608  15.407  1.3027 -0.3428  0.5391
13867TIP3    H263017   5.796   1.555  15.476  0.5990 -0.3303 -0.6800
13868TIP3   OH263018   3.992   4.091  16.170  0.3237 -0.0013 -0.1323
13868TIP3    H163019   3.969   4.119  16.258  0.3201 -2.0740  0.5843
13868TIP3    H263020   4.066   4.146  16.145 -0.0676  1.0218  0.9050
13869TIP3   OH263021   6.579   0.050  15.007  0.0390 -0.1251 -0.4182
13869TIP3    H163022   6.586   0.014  14.918 -1.1862 -1.4769 -0.0133
13869TIP3    H263023   6.485   0.058  15.022  0.2003 -0.5910  1.0079
13870TIP3   OH263024   0.728   5.801  16.964 -0.0711  0.6286  0.6407
13870TIP3    H163025   0.638   5.770  16.978 -0.9423  2.7649  0.1892
13870TIP3    H263026   0.782   5.722  16.972 -2.0794 -0.9385 -0.2091
13871TIP3   OH263027   5.916   2.275   2.193  0.2974  0.6499 -0.2411
13871TIP3    H163028   5.837   2.220   2.191  0.1554  0.8547 -0.2403
13871TIP3    H263029   5.917   2.320   2.109 -0.4900  1.9151  0.3922
13872TIP3   OH263030   3.932   4.191  16.426 -0.4451 -0.1785 -0.0623
13872TIP3    H163031   3.839   4.214  16.429 -0.5997 -0.8999  1.0947
13872TIP3    H263032   3.974   4.255  16.483 -0.4932 -0.9666  0.8794
13873TIP3   OH263033   0.632   3.012   1.238  0.3020  0.3541  0.0536
13873TIP3    H163034   0.726   3.030   1.239  0.2491  0.7106 -0.7941
13873TIP3    H263035   0.609   3.012   1.145 -0.9294  2.3748  0.3008
13874TIP3   OH263036   1.532   1.239  11.677 -0.8010 -0.6163  0.3802
13874TIP3    H163037   1.437   1.252  11.678 -0.6621  0.5991 -0.4366
13874TIP3    H263038   1.554   1.226  11.585 -0.0196  0.4613  0.3984
13875TIP3   OH263039   5.271   3.577  15.958 -0.1152 -0.2164  0.4221
13875TIP3    H163040   5.296   3.493  15.997  3.3637  1.2595  1.7923
13875TIP3    H263041   5.303   3.573  15.868 -0.4929 -0.5632  0.3023
13876TIP3   OH263042   5.994   1.363  11.543  0.4595  0.0388  0.2798
13876TIP3    H163043   5.913   1.357  11.493 -0.9893 -0.1414  2.5368
13876TIP3    H263044   5.981   1.437  11.602  2.5880  0.9860 -0.3148
13877TIP3   OH263045   3.537   6.477   3.268  0.5751 -0.1260 -0.2094
13877TIP3    H163046   3.449   6.475   3.231  0.6475 -1.4970 -0.3508
13877TIP3    H263047   3.527   6.437   3.355  1.0508 -0.2843 -0.2256
13878TIP3   OH263048   5.128   0.492  10.802  0.0671  0.1016  0.3552
13878TIP3    H163049   5.092   0.487  10.891  0.0431  1.1485  0.4216
13878TIP3    H263050   5.137   0.401  10.774  1.0984 -0.2966  1.8469
13879TIP3   OH263051   1.510   4.228  13.604  0.8060  0.5380 -0.7535
13879TIP3    H163052   1.493   4.311  13.561 -0.4203  1.3601  1.2104
13879TIP3    H263053   1.449   4.167  13.563 -1.2949  1.6095  0.6495
13880TIP3   OH263054   1.071   4.282   3.376  0.1928 -0.1326  0.5497
13880TIP3    H163055   1.113   4.228   3.443 -0.1554  0.8318  1.5860
13880TIP3    H263056   1.110   4.253   3.293 -0.2602 -2.1989  1.0117
13881TIP3   OH263057   1.059   5.313  12.052  0.1729 -0.5934  0.2214
13881TIP3    H163058   0.977   5.276  12.084 -1.1630  0.6798 -1.5722
13881TIP3    H263059   1.036   5.360  11.972  2.0648  2.4397  1.2658
13882TIP3   OH263060   1.503   3.552   5.355 -0.5662  0.7774 -0.5350
13882TIP3    H163061   1.593   3.563   5.325 -0.4586 -0.3877 -0.6810
13882TIP3    H263062   1.451   3.548   5.275 -0.6341  0.5226 -0.4785
13883TIP3   OH263063   4.886   5.991   0.389 -0.1235  0.5933  0.6024
13883TIP3    H163064   4.937   5.946   0.322 -0.2690  0.0267  0.8717
13883TIP3    H263065   4.908   5.947   0.471 -0.0289  1.2098  0.9202
13884TIP3   OH263066   2.597   4.333  14.684  0.1039  0.3003 -0.0718
13884TIP3    H163067   2.557   4.361  14.767 -0.6650 -1.7847  0.3276
13884TIP3    H263068   2.531   4.354  14.618  0.7057  1.9422 -0.1915
13885TIP3   OH263069   5.011   2.607   2.969  0.8732  0.0191 -0.6845
13885TIP3    H163070   5.066   2.534   2.943  1.6286  0.5038 -0.4588
13885TIP3    H263071   4.996   2.657   2.888  1.6284  0.4598 -0.5583
13886TIP3   OH263072   3.807   1.241  13.928  0.1067  0.0592 -0.3701
13886TIP3    H163073   3.822   1.212  14.018 -1.0799  1.1092  0.1919
13886TIP3    H263074   3.867   1.188  13.875  0.5593 -0.8278  0.9934
13887TIP3   OH263075   3.979   2.914   0.940  0.9687 -0.4925  0.2818
13887TIP3    H163076   4.022   2.959   0.867  1.2744 -0.6645  0.3491
13887TIP3    H263077   3.976   2.979   1.011 -1.1918  0.3575 -0.5124
13888TIP3   OH263078   0.312   5.285   3.309 -0.0541  0.1969  0.2113
13888TIP3    H163079   0.243   5.334   3.264  0.4853  0.2623 -0.5517
13888TIP3    H263080   0.268   5.205   3.338 -0.8896  0.9992  1.2769
13889TIP3   OH263081   2.236   2.885  14.919  0.5912  0.0346  0.0807
13889TIP3    H163082   2.230   2.831  14.997  1.5638  1.1151  0.9399
13889TIP3    H263083   2.184   2.963  14.941 -0.5623 -0.3854 -1.0286
13890TIP3   OH263084   5.077   2.982   0.152 -0.1207  0.2083  0.0854
13890TIP3    H163085   5.160   2.934   0.147  0.5164  1.3485 -0.7542
13890TIP3    H263086   5.081   3.044   0.079 -2.1026 -0.2936 -0.5164
13891TIP3   OH263087   4.808   1.801  14.445 -0.5777  0.1547 -0.6451
13891TIP3    H163088   4.806   1.856  14.523 -1.5140 -0.0166 -0.5278
13891TIP3    H263089   4.735   1.740  14.458  1.0113 -1.7636 -0.3022
13892TIP3   OH263090   1.284   2.861  15.475 -0.1869 -0.3861 -0.1492
13892TIP3    H163091   1.242   2.795  15.531  0.4508 -2.0006 -1.4828
13892TIP3    H263092   1.301   2.815  15.392  0.8588  1.2885 -0.9229
13893TIP3   OH263093   5.240   2.696  12.599 -0.3418  0.6607 -0.4306
13893TIP3    H163094   5.188   2.685  12.520  0.2898 -2.7885 -0.5066
13893TIP3    H263095   5.230   2.614  12.647  1.0442  1.7991  2.0297
13894TIP3   OH263096   1.046   5.666  13.705 -0.1793 -0.6549 -0.0961
13894TIP3    H163097   1.140   5.654  13.719 -0.5856 -2.2782  1.5164
13894TIP3    H263098   1.039   5.692  13.613  1.9212  0.7765  0.0688
13895TIP3   OH263099   3.131   5.434  13.872  0.1546 -0.3593 -0.5365
13895TIP3    H163100   3.210   5.443  13.925  0.0847  1.4542 -0.6609
13895TIP3    H263101   3.059   5.453  13.932 -0.1735 -1.6652 -0.5031
13896TIP3   OH263102   0.122   0.391  11.005  0.1483 -0.6655 -0.3295
13896TIP3    H163103   0.119   0.444  11.084  0.2999 -1.8984  0.5444
13896TIP3    H263104   0.065   0.316  11.023 -0.4566 -0.5744 -1.7098
13897TIP3   OH263105   6.724   0.450  16.968 -0.1539  0.4417 -0.4135
13897TIP3    H163106   6.696   0.451  17.059  2.0960 -0.2508  0.3505
13897TIP3    H263107   6.771   0.367  16.958 -0.2874  0.5374 -2.1927
13898TIP3   OH263108   4.367   3.655  11.994 -0.4371  0.2233  0.3718
13898TIP3    H163109   4.342   3.590  12.059 -0.6163 -0.2919 -0.1972
13898TIP3    H263110   4.294   3.717  11.992 -0.6529 -0.0311  0.3172
13899TIP3   OH263111   1.362   3.513   4.891  0.6865 -0.2430  0.0363
13899TIP3    H163112   1.422   3.505   4.817  3.1241 -2.5581  2.0607
13899TIP3    H263113   1.415   3.554   4.960 -0.8382 -0.0904  1.1600
13900TIP3   OH263114   2.346   6.711   5.482  0.0451 -0.0694 -0.0207
13900TIP3    H163115   2.407   6.784   5.489 -0.9735  0.7619  0.3578
13900TIP3    H263116   2.352   6.685   5.390  0.8530  0.0897 -0.0254
13901TIP3   OH263117   5.110   2.337  15.764 -0.1389  1.0457  0.0734
13901TIP3    H163118   5.165   2.340  15.842  0.1672 -1.6082  0.0493
13901TIP3    H263119   5.168   2.362  15.692  1.1447 -1.6494  0.0569
13902TIP3   OH263120   3.459   1.922   2.113 -0.2206  0.7611 -0.1856
13902TIP3    H163121   3.528   1.951   2.054 -1.6440  0.4520 -2.0797
13902TIP3    H263122   3.454   1.827   2.099 -1.5820  0.8948 -0.7135
13903TIP3   OH263123   4.218   6.691  13.535 -0.2930  0.2125  0.5486
13903TIP3    H163124   4.293   6.651  13.578 -1.2304 -0.6080  1.4753
13903TIP3    H263125   4.233   6.677  13.442  0.3071 -0.6686  0.7686
13904TIP3   OH263126   2.444   4.941   1.408  0.4309 -0.2042 -0.0949
13904TIP3    H163127   2.516   4.913   1.465 -1.0543 -1.6611  1.1716
13904TIP3    H263128   2.370   4.886   1.435 -1.4766  2.0264 -0.5496
13905TIP3   OH263129   1.492   5.535  11.762 -0.3239  0.2236 -0.1576
13905TIP3    H163130   1.413   5.481  11.767 -0.9789  0.9406 -1.8968
13905TIP3    H263131   1.516   5.533  11.669  0.4299  1.7866 -0.0301
13906TIP3   OH263132   0.361   0.751   3.151  0.4179  0.5053  0.1807
13906TIP3    H163133   0.292   0.689   3.128 -0.3349  0.7350  1.6912
13906TIP3    H263134   0.374   0.804   3.072  1.0025 -1.4602 -1.1113
13907TIP3   OH263135   0.990   4.565  14.875 -0.5905 -0.6081  0.4470
13907TIP3    H163136   1.064   4.595  14.926  0.1387 -2.2079  0.3732
13907TIP3    H263137   0.947   4.646  14.846 -0.0395  0.3272  2.1193
13908TIP3   OH263138   5.386   5.704  14.952 -0.0127 -0.0472 -0.4924
13908TIP3    H163139   5.299   5.671  14.971 -0.3333 -0.0950 -1.9322
13908TIP3    H263140   5.425   5.720  15.038 -0.7247 -1.8420  0.2110
13909TIP3   OH263141   4.250   6.567   3.340 -0.5504  0.4705 -0.2704
13909TIP3    H163142   4.184   6.636   3.325 -0.3555  0.6668 -0.2363
13909TIP3    H263143   4.293   6.592   3.422 -0.8385  0.0153  0.0205
13910TIP3   OH263144   0.894   4.296  14.852 -0.1387  0.1544 -0.4306
13910TIP3    H163145   0.822   4.335  14.902 -1.0942  1.7668 -2.8978
13910TIP3    H263146   0.955   4.368  14.838  0.0340 -0.2086 -1.6696
13911TIP3   OH263147   6.470   1.463  16.883  0.2599  0.0347  0.2996
13911TIP3    H163148   6.504   1.418  16.960 -0.4466 -0.7131  0.1924
13911TIP3    H263149   6.378   1.436  16.878  0.5087 -0.6696 -1.3270
13912TIP3   OH263150   0.500   5.604   1.527  0.1452 -0.8479 -0.4798
13912TIP3    H163151   0.436   5.534   1.536  0.0474 -0.7142 -0.1230
13912TIP3    H263152   0.551   5.601   1.608  1.2942 -1.6449 -1.2030
13913TIP3   OH263153   0.010   2.292  14.400  0.0441  0.5158  0.2965
13913TIP3    H163154  -0.085   2.298  14.413  0.3311  0.3996  2.9125
13913TIP3    H263155   0.047   2.328  14.480  2.3086  2.9043 -1.6662
13914TIP3   OH263156   0.873   1.760  14.738 -0.0038  0.1922  0.0147
13914TIP3    H163157   0.816   1.809  14.679 -0.4708 -1.7996 -1.2960
13914TIP3    H263158   0.813   1.710  14.793  0.4624 -0.5859 -0.1720
13915TIP3   OH263159   2.313   5.605   4.087  0.6426  0.4701  0.0625
13915TIP3    H163160   2.364   5.524   4.081  1.2587  0.8916 -0.6715
13915TIP3    H263161   2.233   5.580   4.133  0.3935 -0.7640 -0.9774
13916TIP3   OH263162   0.171   0.258  11.857 -0.3385  0.0967  0.0108
13916TIP3    H163163   0.252   0.294  11.821 -0.1592 -0.6107 -0.3217
13916TIP3    H263164   0.185   0.257  11.952 -0.8942  2.1530  0.1548
13917TIP3   OH263165   4.806   3.955   1.462  0.2352  0.7667  0.4851
13917TIP3    H163166   4.893   3.948   1.502  0.2972  1.3437  0.4601
13917TIP3    H263167   4.793   3.871   1.418  0.5621  0.4793  0.9262
13918TIP3   OH263168   4.879   5.307   5.237  0.3716  0.3210  0.0012
13918TIP3    H163169   4.814   5.309   5.167 -1.4333 -0.9147  1.5511
13918TIP3    H263170   4.833   5.342   5.313  2.1170  1.1163  0.7331
13919TIP3   OH263171   4.294   0.685  12.677 -0.4676  0.2366 -0.0746
13919TIP3    H163172   4.240   0.607  12.678 -0.8634  0.4950 -0.6390
13919TIP3    H263173   4.263   0.734  12.601  0.4543  0.4575 -0.3188
13920TIP3   OH263174   1.493   1.151   1.172 -0.0670 -0.0900 -0.0007
13920TIP3    H163175   1.427   1.203   1.218 -1.2758 -0.1579 -1.5465
13920TIP3    H263176   1.473   1.165   1.079  1.8103 -0.5204 -0.5085
13921TIP3   OH263177   3.158   2.749   2.801  0.2817  0.0871  0.0241
13921TIP3    H163178   3.104   2.671   2.812  1.1915 -0.6342 -0.4997
13921TIP3    H263179   3.130   2.786   2.717  0.0088  0.2130  0.1664
13922TIP3   OH263180   0.817   6.597   5.186 -0.0871 -0.0212 -0.4482
13922TIP3    H163181   0.744   6.591   5.124 -0.3656  0.0536 -0.1313
13922TIP3    H263182   0.775   6.613   5.271  0.2176 -1.2631 -0.0454
13923TIP3   OH263183   6.040   3.841  16.207 -0.7349 -0.2986  0.5432
13923TIP3    H163184   6.109   3.788  16.246 -0.0447  1.7836  2.3215
13923TIP3    H263185   5.959   3.799  16.234 -0.2136 -1.3463  0.5326
13924TIP3   OH263186   2.959   2.018  12.247  0.2959  0.0025  0.9390
13924TIP3    H163187   2.913   2.062  12.176 -0.5421 -0.4432  1.1964
13924TIP3    H263188   3.021   2.083  12.279  0.9955  0.0686 -0.4721
13925TIP3   OH263189   4.549   3.697  15.415  0.1800 -0.1653 -0.2121
13925TIP3    H163190   4.520   3.747  15.492  1.7755  0.1602  0.2061
13925TIP3    H263191   4.556   3.607  15.447  0.8813 -0.0238  0.0521
13926TIP3   OH263192   0.682   4.549  12.651 -0.0194 -0.6493 -0.2156
13926TIP3    H163193   0.730   4.517  12.727  0.7450 -0.6325 -0.6761
13926TIP3    H263194   0.606   4.491  12.644  0.6205 -1.5030 -0.2318
13927TIP3   OH263195   6.285   5.673   1.292 -0.0866  0.3923  0.0958
13927TIP3    H163196   6.324   5.704   1.211 -1.2280 -0.5873 -0.8635
13927TIP3    H263197   6.223   5.742   1.317  0.3228  0.7315  0.1704
13928TIP3   OH263198   3.183   6.525  13.638 -0.5480  0.5396  0.4097
13928TIP3    H163199   3.106   6.559  13.591 -1.4015 -0.6736  0.8976
13928TIP3    H263200   3.147   6.479  13.713  0.4879 -1.9383 -0.5015
13929TIP3   OH263201   6.677   2.713  12.184  0.3287 -0.4797  0.0337
13929TIP3    H163202   6.594   2.761  12.195  0.4835 -0.4530  1.2065
13929TIP3    H263203   6.679   2.689  12.091 -0.1699  1.0384 -0.3996
13930TIP3   OH263204   4.611   4.773   4.207 -0.1220  0.0928  0.5345
13930TIP3    H163205   4.603   4.779   4.111 -0.2163  0.4160  0.5610
13930TIP3    H263206   4.537   4.825   4.240 -0.6702 -0.8319  0.7781
13931TIP3   OH263207   1.204   6.463   6.181 -0.0737 -0.0156 -0.0332
13931TIP3    H163208   1.189   6.394   6.245 -1.5158  0.1118 -0.2057
13931TIP3    H263209   1.223   6.541   6.234 -1.1712  0.0706  0.2510
13932TIP3   OH263210   1.087   0.394  15.106  0.1415 -0.3216  0.5524
13932TIP3    H163211   1.114   0.303  15.092 -1.8207 -0.8698 -0.0041
13932TIP3    H263212   1.046   0.393  15.192  4.0403  1.0773  2.6316
13933TIP3   OH263213   0.838   5.236   5.723  0.6321 -0.1960 -0.3589
13933TIP3    H163214   0.858   5.314   5.672  0.4288  0.5409  0.6394
13933TIP3    H263215   0.785   5.268   5.796 -2.0886 -1.7005 -1.5333
13934TIP3   OH263216   3.268   2.966   2.028 -0.3508 -0.3748 -0.2469
13934TIP3    H163217   3.361   2.958   2.007  0.0557  1.0874  0.8367
13934TIP3    H263218   3.240   3.046   1.985 -1.3223 -1.1762 -1.1599
13935TIP3   OH263219   0.845   6.318  11.118 -0.2089  0.3185  0.7984
13935TIP3    H163220   0.908   6.355  11.055  0.3085 -1.1053  0.4517
13935TIP3    H263221   0.765   6.306  11.066 -0.1469  0.2601  0.7159
13936TIP3   OH263222   4.902   3.747   1.790 -0.3884  0.5888  0.2504
13936TIP3    H163223   4.868   3.771   1.876 -1.2430  1.0940 -0.2092
13936TIP3    H263224   4.929   3.830   1.751 -0.4203  0.4209 -0.1332
13937TIP3   OH263225   2.275   3.825   4.225  0.3197  0.1049 -0.1375
13937TIP3    H163226   2.217   3.900   4.211  0.5348  0.2598 -0.1997
13937TIP3    H263227   2.317   3.811   4.140 -1.6151 -1.6979 -0.8920
13938TIP3   OH263228   4.205   3.473   0.973 -0.1144  0.4653  0.4650
13938TIP3    H163229   4.156   3.393   0.958  0.7193 -0.2192  1.2556
13938TIP3    H263230   4.266   3.478   0.899 -0.4639  0.6101  0.1846
13939TIP3   OH263231   1.244   0.621   1.001  0.4889 -0.0907 -0.1186
13939TIP3    H163232   1.274   0.702   1.041 -0.7486  0.6922 -0.6994
13939TIP3    H263233   1.324   0.572   0.984  1.2774  1.0508  0.1467
13940TIP3   OH263234   0.357   0.124   4.041 -0.2610 -0.2980 -0.6878
13940TIP3    H163235   0.314   0.165   3.965  1.2096  0.1898 -1.3049
13940TIP3    H263236   0.328   0.033   4.039 -0.5791 -0.1877 -1.5854
13941TIP3   OH263237   6.413   5.429  13.145 -0.2237  0.5054  0.6714
13941TIP3    H163238   6.320   5.410  13.136 -0.0093  0.3429 -2.3041
13941TIP3    H263239   6.454   5.380  13.074  2.1961  0.3730  2.0602
13942TIP3   OH263240   4.608   0.277   5.581  0.2829  0.2706 -0.6647
13942TIP3    H163241   4.652   0.192   5.574  1.6130  0.7965  0.6247
13942TIP3    H263242   4.642   0.329   5.508  1.1768  0.3814 -0.1872
13943TIP3   OH263243   1.912   6.137   5.557  0.0743 -0.4206 -0.1313
13943TIP3    H163244   1.871   6.218   5.528  0.4947 -0.4575 -0.8459
13943TIP3    H263245   1.838   6.078   5.574 -0.1958 -0.3303 -0.9400
13944TIP3   OH263246   6.303   5.277  15.342 -0.4314  0.4260 -0.4768
13944TIP3    H163247   6.261   5.197  15.312  0.8936 -0.9930  1.2788
13944TIP3    H263248   6.231   5.341  15.347 -1.9762 -1.2804  0.2966
13945TIP3   OH263249   6.744   4.124  14.002 -0.0187 -0.1175 -0.9255
13945TIP3    H163250   6.807   4.101  14.071  0.2848  1.3557 -0.6887
13945TIP3    H263251   6.789   4.191  13.951 -1.0885  0.3672 -1.2488
13946TIP3   OH263252   4.922   1.031  14.515  0.6727  0.3004 -0.4668
13946TIP3    H163253   4.933   1.124  14.494  0.6352  1.1551  2.7716
13946TIP3    H263254   4.864   1.030  14.591  1.7407 -2.2859  0.4306
13947TIP3   OH263255   5.630   2.448  15.039 -0.5969 -0.1402 -0.0138
13947TIP3    H163256   5.702   2.452  15.102 -0.5572 -0.3758 -0.0435
13947TIP3    H263257   5.564   2.393  15.081 -0.9870  0.5099  0.2389
13948TIP3   OH263258   6.199   5.460   5.457 -0.5896  0.1607 -0.8589
13948TIP3    H163259   6.182   5.373   5.494 -2.1526  0.7370 -0.1394
13948TIP3    H263260   6.114   5.504   5.458  0.1731  1.7179 -1.1921
13949TIP3   OH263261   5.953   3.869   0.379  0.6201 -0.3400  0.1815
13949TIP3    H163262   5.981   3.876   0.288 -0.4371 -0.2077 -0.1433
13949TIP3    H263263   6.034   3.850   0.428  1.9891  3.7437 -0.1740
13950TIP3   OH263264   5.010   3.973   5.661 -0.7619 -0.0824 -0.0896
13950TIP3    H163265   5.021   3.898   5.719 -0.7740  2.0792  2.9319
13950TIP3    H263266   4.925   4.010   5.684 -1.0418  0.5455 -1.9412
13951TIP3   OH263267   5.447   5.247   1.426  0.3847 -0.0240  0.4628
13951TIP3    H163268   5.443   5.152   1.424  0.2578 -0.0140 -0.9253
13951TIP3    H263269   5.520   5.269   1.368 -0.0818  0.7351  0.1434
13952TIP3   OH263270   3.658   1.774  16.127 -0.8666  0.4161  0.0554
13952TIP3    H163271   3.563   1.775  16.135 -0.7802  1.2146  1.1203
13952TIP3    H263272   3.677   1.827  16.049 -1.3156 -0.5559 -0.7469
13953TIP3   OH263273   5.907   6.666  13.437 -0.6876 -0.3508  0.3480
13953TIP3    H163274   5.977   6.664  13.502 -0.6823  1.8092  0.4964
13953TIP3    H263275   5.933   6.602  13.371 -0.8366 -2.7987  2.5479
13954TIP3   OH263276   4.226   0.335   2.525  0.1265  0.3994 -0.0118
13954TIP3    H163277   4.296   0.299   2.471  0.0104  1.2438 -0.7546
13954TIP3    H263278   4.234   0.430   2.514 -1.0559  0.5122 -0.0256
13955TIP3   OH263279   0.147   1.843   4.281 -0.2878 -0.3664  0.4294
13955TIP3    H163280   0.071   1.786   4.296  1.0300 -1.9717  1.3619
13955TIP3    H263281   0.222   1.789   4.306  1.0524  1.7733  1.2760
13956TIP3   OH263282   3.557   4.505  10.782  0.0524 -0.1430 -0.1168
13956TIP3    H163283   3.594   4.520  10.695 -1.4752  0.3958 -0.7055
13956TIP3    H263284   3.632   4.483  10.837  1.1034 -0.0034 -1.4620
13957TIP3   OH263285   2.859   3.650   6.576 -0.2650 -0.0245 -0.0806
13957TIP3    H163286   2.863   3.609   6.489 -0.8552  2.4456 -1.3719
13957TIP3    H263287   2.767   3.674   6.587 -0.4676 -1.5023  1.8841
13958TIP3   OH263288   1.339   1.717   3.462 -0.7525  0.2763  0.1039
13958TIP3    H163289   1.257   1.694   3.505 -0.6419  0.2197  0.2832
13958TIP3    H263290   1.322   1.802   3.421 -1.1493 -0.1033 -0.5282
13959TIP3   OH263291   2.040   4.774  11.856  0.4639  0.3375  0.1726
13959TIP3    H163292   2.083   4.755  11.773  0.9624 -1.4651  0.7844
13959TIP3    H263293   1.947   4.763  11.838  0.6777 -3.3020  0.4726
13960TIP3   OH263294   4.601   2.437   1.598 -0.7345 -0.2076 -0.1240
13960TIP3    H163295   4.597   2.409   1.689 -0.9967 -0.0959 -0.1020
13960TIP3    H263296   4.577   2.529   1.599  0.3946  0.1018 -0.1664
13961TIP3   OH263297   0.574   1.781  15.031 -0.2535 -0.1494 -0.3619
13961TIP3    H163298   0.651   1.772  15.085  1.1818 -1.1253 -2.4240
13961TIP3    H263299   0.508   1.821  15.088  0.6992 -2.2317  2.4397
13962TIP3   OH263300   1.616   6.742  11.295 -0.2792  0.5292  0.0282
13962TIP3    H163301   1.596   6.770  11.384 -1.9253  1.9124 -0.7220
13962TIP3    H263302   1.554   6.672  11.277  1.1827 -0.9689  0.4973
13963TIP3   OH263303   5.472   4.117   1.804 -0.2619 -0.1564 -1.0354
13963TIP3    H163304   5.543   4.078   1.856 -0.4564  0.5559 -0.2249
13963TIP3    H263305   5.506   4.203   1.779 -1.2627  0.6542  0.3118
13964TIP3   OH263306   5.976   1.164   6.806  0.2222  0.2083 -0.1546
13964TIP3    H163307   6.040   1.187   6.738  0.0573  2.1760  0.3033
13964TIP3    H263308   5.901   1.129   6.757 -0.0188  1.8972 -1.0472
13965TIP3   OH263309   5.543   3.557   0.164 -0.3254  0.1296  0.3684
13965TIP3    H163310   5.487   3.568   0.088  0.5806  1.6995 -0.1287
13965TIP3    H263311   5.561   3.646   0.194  0.5714 -0.3924  1.4911
13966TIP3   OH263312   6.011   2.682  11.203 -0.4797 -0.4430 -0.4137
13966TIP3    H163313   5.983   2.773  11.197  1.6346  0.3326  0.4138
13966TIP3    H263314   6.036   2.658  11.114  1.7638  0.8244 -0.1977
13967TIP3   OH263315   2.974   1.068  12.279 -0.0768  0.5960  0.6220
13967TIP3    H163316   2.907   1.096  12.341 -0.8359  0.7065 -0.2197
13967TIP3    H263317   2.930   1.072  12.194  0.5491 -0.7489  0.2080
13968TIP3   OH263318   5.681   5.246   5.109 -0.9872 -0.6344  1.0158
13968TIP3    H163319   5.753   5.271   5.166  0.1784  0.9640 -1.0093
13968TIP3    H263320   5.605   5.293   5.143 -0.1737  0.7769  0.9185
13969TIP3   OH263321   5.474   6.117  16.508 -0.3494  0.1475  0.2604
13969TIP3    H163322   5.554   6.069  16.485  0.4340  1.5935 -0.1608
13969TIP3    H263323   5.470   6.113  16.603  1.6637  2.1973  0.5043
13970TIP3   OH263324   1.734   1.732  11.037  0.6804  0.3126  0.6136
13970TIP3    H163325   1.689   1.673  10.977 -0.6967  1.9951 -0.1241
13970TIP3    H263326   1.825   1.704  11.035  0.1999 -1.3336 -0.2104
13971TIP3   OH263327   2.797   4.907  14.848 -0.0649 -0.2496  0.1918
13971TIP3    H163328   2.749   4.978  14.805  0.2701  0.6536  1.2557
13971TIP3    H263329   2.797   4.932  14.941  0.0162 -1.6764  0.5901
13972TIP3   OH263330   6.305   5.005  13.912  0.6061  0.0281 -0.5843
13972TIP3    H163331   6.287   4.977  14.001  0.8325  0.5919 -0.3529
13972TIP3    H263332   6.230   5.060  13.888  0.4772 -0.2377 -0.7920
13973TIP3   OH263333   1.250   6.288  17.206 -0.3833  0.1046  0.0774
13973TIP3    H163334   1.307   6.360  17.178 -3.3232  2.1278 -1.2688
13973TIP3    H263335   1.242   6.233  17.129 -0.3334 -0.1110  0.2262
13974TIP3   OH263336   1.731   3.600  13.855  0.0832  0.4478  0.4290
13974TIP3    H163337   1.815   3.558  13.841 -1.0332 -1.3914 -1.2932
13974TIP3    H263338   1.752   3.680  13.904  2.5176 -1.0600  2.0283
13975TIP3   OH263339   5.480   0.530   0.185  0.5353 -0.3929 -0.4203
13975TIP3    H163340   5.438   0.446   0.202 -2.3555  0.8920 -0.5650
13975TIP3    H263341   5.452   0.554   0.097  2.0599  0.3194 -0.7401
13976TIP3   OH263342   2.882   6.087  11.074  0.4380  0.0917 -0.7420
13976TIP3    H163343   2.949   6.145  11.110 -1.4541  0.5725  2.3879
13976TIP3    H263344   2.932   6.016  11.032  3.0129 -0.0441  2.1494
13977TIP3   OH263345   4.710   6.453   1.806 -1.1915  0.3319 -0.2972
13977TIP3    H163346   4.729   6.524   1.868 -0.7968  0.5602 -0.6748
13977TIP3    H263347   4.629   6.413   1.839 -0.3142 -0.3676  1.0891
13978TIP3   OH263348   3.654   3.451   4.476  0.1557 -0.2070 -0.8111
13978TIP3    H163349   3.681   3.540   4.453  0.2927  0.5652  1.8983
13978TIP3    H263350   3.723   3.421   4.536 -2.3098 -0.0879  2.3687
13979TIP3   OH263351   5.613   1.466   0.277 -0.3232  0.2205 -0.1254
13979TIP3    H163352   5.577   1.510   0.354 -0.2383 -0.7337  0.4768
13979TIP3    H263353   5.552   1.487   0.206 -0.2492  1.3431  0.1273
13980TIP3   OH263354   3.484   6.223  11.194  0.1017 -0.5493  0.0467
13980TIP3    H163355   3.407   6.179  11.159 -0.2029  0.3441 -0.4531
13980TIP3    H263356   3.511   6.170  11.268 -1.2372 -0.6632  0.4746
13981TIP3   OH263357   0.114   4.029  11.857  0.0641 -0.2723  0.6350
13981TIP3    H163358   0.137   4.022  11.765 -0.1951 -1.8172  0.6664
13981TIP3    H263359   0.197   4.052  11.900 -0.2262  2.7586 -0.1627
13982TIP3   OH263360   0.035   0.117   5.008  0.3525  0.0144 -0.7098
13982TIP3    H163361   0.123   0.148   5.030 -0.6796  1.5286  1.7257
13982TIP3    H263362   0.037   0.023   5.028  1.3372  0.0868 -0.4179
13983TIP3   OH263363   4.892   2.893   5.991 -0.1938 -0.0349  0.2315
13983TIP3    H163364   4.853   2.943   5.919  0.0919  0.0992  0.1677
13983TIP3    H263365   4.964   2.948   6.022 -0.0640 -0.2739  0.3554
13984TIP3   OH263366   5.543   3.721  13.243  0.8719  0.5097  0.2639
13984TIP3    H163367   5.478   3.659  13.276  2.6397 -0.4583  2.1132
13984TIP3    H263368   5.606   3.668  13.194  1.2014  1.1896 -0.0815
13985TIP3   OH263369   2.537   5.035  16.349  0.0699 -0.0484 -0.2597
13985TIP3    H163370   2.550   5.050  16.442 -1.1226  0.9226 -0.2207
13985TIP3    H263371   2.453   5.078  16.329  0.8102  0.7167 -1.9814
13986TIP3   OH263372   0.113   0.986  11.041 -0.0357  0.5741 -0.2800
13986TIP3    H163373   0.025   1.021  11.055 -0.7040 -1.2316  0.3663
13986TIP3    H263374   0.127   0.992  10.947 -1.4912 -0.4860 -0.5966
13987TIP3   OH263375   5.658   2.304   2.637 -0.0334  0.1259 -0.2488
13987TIP3    H163376   5.622   2.221   2.668 -0.7793  0.5761  0.1200
13987TIP3    H263377   5.600   2.331   2.566  0.6757 -0.0507 -0.9201
13988TIP3   OH263378   3.401   6.759  15.163 -0.1246 -0.1561  0.1110
13988TIP3    H163379   3.369   6.807  15.240 -0.1909  2.2604 -1.3273
13988TIP3    H263380   3.340   6.782  15.093 -0.1555 -2.4241 -0.6879
13989TIP3   OH263381   5.932   2.952  14.815  0.0573  0.0379  0.3718
13989TIP3    H163382   5.847   2.908  14.811 -1.2556  2.3863  0.5051
13989TIP3    H263383   5.944   2.989  14.728  2.1286 -2.1468 -0.3920
13990TIP3   OH263384   5.879   0.401   4.927  0.0324  0.4062 -0.5473
13990TIP3    H163385   5.844   0.416   5.014  0.3436  3.1915 -0.8310
13990TIP3    H263386   5.811   0.431   4.867  1.1480  1.8269 -1.1664
13991TIP3   OH263387   5.835   1.106   0.595 -0.0254  0.0892 -0.3527
13991TIP3    H163388   5.913   1.128   0.545  0.2141 -1.4426 -0.6870
13991TIP3    H263389   5.867   1.061   0.673 -0.6085 -2.6742 -1.6046
13992TIP3   OH263390   5.189   3.942   0.117  0.4978 -0.3117 -0.3441
13992TIP3    H163391   5.239   4.023   0.116 -2.7781  1.9358  1.0675
13992TIP3    H263392   5.184   3.918   0.210  0.2993 -1.3886 -0.6158
13993TIP3   OH263393   6.658   5.105  14.434  0.3626 -0.0010 -0.0312
13993TIP3    H163394   6.725   5.069  14.376  1.4628  0.6490  0.7864
13993TIP3    H263395   6.626   5.183  14.389 -0.4505 -0.7470 -0.7917
13994TIP3   OH263396   6.051   3.239   2.583  0.2424  0.9032  0.2680
13994TIP3    H163397   6.058   3.291   2.503  0.9387  0.2978 -0.0790
13994TIP3    H263398   5.957   3.230   2.598  0.0985  0.8336 -0.6148
13995TIP3   OH263399   5.612   5.531   1.751 -0.0180  0.1757  0.2238
13995TIP3    H163400   5.694   5.494   1.783 -0.0151 -0.8044 -0.8555
13995TIP3    H263401   5.633   5.563   1.663 -0.4507  1.2108  0.4858
13996TIP3   OH263402   2.050   4.964  16.810 -0.6964 -0.3973  0.2213
13996TIP3    H163403   2.058   5.018  16.732 -1.3966  0.7251  0.9055
13996TIP3    H263404   2.056   4.874  16.777  0.7134  0.0687 -0.9003
13997TIP3   OH263405   6.273   2.935   1.161 -0.0001 -0.0251  0.1355
13997TIP3    H163406   6.232   2.862   1.113 -2.2556  0.7362  0.7887
13997TIP3    H263407   6.273   3.007   1.098  1.4086 -0.3013 -0.2139
13998TIP3   OH263408   3.235   1.017   1.096 -0.2129 -0.5379 -0.5141
13998TIP3    H163409   3.311   1.013   1.155  0.1658 -0.1543 -0.9699
13998TIP3    H263410   3.162   1.042   1.153  0.2318  0.2565 -0.2768
13999TIP3   OH263411   2.075   6.378  14.237 -0.3645  0.7648 -0.2915
13999TIP3    H163412   2.156   6.352  14.280 -0.1430 -1.1041 -1.7117
13999TIP3    H263413   2.016   6.400  14.309 -0.3584 -3.2457  1.2023
14000TIP3   OH263414   5.861   3.750   2.685 -0.0054  0.3454 -0.4393
14000TIP3    H163415   5.825   3.677   2.737 -0.5401  1.8474  1.4281
14000TIP3    H263416   5.935   3.782   2.736  0.5381  0.8129 -1.4860
14001TIP3   OH263417   4.245   0.029   3.811 -0.6606 -0.0051  0.2060
14001TIP3    H163418   4.291   0.021   3.728 -0.4226 -0.3185  0.3642
14001TIP3    H263419   4.239  -0.061   3.844 -0.1086  0.1808  0.8665
14002TIP3   OH263420   2.856   4.443   0.020 -0.5570 -0.3680 -0.1247
14002TIP3    H163421   2.783   4.394  -0.017 -1.5254  0.0092  1.1960
14002TIP3    H263422   2.863   4.521  -0.034 -1.6202 -0.0550  0.1776
14003TIP3   OH263423   4.176   5.750  16.322  0.0928 -0.0975  0.3615
14003TIP3    H163424   4.193   5.703  16.240 -0.6209 -0.2512  0.2941
14003TIP3    H263425   4.259   5.745  16.370  0.1024 -1.2207  0.2566
14004TIP3   OH263426   0.534   6.666   3.213  0.3193 -0.6524  0.0739
14004TIP3    H163427   0.476   6.594   3.239  0.9515 -0.6033  1.7557
14004TIP3    H263428   0.564   6.704   3.295  0.2524  1.3626 -0.7752
14005TIP3   OH263429   1.266   6.700  16.969  0.3749 -0.3560  0.2359
14005TIP3    H163430   1.274   6.634  17.038 -2.2383 -0.2365  0.7889
14005TIP3    H263431   1.219   6.772  17.012 -0.0155  0.3389 -1.3012
14006TIP3   OH263432   2.974   3.936   3.630  0.2816  0.4741  0.4305
14006TIP3    H163433   3.014   3.914   3.546 -0.5552 -1.9539  0.5820
14006TIP3    H263434   2.923   4.015   3.612  2.3177  1.6754 -0.5787
14007TIP3   OH263435   5.331   1.907   5.209  0.4057  0.7492 -0.5313
14007TIP3    H163436   5.276   1.919   5.132 -0.2552  1.6789  0.0702
14007TIP3    H263437   5.276   1.931   5.283  0.4033 -1.9837  0.4500
14008TIP3   OH263438   4.926   3.692   3.446 -0.3977  0.1699  0.0523
14008TIP3    H163439   4.840   3.733   3.434 -1.0336 -1.6370 -2.5478
14008TIP3    H263440   4.983   3.740   3.387  0.4933  1.4454  1.8665
14009TIP3   OH263441   6.581   3.449   4.727  0.2330 -0.1331 -0.0041
14009TIP3    H163442   6.537   3.509   4.668 -0.3660 -2.2503 -1.8223
14009TIP3    H263443   6.636   3.395   4.671  0.4533 -1.5510  1.4833
14010TIP3   OH263444   1.015   6.651   2.800  0.2004 -0.0756  0.6463
14010TIP3    H163445   1.081   6.656   2.731  0.1002 -0.3883  0.5312
14010TIP3    H263446   1.015   6.739   2.839  0.7685 -0.1060  0.7262
14011TIP3   OH263447   4.289   0.893   0.437 -0.8251 -0.4113  0.1819
14011TIP3    H163448   4.261   0.962   0.497 -1.9840  0.6749 -1.5179
14011TIP3    H263449   4.384   0.906   0.428 -1.2385  2.0862 -1.3680
14012TIP3   OH263450   2.660   2.223  11.283 -0.0924 -0.4378 -0.2695
14012TIP3    H163451   2.707   2.178  11.354 -0.4130  1.3677  1.1496
14012TIP3    H263452   2.696   2.184  11.203  3.4317  0.3336  0.7311
14013TIP3   OH263453   5.680   0.895  14.080 -0.1237 -0.4961  0.3589
14013TIP3    H163454   5.667   0.977  14.126 -1.7105 -1.3793  1.5741
14013TIP3    H263455   5.768   0.866  14.105 -0.0560  0.1977  0.9230
14014TIP3   OH263456   1.736   0.684   4.129  0.5858  0.8104  0.2429
14014TIP3    H163457   1.735   0.731   4.212 -2.3804  0.3206  0.5954
14014TIP3    H263458   1.782   0.602   4.149  0.3860  0.9313  1.2754
14015TIP3   OH263459   2.622   2.918  16.674  0.2615 -0.8600 -0.0039
14015TIP3    H163460   2.638   2.913  16.768  0.7485 -0.9513 -0.0926
14015TIP3    H263461   2.628   2.827  16.643 -2.3537 -1.2153  0.2615
14016TIP3   OH263462   5.372   0.214  13.738  0.5030 -0.2964 -0.4968
14016TIP3    H163463   5.435   0.277  13.771  0.3599  0.1042 -0.9784
14016TIP3    H263464   5.381   0.218  13.642 -1.0826  0.6665 -0.6432
14017TIP3   OH263465   2.445   2.210   1.957  0.5343  0.4178 -0.3363
14017TIP3    H163466   2.421   2.118   1.954  1.2689  0.2041  0.0330
14017TIP3    H263467   2.530   2.214   1.913  1.7544  0.4730  1.8554
14018TIP3   OH263468   5.610   2.920  13.697  0.5174 -0.0616 -0.3053
14018TIP3    H163469   5.537   2.858  13.704 -1.1663  1.9106  0.8791
14018TIP3    H263470   5.636   2.937  13.788  0.4104  1.4771 -0.5316
14019TIP3   OH263471   5.673   3.967  16.712 -0.6583  0.2685 -0.8804
14019TIP3    H163472   5.660   3.927  16.626 -0.7967 -2.2497  0.2116
14019TIP3    H263473   5.608   3.925  16.768 -1.9173  3.2726  0.1283
14020TIP3   OH263474   6.016   0.553  13.379  0.4165  0.0684 -0.1067
14020TIP3    H163475   6.001   0.460  13.360  1.1993 -0.1141  0.1379
14020TIP3    H263476   5.938   0.597  13.345 -0.9921 -0.9001  1.7063
14021TIP3   OH263477   2.518   1.451   5.935 -0.5208 -0.5139  0.3897
14021TIP3    H163478   2.604   1.491   5.921 -0.3879 -0.7571  0.5011
14021TIP3    H263479   2.519   1.426   6.028  0.7764 -3.9532 -0.4000
14022TIP3   OH263480   2.938   1.097   2.245 -0.1191 -0.7112  0.4390
14022TIP3    H163481   2.996   1.067   2.315  1.1195  0.8640  0.1558
14022TIP3    H263482   2.965   1.044   2.169  0.1272 -0.8227  0.6002
14023TIP3   OH263483   1.829   1.693  12.997 -0.2365  0.0926  0.0410
14023TIP3    H163484   1.749   1.672  13.045 -0.2342 -0.2755 -0.1100
14023TIP3    H263485   1.873   1.608  12.985  1.5009  0.5755  2.3835
14024TIP3   OH263486   4.017   6.451  15.410 -0.1715 -0.5861 -0.0260
14024TIP3    H163487   3.932   6.494  15.413  0.2662  0.2649  2.0470
14024TIP3    H263488   4.076   6.516  15.371 -0.4352 -1.2104 -1.5540
14025TIP3   OH263489   3.152   3.799  13.465 -0.5885  0.2425  0.0505
14025TIP3    H163490   3.146   3.766  13.555 -0.5681  1.3860  0.4875
14025TIP3    H263491   3.243   3.824  13.455 -0.3594 -0.8014 -0.6445
14026TIP3   OH263492   4.126   6.166   2.489 -0.0801 -0.7537 -0.2977
14026TIP3    H163493   4.103   6.153   2.581 -0.6700  0.3201 -0.2754
14026TIP3    H263494   4.217   6.136   2.483  1.6951  3.2801  1.7296
14027TIP3   OH263495   6.481   6.306   3.453 -0.1297  0.3019 -0.2435
14027TIP3    H163496   6.439   6.349   3.527  2.2853  0.6067  1.0501
14027TIP3    H263497   6.479   6.213   3.475 -0.7321  0.2356 -0.5470
14028TIP3   OH263498   2.893   3.085  16.519  0.1952 -0.2009 -0.1657
14028TIP3    H163499   2.876   3.120  16.606 -2.2664  0.4607 -0.8213
14028TIP3    H263500   2.962   3.140  16.484 -2.3245  3.0887 -0.4917
14029TIP3   OH263501   4.287   1.273   3.054 -0.0569 -0.1631  0.9720
14029TIP3    H163502   4.313   1.216   3.127  1.9804  0.4174  0.7648
14029TIP3    H263503   4.336   1.240   2.979  0.4630  1.2781  0.6456
14030TIP3   OH263504   2.873   5.844  15.506  0.5561 -0.4121 -0.2964
14030TIP3    H163505   2.830   5.926  15.485  1.0084  0.1728  0.9677
14030TIP3    H263506   2.803   5.778  15.503  0.5514 -0.4039 -3.3700
14031TIP3   OH263507   3.187   2.585  17.072 -0.1090  0.1978  0.0556
14031TIP3    H163508   3.118   2.648  17.089 -1.0825 -0.7488 -0.2813
14031TIP3    H263509   3.168   2.512  17.130  0.7296  0.0012  0.1047
14032TIP3   OH263510   1.237   2.838  12.489 -0.1863  0.2722  0.0271
14032TIP3    H163511   1.311   2.883  12.528  0.1301 -1.3862  1.4460
14032TIP3    H263512   1.275   2.784  12.420 -0.4924  1.6621 -1.2781
14033TIP3   OH263513   1.268   1.729  12.273 -0.0962  0.5688 -0.5657
14033TIP3    H163514   1.351   1.773  12.254 -0.0318  1.2600  1.1258
14033TIP3    H263515   1.235   1.774  12.351 -1.6658 -0.2424 -0.7309
14034TIP3   OH263516   0.180   6.472  16.588  0.4137  0.0471 -0.5161
14034TIP3    H163517   0.271   6.503  16.584  0.4788 -0.0283  0.2307
14034TIP3    H263518   0.187   6.386  16.629 -0.1723  0.8600  1.3803
14035TIP3   OH263519   6.119   5.795  11.986 -0.0394  0.7349 -0.2286
14035TIP3    H163520   6.206   5.800  11.948  0.1533 -1.8928 -0.3251
14035TIP3    H263521   6.062   5.770  11.914 -0.6403  1.1006  0.1083
14036TIP3   OH263522   6.525   6.522   6.012 -0.3497 -0.0607  0.1269
14036TIP3    H163523   6.451   6.581   6.019  0.1398  0.9984 -2.5110
14036TIP3    H263524   6.499   6.458   5.946  1.1768  0.6068 -1.2055
14037TIP3   OH263525   5.750   3.428   0.044 -0.3444  0.4357 -0.0935
14037TIP3    H163526   5.733   3.459   0.133  2.1569  0.2108  0.5166
14037TIP3    H263527   5.675   3.372   0.024 -1.5074  1.3704  1.4111
14038TIP3   OH263528   6.235   2.741   3.456  0.2406 -0.4399 -0.5029
14038TIP3    H163529   6.321   2.746   3.414  0.0458  1.6269 -0.7780
14038TIP3    H263530   6.193   2.664   3.416  1.4427 -0.6773 -1.3715
14039TIP3   OH263531   0.500   2.518  16.110 -0.1784  0.5307  0.3603
14039TIP3    H163532   0.438   2.487  16.175 -1.5717  0.2532 -1.0334
14039TIP3    H263533   0.500   2.451  16.042  1.4674  0.6545  0.1797
14040TIP3   OH263534   1.259   1.212  11.678 -0.0624 -0.5267  0.0855
14040TIP3    H163535   1.273   1.276  11.748 -0.6946 -1.9112  1.5359
14040TIP3    H263536   1.173   1.176  11.695  0.5765 -2.3055 -0.2429
14041TIP3   OH263537   2.481   0.530  13.580 -0.4467 -0.1026 -0.4430
14041TIP3    H163538   2.516   0.501  13.496 -0.9236  1.8457 -1.3725
14041TIP3    H263539   2.390   0.500  13.581 -0.1185 -1.1555 -0.0532
14042TIP3   OH263540   1.238   2.225  14.512  0.0527  0.6595 -0.1938
14042TIP3    H163541   1.273   2.259  14.430 -2.2606  1.3387 -0.9938
14042TIP3    H263542   1.218   2.303  14.564  1.0751  0.2478  0.8574
14043TIP3   OH263543   6.277   1.534  12.347  0.7713  0.0841 -0.1959
14043TIP3    H163544   6.209   1.546  12.280 -0.4075 -1.3951  0.6918
14043TIP3    H263545   6.238   1.475  12.411  1.6488  1.8718  2.1387
14044TIP3   OH263546   2.788   3.084   4.835  0.0046 -0.0563  0.3281
14044TIP3    H163547   2.862   3.095   4.776  0.5846 -2.3833  0.4940
14044TIP3    H263548   2.825   3.088   4.923 -0.4469  0.9607  0.4823
14045TIP3   OH263549   5.169   3.925  12.555 -0.3860  0.3059  0.1836
14045TIP3    H163550   5.148   3.967  12.471 -0.8988  2.0028  1.1110
14045TIP3    H263551   5.107   3.963  12.617  0.6662 -0.1208  1.5494
14046TIP3   OH263552   1.305   5.371  16.928  0.1461  0.0424 -0.7771
14046TIP3    H163553   1.334   5.280  16.930 -1.5489 -0.6266 -2.7110
14046TIP3    H263554   1.221   5.370  16.974  0.1920  0.6645 -0.6771
14047TIP3   OH263555   5.383   2.553   4.630  0.2945 -0.5982 -0.4588
14047TIP3    H163556   5.338   2.628   4.589 -0.3049 -0.2991  0.7179
14047TIP3    H263557   5.317   2.485   4.634  0.0460 -0.2951  0.9012
14048TIP3   OH263558   2.042   2.123  15.604 -0.8505  0.2625  0.2869
14048TIP3    H163559   2.117   2.065  15.589  1.3069  3.2518 -1.5062
14048TIP3    H263560   2.051   2.150  15.695  0.2350  0.5052  0.1222
14049TIP3   OH263561   4.631   6.103  11.610 -0.4944 -0.5446  0.2522
14049TIP3    H163562   4.685   6.160  11.664 -0.6444 -1.4226  1.3583
14049TIP3    H263563   4.557   6.080  11.666  0.2744 -2.9448  0.3742
14050TIP3   OH263564   1.691   0.926   1.620 -0.0495  0.2141 -0.5064
14050TIP3    H163565   1.670   1.007   1.574  1.4844  0.4427 -0.8626
14050TIP3    H263566   1.618   0.912   1.679 -0.1240  2.1248 -0.0891
14051TIP3   OH263567   6.458   5.747  14.482 -0.4305  0.1070 -0.0500
14051TIP3    H163568   6.430   5.765  14.393 -1.3750 -1.7077 -0.1645
14051TIP3    H263569   6.553   5.736  14.476 -0.6099 -1.0950 -1.0566
14052TIP3   OH263570   4.842   2.785  12.416  0.0908 -0.3002  0.0557
14052TIP3    H163571   4.922   2.753  12.374  0.3248 -0.3537  0.5439
14052TIP3    H263572   4.780   2.713  12.405  0.0824 -0.2303 -0.3880
14053TIP3   OH263573   5.711   0.579   2.371  0.7226  0.0853  0.1344
14053TIP3    H163574   5.733   0.616   2.285  1.6432 -0.5308  0.0874
14053TIP3    H263575   5.720   0.484   2.359  1.8228  0.0394  1.1515
14054TIP3   OH263576   2.319   4.063   5.851 -0.2877 -0.1894 -0.7551
14054TIP3    H163577   2.252   4.073   5.919 -1.4600  0.8204 -2.0109
14054TIP3    H263578   2.279   4.004   5.787  1.2700 -2.1267 -0.0532
14055TIP3   OH263579   3.302   6.727  13.808  0.3322  0.3869 -0.1692
14055TIP3    H163580   3.238   6.797  13.822  0.8573  0.5232  1.8423
14055TIP3    H263581   3.275   6.686  13.726 -2.0997  0.6686  0.4215
14056TIP3   OH263582   5.367   5.364  12.722  0.3855 -0.4963 -0.5335
14056TIP3    H163583   5.406   5.389  12.806  1.0309 -0.0769 -0.9521
14056TIP3    H263584   5.372   5.268  12.721 -0.2709 -0.5440  0.2062
14057TIP3   OH263585   5.491   6.104   0.724 -0.0151 -0.7686 -0.1931
14057TIP3    H163586   5.530   6.179   0.771 -0.0639 -1.2768  0.6762
14057TIP3    H263587   5.424   6.143   0.669  0.5397 -0.0713 -0.3916
14058TIP3   OH263588   1.000   1.568   4.688  0.6119  0.1960  0.6205
14058TIP3    H163589   1.064   1.500   4.707  0.0691 -0.7499 -0.7978
14058TIP3    H263590   1.031   1.608   4.607  0.4189  1.0330  0.9436
14059TIP3   OH263591   1.317   2.141   0.730  0.5353 -0.1987  0.1978
14059TIP3    H163592   1.406   2.123   0.761  0.8422  0.4497 -0.2705
14059TIP3    H263593   1.312   2.237   0.730 -0.3892 -0.2388  0.8424
14060TIP3   OH263594   4.009   2.365   0.232  0.2363  0.0890 -0.1938
14060TIP3    H163595   4.059   2.286   0.213 -0.5011 -0.5270  0.3244
14060TIP3    H263596   4.023   2.380   0.326 -0.8797 -0.3482  0.0570
14061TIP3   OH263597   0.541   2.598  13.422  0.1622 -0.0938  0.1943
14061TIP3    H163598   0.584   2.619  13.505  3.8055 -0.3878 -1.4158
14061TIP3    H263599   0.549   2.503  13.415 -2.3255 -0.3917  0.4900
14062TIP3   OH263600   0.874   3.665  14.536  0.5506 -0.2533  0.0852
14062TIP3    H163601   0.829   3.706  14.609  0.7115 -0.7842  0.4879
14062TIP3    H263602   0.803   3.638  14.477  0.2792 -1.5845  0.9756
14063TIP3   OH263603   2.151   4.354  13.872  0.1517  0.4478 -0.2298
14063TIP3    H163604   2.096   4.292  13.921  0.3518  1.4643  1.3324
14063TIP3    H263605   2.237   4.347  13.912  0.6689  0.3890 -1.3007
14064TIP3   OH263606   6.151   1.615  16.624 -0.0098 -0.4304  0.5814
14064TIP3    H163607   6.216   1.638  16.558  2.3284 -0.4556  2.7317
14064TIP3    H263608   6.086   1.686  16.619  0.3615 -0.1758 -1.3439
14065TIP3   OH263609   4.866   1.739  13.254  0.2810 -0.2046  0.3297
14065TIP3    H163610   4.859   1.648  13.224 -0.0385 -0.3550  0.8455
14065TIP3    H263611   4.949   1.769  13.219  0.4631 -0.7450  0.2819
14066TIP3   OH263612   1.640   1.307   4.517  0.2119 -0.1044  0.2355
14066TIP3    H163613   1.647   1.395   4.478 -0.5904 -0.7074 -1.3588
14066TIP3    H263614   1.730   1.273   4.513  0.5655  0.6779  1.0257
14067TIP3   OH263615   0.912   0.977   3.056  0.1381  0.0712 -0.0960
14067TIP3    H163616   0.956   1.052   3.015 -0.0559  0.8990  1.1712
14067TIP3    H263617   0.881   1.010   3.140 -0.3760 -1.3119  0.2825
14068TIP3   OH263618   2.514   2.826   3.603 -0.7131  0.1252 -0.2109
14068TIP3    H163619   2.445   2.882   3.639  0.0470 -0.0920  1.7305
14068TIP3    H263620   2.474   2.739   3.597 -1.2988  0.4608 -1.3526
14069TIP3   OH263621   2.549   3.489   0.399  0.2643 -0.3644  0.0624
14069TIP3    H163622   2.605   3.513   0.325  1.2586  2.4689  1.5890
14069TIP3    H263623   2.464   3.527   0.379  0.0027 -1.1738 -0.4109
14070TIP3   OH263624   6.593   2.830  10.979 -0.4507 -0.2422 -0.2121
14070TIP3    H163625   6.628   2.768  11.043 -0.7154  0.2535  0.4216
14070TIP3    H263626   6.525   2.878  11.026  1.1390  1.9779  0.0045
14071TIP3   OH263627   3.866   1.487   2.996 -0.2342 -0.1830 -0.4493
14071TIP3    H163628   3.786   1.508   2.947 -0.1893  0.5884 -0.2079
14071TIP3    H263629   3.922   1.564   2.984  0.4058 -0.6576 -0.4806
14072TIP3   OH263630   4.968   0.176   1.258  0.5568  0.5216  0.4257
14072TIP3    H163631   4.989   0.255   1.307  0.1163  0.0002  1.4913
14072TIP3    H263632   4.992   0.104   1.317  0.5054 -0.1320 -0.3346
14073TIP3   OH263633   6.319   3.059   0.303 -0.0480  0.1233 -0.2702
14073TIP3    H163634   6.252   3.111   0.348  0.8807  1.1184 -0.0226
14073TIP3    H263635   6.349   3.114   0.232  2.9710  1.1929  1.6658
14074TIP3   OH263636   1.226   1.852  15.081 -0.1477  0.3281  0.3850
14074TIP3    H163637   1.297   1.788  15.074 -0.1180  0.3677  0.3231
14074TIP3    H263638   1.223   1.874  15.175  0.2593  0.7079  0.3113
14075TIP3   OH263639   0.727   5.032   5.574  0.1718 -0.2013  0.4040
14075TIP3    H163640   0.776   5.107   5.608  0.6753  0.1128 -0.9497
14075TIP3    H263641   0.758   5.022   5.483 -1.8578 -0.3371 -0.3216
14076TIP3   OH263642   6.198   4.792  10.875 -0.1907  0.1682 -0.3178
14076TIP3    H163643   6.226   4.870  10.828  0.1226 -0.1393 -0.6440
14076TIP3    H263644   6.237   4.801  10.962 -0.8113  0.7604 -0.0937
14077TIP3   OH263645   3.729   5.155   5.769 -0.1372  0.0007  0.1694
14077TIP3    H163646   3.643   5.118   5.749  0.3238 -1.1505  0.2646
14077TIP3    H263647   3.790   5.101   5.719  0.6167  0.1405  0.9213
14078TIP3   OH263648   3.530   0.373  15.138  0.4214  0.0446 -0.0063
14078TIP3    H163649   3.558   0.463  15.120  0.9791 -0.1000  0.1013
14078TIP3    H263650   3.470   0.381  15.212  0.6326  0.3055  0.1382
14079TIP3   OH263651   4.146   6.188   4.956 -0.2902  0.0984 -0.3406
14079TIP3    H163652   4.234   6.173   4.993 -0.2968  1.5674  0.3272
14079TIP3    H263653   4.159   6.251   4.886 -0.6342 -0.8294 -1.2746
14080TIP3   OH263654   4.444   4.386  16.099  0.5651 -0.8053  0.4692
14080TIP3    H163655   4.454   4.393  16.004  0.5863  1.7207  0.5937
14080TIP3    H263656   4.532   4.393  16.134  0.3292  1.8064  0.7505
14081TIP3   OH263657   0.115   5.056  17.009 -0.4058  0.1887 -0.0064
14081TIP3    H163658   0.069   4.978  16.977  0.7810 -0.9615  1.0025
14081TIP3    H263659   0.084   5.067  17.099 -2.5073  2.4632 -0.8953
14082TIP3   OH263660   5.263   3.054  14.516  0.0829  0.2538 -0.4843
14082TIP3    H163661   5.308   3.031  14.597 -0.9400 -0.4787 -0.0939
14082TIP3    H263662   5.289   2.987  14.453 -0.1247  0.0696 -0.3773
14083TIP3   OH263663   0.072   1.791  10.797  0.0278  0.3138  0.0821
14083TIP3    H163664   0.161   1.757  10.801  0.2567  0.9216  0.1884
14083TIP3    H263665   0.023   1.724  10.748  0.8362  0.6321 -1.1996
14084TIP3   OH263666   2.401   4.292  14.025  0.0038  0.8761  1.0369
14084TIP3    H163667   2.345   4.285  14.102 -2.2361  0.7886 -0.4860
14084TIP3    H263668   2.421   4.202  14.001 -1.6847  0.7458 -0.0454
14085TIP3   OH263669   4.434   1.418  11.346 -0.0216 -0.0536  0.2730
14085TIP3    H163670   4.454   1.467  11.266  0.2850  0.0807  0.4303
14085TIP3    H263671   4.519   1.390  11.378 -0.0724  0.5504  0.9689
14086TIP3   OH263672   5.227   5.431  11.695  0.2413 -0.1421 -0.4098
14086TIP3    H163673   5.169   5.496  11.656 -0.5616 -0.0723  0.8661
14086TIP3    H263674   5.233   5.361  11.629 -0.3043  0.3996 -1.0449
14087TIP3   OH263675   3.409   6.304  16.740  0.1266  0.2394  0.0855
14087TIP3    H163676   3.384   6.346  16.822 -0.2189  1.4107 -0.5923
14087TIP3    H263677   3.431   6.377  16.682 -1.5529 -0.4317 -1.4762
14088TIP3   OH263678   5.545   4.145   5.277 -1.0971  0.3160 -0.2301
14088TIP3    H163679   5.517   4.057   5.301 -0.2668  0.3752  1.0496
14088TIP3    H263680   5.465   4.198   5.276 -1.2605  0.1969  2.0011
14089TIP3   OH263681   5.426   2.723   2.831 -0.5825  0.4133 -0.3159
14089TIP3    H163682   5.452   2.637   2.866 -1.0995  0.3671 -0.0327
14089TIP3    H263683   5.508   2.772   2.825  0.1318 -0.9572 -2.9646
14090TIP3   OH263684   0.845   3.610   4.449 -0.2700  0.0255 -0.6025
14090TIP3    H163685   0.750   3.612   4.443 -0.2749  1.5234 -0.3609
14090TIP3    H263686   0.870   3.524   4.415 -1.5457  0.5724 -3.1730
14091TIP3   OH263687   3.598   1.743   4.212  0.2868  0.3432 -0.3632
14091TIP3    H163688   3.521   1.800   4.207 -1.2075 -1.4422  0.8143
14091TIP3    H263689   3.673   1.803   4.209 -1.1665  2.2680 -0.1259
14092TIP3   OH263690   2.553   6.161   3.361 -0.1554 -0.3892  0.0022
14092TIP3    H163691   2.572   6.251   3.385  0.6084 -0.3885 -0.5795
14092TIP3    H263692   2.462   6.147   3.390 -0.9255  1.1231 -1.5117
14093TIP3   OH263693   6.594   2.679  17.133  0.4027  0.4490  0.3217
14093TIP3    H163694   6.647   2.689  17.054 -0.1372 -0.9553 -0.2652
14093TIP3    H263695   6.523   2.619  17.106 -0.5885  1.0528  1.4900
14094TIP3   OH263696   5.087   4.402   4.242 -0.0256  0.1960  0.2468
14094TIP3    H163697   5.068   4.375   4.332 -0.7893 -0.5595 -0.1245
14094TIP3    H263698   5.183   4.400   4.235  0.0689  0.9336  1.2364
14095TIP3   OH263699   2.249   4.534   6.189  0.5470  0.0910  0.2163
14095TIP3    H163700   2.319   4.489   6.236  0.9970 -0.5809 -1.0479
14095TIP3    H263701   2.295   4.598   6.134  0.1519 -0.1994 -0.4577
14096TIP3   OH263702   5.248   3.722  16.186 -0.3321 -0.8601  0.1808
14096TIP3    H163703   5.245   3.664  16.262  0.0567 -0.5380  0.4504
14096TIP3    H263704   5.254   3.664  16.111 -1.0992 -1.1930  0.3694
14097TIP3   OH263705   5.568   4.937   1.246  0.8844 -0.3533  0.2468
14097TIP3    H163706   5.511   4.932   1.322 -0.3395 -1.7629 -0.6922
14097TIP3    H263707   5.511   4.968   1.175  1.5026 -0.8549 -0.4994
14098TIP3   OH263708   0.056   5.301  16.855 -0.0554  0.2211  0.2659
14098TIP3    H163709   0.066   5.216  16.899 -1.2827  0.2064  0.5382
14098TIP3    H263710   0.106   5.291  16.774  0.1914 -0.6042  0.5023
14099TIP3   OH263711   2.199   4.039  11.209  0.5507  0.3488  0.4072
14099TIP3    H163712   2.167   4.129  11.200  2.6151  1.1503  0.6356
14099TIP3    H263713   2.231   4.016  11.122  0.8279  0.1690  0.5547
14100TIP3   OH263714   3.120   0.901   2.903 -0.5117 -0.0852 -0.0114
14100TIP3    H163715   3.204   0.946   2.908 -0.4856  0.3888 -2.9868
14100TIP3    H263716   3.056   0.966   2.932 -0.0830  0.4946 -0.3368
14101TIP3   OH263717   3.715   2.738  15.945  0.0371 -0.5066 -0.2104
14101TIP3    H163718   3.710   2.643  15.930  1.5452 -0.5150 -0.7500
14101TIP3    H263719   3.641   2.756  16.003 -1.9562 -1.5705 -2.2205
14102TIP3   OH263720   0.682   1.842  14.564  0.1617  0.4383 -0.1211
14102TIP3    H163721   0.724   1.916  14.520 -0.0366  0.9745  0.5684
14102TIP3    H263722   0.590   1.849  14.540  0.1340  0.4475 -0.0130
14103TIP3   OH263723   4.597   1.810   0.608  0.3086  0.8293  0.5095
14103TIP3    H163724   4.639   1.843   0.687 -0.2158 -1.2427  1.7469
14103TIP3    H263725   4.504   1.807   0.630  0.2325 -0.4847  0.1273
14104TIP3   OH263726   0.875   0.978   0.523  0.2774 -0.4356  0.2947
14104TIP3    H163727   0.930   0.907   0.489  1.3198  1.1003 -1.3941
14104TIP3    H263728   0.840   1.021   0.445  0.5366  1.5580  1.2087
14105TIP3   OH263729   1.433   3.395   2.821 -0.2959 -0.2148  0.0520
14105TIP3    H163730   1.350   3.381   2.867 -1.4963  0.6505 -1.7591
14105TIP3    H263731   1.421   3.353   2.736  1.2198 -0.2686 -0.1675
14106TIP3   OH263732   4.017   6.661   4.640  0.3713 -0.4150  0.0999
14106TIP3    H163733   3.995   6.602   4.712  3.6656 -2.6419 -0.4923
14106TIP3    H263734   3.959   6.634   4.569 -2.1422  1.0668  1.4549
14107TIP3   OH263735   1.868   5.020  13.891  0.4807  0.1789  0.1418
14107TIP3    H163736   1.788   4.977  13.920 -0.0024  0.7976 -0.2595
14107TIP3    H263737   1.868   5.011  13.796  0.8929  0.1672  0.1405
14108TIP3   OH263738   2.661   6.682   2.904 -0.3840  0.1319  0.0516
14108TIP3    H163739   2.687   6.751   2.964  0.3134  1.0787 -1.2948
14108TIP3    H263740   2.565   6.683   2.906 -0.4793  2.6453 -1.5323
14109TIP3   OH263741   2.826   2.261   0.145  0.3245 -0.0602  0.1922
14109TIP3    H163742   2.767   2.190   0.172  0.9037 -1.0319 -0.9878
14109TIP3    H263743   2.768   2.331   0.115 -0.2539 -0.8929 -0.6865
14110TIP3   OH263744   0.871   5.443  11.340  0.7160  0.1225 -0.4511
14110TIP3    H163745   0.849   5.476  11.252  1.6868  1.7889 -0.1011
14110TIP3    H263746   0.952   5.394  11.328  0.4592 -0.2796 -0.5875
14111TIP3   OH263747   6.562   5.324   0.507  0.7553 -0.1713  0.2230
14111TIP3    H163748   6.566   5.400   0.565 -1.5792 -0.4257  0.8246
14111TIP3    H263749   6.583   5.359   0.420 -1.1783  1.4014  0.3258
14112TIP3   OH263750   5.775   0.362  14.033 -0.1608  0.0018 -0.0846
14112TIP3    H163751   5.830   0.331  14.106  0.4296 -0.3725 -0.6782
14112TIP3    H263752   5.828   0.429  13.991 -0.1696 -0.3351 -0.6389
14113TIP3   OH263753   6.504   6.181  14.515  0.4676  0.6563 -0.2071
14113TIP3    H163754   6.564   6.255  14.516  2.4902 -0.8980  0.0261
14113TIP3    H263755   6.472   6.174  14.605  0.7241  0.8884 -0.0982
14114TIP3   OH263756   5.022   3.951   1.660  0.3777  0.2939  0.5783
14114TIP3    H163757   5.011   4.029   1.715  2.5995  1.0188  0.1273
14114TIP3    H263758   5.108   3.917   1.684 -0.5534 -2.0800  0.7677
14115TIP3   OH263759   2.237   1.271   5.248 -0.0281 -0.1938 -0.2536
14115TIP3    H163760   2.322   1.260   5.206 -0.1947 -0.9785 -0.3956
14115TIP3    H263761   2.232   1.200   5.312 -0.6766 -0.3027 -0.4161
14116TIP3   OH263762   6.237   6.695   4.845  0.5761 -0.3950  0.6726
14116TIP3    H163763   6.169   6.763   4.839  0.4308 -0.3731  2.2883
14116TIP3    H263764   6.299   6.719   4.776  1.1116  2.0660  1.8747
14117TIP3   OH263765   3.728   1.567  14.126 -0.4139  0.1137 -0.4920
14117TIP3    H163766   3.671   1.504  14.080  1.1345 -0.3301 -1.9084
14117TIP3    H263767   3.797   1.513  14.165  0.1994  0.8116 -0.5885
14118TIP3   OH263768   2.598   0.493  12.860 -0.4039  0.0449  0.4731
14118TIP3    H163769   2.624   0.506  12.951  1.3946  0.3638 -0.0314
14118TIP3    H263770   2.679   0.466  12.816 -1.1912  0.0539 -1.0531
14119TIP3   OH263771   0.978   2.336   0.762  0.1426 -0.7705  0.3032
14119TIP3    H163772   0.971   2.360   0.669  0.0415 -0.9103  0.2748
14119TIP3    H263773   1.039   2.263   0.763  1.3637  0.2105  0.5111
14120TIP3   OH263774   5.394   2.724  11.591  0.3381  0.0174 -0.6128
14120TIP3    H163775   5.402   2.794  11.526  1.9164  0.5961  0.1747
14120TIP3    H263776   5.316   2.748  11.642  0.0388  0.4284 -1.2434
14121TIP3   OH263777   2.624   1.750  13.564  0.1118  0.0871  0.4980
14121TIP3    H163778   2.560   1.801  13.514 -0.8224 -0.7874  0.7701
14121TIP3    H263779   2.575   1.721  13.641  0.6669 -1.1093  0.4097
14122TIP3   OH263780   6.286   1.371   1.506  0.0826 -0.4723 -0.2253
14122TIP3    H163781   6.309   1.403   1.419 -0.6298 -1.0409 -0.6310
14122TIP3    H263782   6.348   1.300   1.522  1.7260  1.0793  0.7141
14123TIP3   OH263783   1.649   1.452   2.448 -0.0730  0.0300  0.2163
14123TIP3    H163784   1.716   1.419   2.507  1.0493 -0.4277 -1.2574
14123TIP3    H263785   1.580   1.484   2.505  1.3913  0.5069  1.7679
14124TIP3   OH263786   5.059   3.192  12.959  0.1657  0.2270 -0.4443
14124TIP3    H163787   5.148   3.229  12.964 -0.1100  0.8734 -0.2432
14124TIP3    H263788   5.059   3.121  13.023  0.7592 -0.2491 -0.9607
14125TIP3   OH263789   1.552   5.396  13.059  0.1480  0.3719  0.1890
14125TIP3    H163790   1.515   5.378  12.973  0.7783  0.5625 -0.1263
14125TIP3    H263791   1.477   5.393  13.119 -0.3607  0.7072 -0.4302
14126TIP3   OH263792   1.649   3.885   2.708  0.1626  0.4271  0.0123
14126TIP3    H163793   1.705   3.844   2.642  1.1707  3.1962 -0.9753
14126TIP3    H263794   1.584   3.818   2.729  3.5195 -2.8962  0.9641
14127TIP3   OH263795   5.048   1.733   0.668  0.3540 -0.4181  0.5460
14127TIP3    H163796   5.096   1.659   0.706  0.5888  0.0639  1.2187
14127TIP3    H263797   4.967   1.694   0.633  0.9320 -1.1372 -0.0140
14128TIP3   OH263798   2.309   0.922   2.931 -0.6761 -0.5406 -0.0004
14128TIP3    H163799   2.259   0.995   2.967  0.0177  0.9741 -1.9501
14128TIP3    H263800   2.366   0.893   3.003 -1.0452  0.7544  0.8328
14129TIP3   OH263801   3.231   1.578   2.328  0.5862  0.2661 -0.4454
14129TIP3    H163802   3.193   1.640   2.266  2.2288  1.1618 -0.6250
14129TIP3    H263803   3.209   1.492   2.294 -0.5077  0.7423 -0.9868
14130TIP3   OH263804   3.863   1.680  16.841 -0.3254  0.0994  0.9271
14130TIP3    H163805   3.798   1.639  16.783  0.7218 -1.2915  0.6849
14130TIP3    H263806   3.880   1.766  16.801  0.4359 -0.8637 -0.9145
14131TIP3   OH263807   1.134   4.876  13.675  0.5083 -0.0582 -0.6355
14131TIP3    H163808   1.202   4.942  13.662  0.2419  0.4402  0.4367
14131TIP3    H263809   1.170   4.817  13.741 -0.1989  0.3767  0.1640
14132TIP3   OH263810   5.082   4.656   0.925  0.0872  0.4654 -0.1232
14132TIP3    H163811   5.080   4.563   0.945  1.4171  0.8885  2.2947
14132TIP3    H263812   5.047   4.699   1.003 -0.9223  2.0191 -1.3561
14133TIP3   OH263813   1.833   0.754   3.003  0.5998 -0.2112  0.5181
14133TIP3    H163814   1.902   0.714   3.056  0.8449  1.9292  1.9498
14133TIP3    H263815   1.875   0.831   2.964 -0.3800 -0.1656 -0.5121
14134TIP3   OH263816   2.566   0.843   4.723 -0.2110 -0.0397  0.2790
14134TIP3    H163817   2.479   0.804   4.729 -0.4310  0.3390 -0.2864
14134TIP3    H263818   2.602   0.810   4.641  0.7963 -1.3782  1.2293
14135TIP3   OH263819   5.811   4.273  11.285  0.1718  0.2414  0.5912
14135TIP3    H163820   5.761   4.341  11.239 -0.3949  0.6122  1.7154
14135TIP3    H263821   5.888   4.259  11.231 -0.0942  1.2269 -0.0680
14136TIP3   OH263822   3.907   4.790   5.982 -1.2263  0.4702  0.3006
14136TIP3    H163823   3.874   4.770   5.894 -1.4980 -0.3242  0.5666
14136TIP3    H263824   3.988   4.740   5.989  0.2975  2.6797 -0.4708
14137TIP3   OH263825   4.478   4.732   1.693 -0.8443  0.2759 -0.4971
14137TIP3    H163826   4.565   4.771   1.679 -0.4653 -0.7125 -0.9557
14137TIP3    H263827   4.486   4.686   1.776 -0.6432 -0.5887 -0.9900
14138TIP3   OH263828   5.458   3.059   5.062 -0.2838 -0.7894 -0.5838
14138TIP3    H163829   5.539   3.110   5.060 -1.4744  1.4790  2.2346
14138TIP3    H263830   5.483   2.974   5.026  3.6289 -0.5430  1.0267
14139TIP3   OH263831   5.477   4.820   3.174  0.2917 -0.2704 -0.2084
14139TIP3    H163832   5.454   4.738   3.131  1.6474 -0.7791 -0.0047
14139TIP3    H263833   5.564   4.805   3.210 -0.6846  0.1967  2.5629
14140TIP3   OH263834   3.475   2.351  11.504  0.4764  0.7866 -0.3575
14140TIP3    H163835   3.439   2.315  11.422  0.7265  1.6357 -0.8560
14140TIP3    H263836   3.487   2.275  11.560 -0.5567  0.2895 -0.7804
14141TIP3   OH263837   6.449   4.562  13.335  0.8019 -0.1034 -0.5708
14141TIP3    H163838   6.367   4.610  13.321 -0.0125 -1.3401 -0.2534
14141TIP3    H263839   6.512   4.604  13.276  0.1479  1.3426 -0.2915
14142TIP3   OH263840   0.074   5.780   3.754 -0.3538 -0.2936  0.0246
14142TIP3    H163841   0.021   5.746   3.826 -2.9860  1.6672 -0.8492
14142TIP3    H263842   0.113   5.860   3.788  0.1482 -0.4762 -0.1008
14143TIP3   OH263843   1.388   2.702  12.303 -0.8460  0.4173 -0.4848
14143TIP3    H163844   1.467   2.666  12.342 -0.9732  0.4264 -0.2141
14143TIP3    H263845   1.366   2.642  12.232  0.4327  1.4035 -1.7713
14144TIP3   OH263846   6.020   3.360  11.326  0.5756 -0.2645 -0.7221
14144TIP3    H163847   5.976   3.337  11.244 -0.3536  0.1646 -0.3589
14144TIP3    H263848   5.993   3.451  11.343  3.8968  1.1184 -1.9748
14145TIP3   OH263849   4.088   6.540   2.258 -0.6718 -0.1922 -0.1791
14145TIP3    H163850   4.021   6.508   2.319 -1.2019  0.7123 -0.2683
14145TIP3    H263851   4.155   6.472   2.259 -0.4765 -0.0272  1.7252
14146TIP3   OH263852   1.647   1.970   4.120  0.0823 -0.4924  0.1639
14146TIP3    H163853   1.641   2.065   4.131 -0.8811 -0.6150  0.8223
14146TIP3    H263854   1.574   1.949   4.061  0.2997 -0.8220  0.0119
14147TIP3   OH263855   5.707   1.867   5.378 -0.1482 -0.2492 -0.1489
14147TIP3    H163856   5.678   1.797   5.436 -1.0805  0.2202 -0.0255
14147TIP3    H263857   5.682   1.839   5.290  1.7740 -1.2230 -0.4365
14148TIP3   OH263858   2.848   3.488  13.262 -0.7021  0.1636  0.6417
14148TIP3    H163859   2.876   3.398  13.247 -0.9925  0.2918 -0.8617
14148TIP3    H263860   2.753   3.486  13.249 -0.6105  0.8133 -0.2195
14149TIP3   OH263861   0.302   4.206   4.467  0.4167 -0.2061 -0.1421
14149TIP3    H163862   0.296   4.237   4.557  0.0670 -2.1586  0.5536
14149TIP3    H263863   0.214   4.218   4.431  0.7442  1.3143 -0.5353
14150TIP3   OH263864   0.422   2.607   3.137  0.0100 -0.3419  0.5564
14150TIP3    H163865   0.474   2.536   3.098 -0.1646 -0.1259 -0.0785
14150TIP3    H263866   0.420   2.675   3.069  0.4875  0.4316  1.2879
14151TIP3   OH263867   2.074   1.124  14.488 -0.2330 -0.8857 -0.0133
14151TIP3    H163868   1.998   1.182  14.483 -0.1200 -0.5936  1.3514
14151TIP3    H263869   2.037   1.036  14.492 -0.7111 -0.6652  3.2368
14152TIP3   OH263870   2.547   5.374   2.068 -0.1972 -0.0558 -0.0616
14152TIP3    H163871   2.596   5.445   2.107  0.3038 -0.1047 -0.5861
14152TIP3    H263872   2.470   5.364   2.123  0.2604  0.1864  0.6264
14153TIP3   OH263873   0.880   0.772  16.124 -0.5779  0.3517 -0.0553
14153TIP3    H163874   0.813   0.784  16.056  0.5453  0.1209 -1.2547
14153TIP3    H263875   0.844   0.816  16.201 -1.9982  0.4349 -0.7210
14154TIP3   OH263876   6.671   3.740   2.511  0.6477 -0.7622  0.3041
14154TIP3    H163877   6.602   3.686   2.551  0.9906  0.2533  2.3576
14154TIP3    H263878   6.656   3.827   2.546  0.7990  0.3067 -2.0910
14155TIP3   OH263879   2.754   5.007  16.999  0.7848  0.1606 -0.0081
14155TIP3    H163880   2.740   5.031  16.907  0.0340 -1.6383 -0.4127
14155TIP3    H263881   2.675   5.035  17.043  1.5624  1.9579  0.3407
14156TIP3   OH263882   1.676   2.688   0.627  0.2281 -0.3793 -0.2188
14156TIP3    H163883   1.617   2.736   0.568  0.6630  0.6408  0.1568
14156TIP3    H263884   1.618   2.645   0.689 -0.1556  0.0479 -0.2763
14157TIP3   OH263885   5.008   2.581   3.300  0.8994  0.2053 -0.1479
14157TIP3    H163886   4.929   2.614   3.256  0.6651 -2.0840 -1.6120
14157TIP3    H263887   5.078   2.639   3.270  0.2225  0.5777 -1.0662
14158TIP3   OH263888   6.750   1.450   3.032  0.4634 -0.0195 -0.2706
14158TIP3    H163889   6.780   1.381   3.091  1.0723  1.9855  1.9174
14158TIP3    H263890   6.668   1.481   3.070  1.4089  2.0441  0.2615
14159TIP3   OH263891   3.688   6.736  14.831 -0.3279 -0.0209  0.0328
14159TIP3    H163892   3.598   6.753  14.800 -0.3289 -0.1096 -0.0150
14159TIP3    H263893   3.676   6.696  14.917 -0.3096  0.7933  0.4225
14160TIP3   OH263894   3.691   6.165  15.950 -0.6896  0.5699 -0.1513
14160TIP3    H163895   3.705   6.152  16.044 -3.3968 -0.9212  0.1583
14160TIP3    H263896   3.752   6.106  15.908 -1.4097 -0.9279  0.8176
14161TIP3   OH263897   1.479   4.141   2.333  0.4727  0.0953  0.3421
14161TIP3    H163898   1.441   4.203   2.395  0.7213 -1.3798  2.0627
14161TIP3    H263899   1.475   4.056   2.379 -2.0458 -1.6889 -2.7481
14162TIP3   OH263900   4.090   2.175   6.187  0.3384 -0.4968  0.1149
14162TIP3    H163901   4.047   2.093   6.166  1.0979 -1.0543  0.6719
14162TIP3    H263902   4.183   2.159   6.170  0.6820 -0.2293  1.5842
14163TIP3   OH263903   5.533   1.288  14.849  0.3648  0.2682  0.3233
14163TIP3    H163904   5.481   1.209  14.864  1.2973 -0.4007  0.1541
14163TIP3    H263905   5.547   1.325  14.936  1.7859 -1.0009  0.6868
14164TIP3   OH263906   0.736   5.224  14.500  0.6477  0.4783 -0.3538
14164TIP3    H163907   0.705   5.244  14.412 -1.3633 -0.8476 -0.0288
14164TIP3    H263908   0.673   5.268  14.558 -0.7608 -2.2321  0.3394
14165TIP3   OH263909   0.196   0.236  13.160 -0.0132 -0.4727 -0.1446
14165TIP3    H163910   0.241   0.167  13.112 -0.2783  0.5144 -1.9244
14165TIP3    H263911   0.161   0.193  13.238  2.0344 -1.7559  0.1489
14166TIP3   OH263912   5.409   1.683  14.005  0.3757  0.3334 -0.2460
14166TIP3    H163913   5.428   1.703  13.913  1.6286 -0.6760 -0.2321
14166TIP3    H263914   5.492   1.698  14.050  0.4556 -1.5375  0.3088
14167TIP3   OH263915   3.967   0.012   1.416  0.3961 -0.5089 -0.5639
14167TIP3    H163916   3.940  -0.011   1.328  0.6932  2.4443 -1.5296
14167TIP3    H263917   4.063   0.015   1.412  0.3629  1.0900 -0.5961
14168TIP3   OH263918   0.581   4.137   4.516 -0.0411 -1.1005  0.6607
14168TIP3    H163919   0.587   4.198   4.589 -0.0790  0.1300 -0.3413
14168TIP3    H263920   0.495   4.155   4.477 -0.0164 -1.7328  0.2974
14169TIP3   OH263921   3.992   0.654  13.394  0.2522  0.4840 -0.3641
14169TIP3    H163922   4.070   0.662  13.339  0.3190  0.3329 -0.2903
14169TIP3    H263923   3.919   0.652  13.332  0.3476  0.0118 -0.4585
14170TIP3   OH263924   1.606   2.534   1.533 -0.1516 -0.2799 -0.1032
14170TIP3    H163925   1.661   2.516   1.457 -0.2014 -0.6138 -0.0627
14170TIP3    H263926   1.552   2.609   1.507  0.8386  0.5389  0.1207
14171TIP3   OH263927   0.671   6.067   2.192  0.2433  0.1414  0.3799
14171TIP3    H163928   0.589   6.114   2.176  2.0416  3.0408 -1.1700
14171TIP3    H263929   0.725   6.130   2.240  2.1853 -1.0461 -0.1469
14172TIP3   OH263930   5.642   5.468   0.146 -0.6094 -0.0132  0.2370
14172TIP3    H163931   5.562   5.468   0.197  1.3645  0.5288  3.6509
14172TIP3    H263932   5.662   5.376   0.130 -1.1473 -0.1988  0.6524
14173TIP3   OH263933   4.249   0.924   5.099 -0.4898 -0.1826  0.0906
14173TIP3    H163934   4.185   0.887   5.161  0.2824  1.5249  2.0204
14173TIP3    H263935   4.316   0.855   5.091 -0.9463 -0.7086  0.6517
14174TIP3   OH263936   2.612   5.483   0.864 -0.3927 -0.5590 -0.6261
14174TIP3    H163937   2.596   5.455   0.774 -0.8135  0.5516 -0.9223
14174TIP3    H263938   2.705   5.465   0.879  0.0968  0.7399 -1.8572
14175TIP3   OH263939   4.181   2.147   4.445 -0.0974 -0.2801 -0.1140
14175TIP3    H163940   4.240   2.103   4.506  0.5182  0.3099 -0.2626
14175TIP3    H263941   4.123   2.199   4.502  0.7077  0.5520 -0.0193
14176TIP3   OH263942   1.660   6.279  14.827 -0.1012  0.0007 -0.2043
14176TIP3    H163943   1.622   6.324  14.752  0.9586  3.4046  1.1150
14176TIP3    H263944   1.750   6.260  14.800 -0.5641 -1.5253 -0.7809
14177TIP3   OH263945   2.208   0.155   1.501 -0.2446 -0.3592  0.5517
14177TIP3    H163946   2.266   0.212   1.451  0.8575 -1.3023  0.7247
14177TIP3    H263947   2.183   0.207   1.577  1.0238 -0.2140  0.8862
14178TIP3   OH263948   1.298   3.457  14.405 -0.2954  0.2416  0.1375
14178TIP3    H163949   1.289   3.385  14.343  0.2087 -0.6205  1.0324
14178TIP3    H263950   1.214   3.460  14.451  0.5340 -1.5994  1.9605
14179TIP3   OH263951   3.041   5.372  16.441  0.5184  0.2493  0.8456
14179TIP3    H163952   3.090   5.381  16.360 -0.6338  0.1048  0.1199
14179TIP3    H263953   3.106   5.342  16.505  1.1362 -1.2049 -0.4036
14180TIP3   OH263954   4.994   1.259  11.114 -0.3131  0.5396 -0.2933
14180TIP3    H163955   5.049   1.337  11.118  0.5594 -0.1022  1.5377
14180TIP3    H263956   4.906   1.290  11.134 -0.6132  1.5106 -2.8041
14181TIP3   OH263957   6.160   0.260   4.482 -0.1169 -0.1773  0.8032
14181TIP3    H163958   6.172   0.165   4.473  0.9659 -0.1252  1.5008
14181TIP3    H263959   6.150   0.291   4.392  0.5556 -0.8387  0.4828
14182TIP3   OH263960   0.271   1.264  10.906 -0.4292 -0.0380 -0.7764
14182TIP3    H163961   0.317   1.191  10.947 -1.0132 -0.9737 -1.7567
14182TIP3    H263962   0.286   1.253  10.812 -0.0468  1.4433 -0.9288
14183TIP3   OH263963   2.084   0.827  13.215 -0.2449 -0.0617 -0.0290
14183TIP3    H163964   2.012   0.827  13.153  0.9879 -0.3830 -1.5027
14183TIP3    H263965   2.155   0.872  13.170  0.1658  1.2511  1.8073
14184TIP3   OH263966   2.822   5.197   5.657 -0.1172 -0.3402  0.1856
14184TIP3    H163967   2.728   5.209   5.644 -0.3010 -0.7625  1.0160
14184TIP3    H263968   2.856   5.285   5.673 -0.3489 -0.1713 -0.2351
14185TIP3   OH263969   4.968   5.239  12.992  0.2589  0.3737 -0.0182
14185TIP3    H163970   5.043   5.286  12.954  0.5080  0.6298  0.7758
14185TIP3    H263971   4.892   5.292  12.968  0.4294  0.6122 -0.0315
14186TIP3   OH263972   2.338   1.978  14.953 -0.4353 -0.8121 -0.1143
14186TIP3    H163973   2.307   2.009  14.868 -1.0420 -0.9915  0.0427
14186TIP3    H263974   2.429   1.953  14.937  0.2821  1.5558 -0.1346
14187TIP3   OH263975   1.538   3.106  16.420  0.1343  0.2884 -0.3848
14187TIP3    H163976   1.554   3.190  16.462  1.0183 -0.0528 -0.0049
14187TIP3    H263977   1.608   3.049  16.453 -0.6508 -0.6952 -0.3549
14188TIP3   OH263978   1.884   0.089  11.829  0.1167  0.0944 -0.7582
14188TIP3    H163979   1.931   0.105  11.747  0.3682  0.7127 -0.4952
14188TIP3    H263980   1.931   0.015  11.869 -2.0454 -2.6092 -2.7600
14189TIP3   OH263981   3.899   3.446   4.919  0.6049 -0.0225  0.8442
14189TIP3    H163982   3.864   3.455   5.007  1.7443 -0.0311  1.3142
14189TIP3    H263983   3.940   3.531   4.900 -0.6519  0.3946 -0.1598
14190TIP3   OH263984   5.793   2.105   4.028  0.3786  0.3901 -0.0290
14190TIP3    H163985   5.862   2.041   4.008  2.0507  1.9865  0.3780
14190TIP3    H263986   5.837   2.190   4.025 -1.7848  1.5753 -0.6525
14191TIP3   OH263987   2.473   1.637   2.977 -0.0540  0.4814  0.1436
14191TIP3    H163988   2.506   1.582   2.907 -0.0754 -0.2173  0.6753
14191TIP3    H263989   2.390   1.672   2.943  0.6438  1.3421 -0.7505
14192TIP3   OH263990   3.783   6.723  11.173 -0.5469 -0.2601 -0.2968
14192TIP3    H163991   3.745   6.664  11.108  0.9192 -1.9523  0.2963
14192TIP3    H263992   3.877   6.704  11.170 -0.4175 -0.3359  2.2316
14193TIP3   OH263993   4.999   2.183  14.852  0.1420 -0.5550 -0.3640
14193TIP3    H163994   4.942   2.151  14.922 -1.0483  0.5632 -0.7883
14193TIP3    H263995   4.953   2.259  14.816  1.7826  0.2322 -0.8985
14194TIP3   OH263996   6.203   1.031   3.618  0.4532 -0.0880  0.3974
14194TIP3    H163997   6.277   1.045   3.559  0.2544 -0.5154  0.0361
14194TIP3    H263998   6.132   1.081   3.579  0.3657 -0.2405  0.3588
14195TIP3   OH263999   2.856   0.071   3.445  0.1319  0.9472  0.7736
14195TIP3    H164000   2.888   0.111   3.364  0.1301 -1.8901 -0.7625
14195TIP3    H264001   2.935   0.046   3.492  0.1250  2.1028  1.4474
14196TIP3   OH264002   2.089   0.271   6.073  0.4792 -0.4032 -0.1049
14196TIP3    H164003   2.139   0.254   6.153 -0.0190 -1.1989  0.0531
14196TIP3    H264004   2.056   0.360   6.084  1.8971  0.1703 -0.2474
14197TIP3   OH264005   4.185   0.899   2.260 -0.0489 -0.1399 -0.1542
14197TIP3    H164006   4.225   0.883   2.346 -1.7494 -1.9878  0.3875
14197TIP3    H264007   4.119   0.967   2.277 -0.8613 -0.9855  0.2191
14198TIP3   OH264008   1.490   5.778  13.572 -0.3137  0.6954  0.0940
14198TIP3    H164009   1.475   5.806  13.662 -0.0667  2.3743 -0.3634
14198TIP3    H264010   1.430   5.830  13.520  0.0254  0.2268 -0.7868
14199TIP3   OH264011   2.196   3.112  13.538 -0.3242  0.0896  0.3065
14199TIP3    H164012   2.285   3.123  13.504 -0.3467  1.1768  0.5593
14199TIP3    H264013   2.194   3.022  13.571 -0.1533 -0.8460 -2.0463
14200TIP3   OH264014   3.039   4.015   6.042  0.1989  0.4611  0.0729
14200TIP3    H164015   3.070   4.099   6.076 -1.9332  1.5804 -0.5994
14200TIP3    H264016   3.078   3.950   6.101  2.2035  1.8489  0.3876
14201TIP3   OH264017   3.224   1.368  13.468  0.0772 -0.2740 -0.0767
14201TIP3    H164018   3.178   1.295  13.509 -0.9561  0.6329  0.4269
14201TIP3    H264019   3.313   1.363  13.503 -0.2916 -0.6109  0.8455
14202TIP3   OH264020   1.505   4.350   0.190 -0.3904  0.0269 -0.0620
14202TIP3    H164021   1.457   4.290   0.247  0.4710 -1.2919 -0.6591
14202TIP3    H264022   1.443   4.371   0.120 -0.1903 -1.5616 -0.7600
14203TIP3   OH264023   2.184   2.541   5.891 -0.8043 -0.1407  0.6458
14203TIP3    H164024   2.142   2.457   5.908 -0.5492 -0.3434  0.2725
14203TIP3    H264025   2.270   2.533   5.932 -1.4697  0.6305  2.2880
14204TIP3   OH264026   2.636   0.415  16.636 -0.1303 -0.2836  0.1559
14204TIP3    H164027   2.714   0.461  16.606  0.3543 -0.6690  0.8059
14204TIP3    H264028   2.660   0.378  16.721 -0.9265 -0.6480  0.2383
14205TIP3   OH264029   2.165   1.536   1.388 -0.7108  0.6434  0.3862
14205TIP3    H164030   2.231   1.555   1.321  0.2760  0.4870  1.2885
14205TIP3    H264031   2.164   1.440   1.394  0.7866  0.6834  2.0792
14206TIP3   OH264032   5.456   6.196   0.098 -0.1620  0.1595  0.3290
14206TIP3    H164033   5.497   6.236   0.020 -0.5747  2.3550  1.1616
14206TIP3    H264034   5.447   6.104   0.075 -0.3067  0.7217 -2.2554
14207TIP3   OH264035   0.159   2.396   0.340  0.4162 -0.2793 -0.6927
14207TIP3    H164036   0.103   2.426   0.269  0.6267 -1.8432 -1.5797
14207TIP3    H264037   0.139   2.303   0.348  1.2394 -0.3718  0.5226
14208TIP3   OH264038   5.403   0.565   1.897  0.3461  0.2929 -0.1635
14208TIP3    H164039   5.378   0.488   1.948 -2.0156  0.0440 -1.5310
14208TIP3    H264040   5.350   0.636   1.933 -1.5593  0.0671 -2.2424
14209TIP3   OH264041   4.150   4.184  14.540  0.2599  0.0982  0.4246
14209TIP3    H164042   4.135   4.205  14.448 -1.8206  0.8893  0.9128
14209TIP3    H264043   4.120   4.093  14.549 -2.6266  1.0120  0.9405
14210TIP3   OH264044   5.001   2.416   4.406  0.1644 -0.3472 -0.2623
14210TIP3    H164045   4.968   2.335   4.366  0.0974 -0.0666 -0.7808
14210TIP3    H264046   5.015   2.475   4.332  3.0127 -0.8445 -0.2468
14211TIP3   OH264047   4.036   4.797   4.910 -0.2410 -0.0701 -0.1691
14211TIP3    H164048   3.978   4.873   4.910  1.0968  1.0131  1.2539
14211TIP3    H264049   4.096   4.812   4.837  0.5801  0.7203  0.6495
14212TIP3   OH264050   3.510   3.700  11.122 -0.1418  0.6521  0.0364
14212TIP3    H164051   3.504   3.716  11.027 -0.2413 -1.4104 -0.3462
14212TIP3    H264052   3.602   3.677  11.136 -0.5551 -1.0947  0.0539
14213TIP3   OH264053   2.787   6.584  16.526  0.6069  0.3440 -0.2864
14213TIP3    H164054   2.714   6.590  16.588  1.7637 -2.0890  1.4906
14213TIP3    H264055   2.837   6.507  16.555  3.1636  1.1311 -2.2081
14214TIP3   OH264056   1.583   5.765   0.009  0.1859  0.3044 -0.0674
14214TIP3    H164057   1.593   5.671  -0.002 -0.0994  0.3860 -1.1580
14214TIP3    H264058   1.651   5.803  -0.046 -1.3862  0.7517 -1.7939
14215TIP3   OH264059   5.288   2.953   2.403 -0.2562 -0.0500 -0.2506
14215TIP3    H164060   5.213   2.989   2.450  0.8221  1.6661  0.2350
14215TIP3    H264061   5.250   2.896   2.337 -1.9128 -0.6311  1.1236
14216TIP3   OH264062   4.238   0.165  14.017 -0.2931  0.1509 -0.3246
14216TIP3    H164063   4.190   0.225  14.074 -0.0266 -0.6874  0.8294
14216TIP3    H264064   4.327   0.202  14.013  0.2220 -0.7713  1.4164
14217TIP3   OH264065   4.418   1.952   3.657 -0.0991 -0.0500  0.0589
14217TIP3    H164066   4.438   1.936   3.749  1.8031  0.4637 -0.2147
14217TIP3    H264067   4.406   1.865   3.619 -0.1182 -0.2989  0.6343
14218TIP3   OH264068   5.589   1.879   6.740 -0.1435  0.0459  0.8084
14218TIP3    H164069   5.524   1.918   6.800  1.1482 -0.3234  2.5394
14218TIP3    H264070   5.620   1.801   6.786  0.1037 -0.9027 -0.8880
14219TIP3   OH264071   2.408   3.977   0.768 -0.2661  0.3104  0.0154
14219TIP3    H164072   2.443   4.037   0.834  1.6035 -0.2811 -0.3786
14219TIP3    H264073   2.461   3.898   0.777 -2.4594 -1.2175  0.3068
14220TIP3   OH264074   0.416   0.642   4.618 -0.1518 -0.1436  0.0308
14220TIP3    H164075   0.397   0.730   4.650  0.3192  0.2370 -0.7008
14220TIP3    H264076   0.511   0.634   4.625 -0.3469 -1.3220  1.8899
14221TIP3   OH264077   4.249   4.644  11.241  0.3116 -0.3809  0.4863
14221TIP3    H164078   4.165   4.678  11.272 -0.3379 -0.3607 -1.1807
14221TIP3    H264079   4.233   4.550  11.228 -0.0567 -0.0823 -1.5617
14222TIP3   OH264080   4.300   1.091  15.113 -0.0687  0.0677  0.4241
14222TIP3    H164081   4.331   1.078  15.023 -0.3067  0.7774  0.2332
14222TIP3    H264082   4.204   1.093  15.105 -0.1166  3.5198  0.1397
14223TIP3   OH264083   1.280   5.400   1.939  0.1793 -0.3759 -0.4778
14223TIP3    H164084   1.231   5.438   2.013 -1.1594 -2.4773 -0.1963
14223TIP3    H264085   1.362   5.371   1.978  0.7875  1.2376 -0.4924
14224TIP3   OH264086   3.418   0.966   5.037  0.1444 -0.2147 -0.2854
14224TIP3    H164087   3.473   0.968   4.959  0.1935  0.6514 -0.2453
14224TIP3    H264088   3.350   1.031   5.020  2.0566  2.5599  1.6916
14225TIP3   OH264089   5.906   2.621  13.636 -0.0083  0.0335 -0.3814
14225TIP3    H164090   5.911   2.708  13.676 -1.6442 -0.0400  0.0649
14225TIP3    H264091   5.992   2.582  13.652 -0.0811  0.6173  1.6609
14226TIP3   OH264092   1.735   3.278  15.999  0.4534 -0.1348  0.3774
14226TIP3    H164093   1.696   3.257  15.914  1.3344  0.4598 -0.1877
14226TIP3    H264094   1.675   3.341  16.038  0.6444  0.4825 -0.3147
14227TIP3   OH264095   0.047   0.314   1.919 -0.1467  0.0929  0.0006
14227TIP3    H164096   0.124   0.282   1.872 -0.2509 -0.2037  0.0305
14227TIP3    H264097   0.043   0.407   1.898  0.8803  0.3698  0.9022
14228TIP3   OH264098   1.571   4.988   4.022  0.2502 -0.1167 -0.0398
14228TIP3    H164099   1.614   4.905   4.041 -1.0911 -0.8930 -0.3011
14228TIP3    H264100   1.487   4.984   4.068  0.7912  1.7728  1.2569
14229TIP3   OH264101   5.659   2.050   4.436  0.0000 -0.4345 -0.2178
14229TIP3    H164102   5.614   1.987   4.492  0.3721  0.0964  0.7121
14229TIP3    H264103   5.743   2.064   4.479 -0.1674  0.8607 -0.2584
14230TIP3   OH264104   2.280   3.106   1.834 -0.0377 -0.2649 -0.2431
14230TIP3    H164105   2.190   3.140   1.832  0.3143  0.7160 -0.0372
14230TIP3    H264106   2.332   3.174   1.791  0.5087 -1.1610 -1.0415
14231TIP3   OH264107   2.550   3.453  16.054  0.1144 -0.2510  0.4049
14231TIP3    H164108   2.636   3.458  16.096  1.6322 -1.2052 -2.2917
14231TIP3    H264109   2.557   3.510  15.977 -1.9776  0.2906  0.5450
14232TIP3   OH264110   2.897   1.607  15.999 -0.0602 -0.6418  0.1079
14232TIP3    H164111   2.962   1.598  15.930 -0.8934  0.8934 -0.9443
14232TIP3    H264112   2.816   1.573  15.962 -0.2380 -1.0072  0.8040
14233TIP3   OH264113   2.521   1.077  13.825 -0.0628  0.1931 -0.0040
14233TIP3    H164114   2.476   1.038  13.899 -0.6418  0.8640  0.0084
14233TIP3    H264115   2.583   1.139  13.864  1.1478 -0.9641 -0.0029
14234TIP3   OH264116   0.680   3.910   4.663 -0.0281 -0.2387  0.4761
14234TIP3    H164117   0.673   3.926   4.757  1.3745  0.4823  0.4769
14234TIP3    H264118   0.629   3.980   4.623 -1.8841 -1.3936  0.6949
14235TIP3   OH264119   1.039   2.033   5.151  0.5402  0.2229 -0.6932
14235TIP3    H164120   0.966   1.999   5.100  1.0498 -1.4052 -0.4074
14235TIP3    H264121   1.069   1.958   5.203  0.5559  1.6168  1.4038
14236TIP3   OH264122   3.029   5.742   4.545  0.1298  0.7251  0.6156
14236TIP3    H164123   3.116   5.759   4.580 -0.2987  2.0350  1.1284
14236TIP3    H264124   2.991   5.677   4.604  1.0923 -0.6092 -0.1905
14237TIP3   OH264125   3.679   4.857  16.096 -0.2590  0.0613  0.0329
14237TIP3    H164126   3.744   4.892  16.035 -0.2224 -0.1592 -0.0556
14237TIP3    H264127   3.725   4.790  16.146  0.4546  1.9432  2.0954
14238TIP3   OH264128   5.499   5.838  13.671  0.1505  0.2260  0.0321
14238TIP3    H164129   5.404   5.826  13.662  0.0396  0.1790  1.1574
14238TIP3    H264130   5.532   5.752  13.694  0.5561  0.1154 -0.9075
14239TIP3   OH264131   5.172   0.387  15.841  0.2458 -0.1642 -0.0413
14239TIP3    H164132   5.078   0.377  15.857  0.4059  0.4228  1.4327
14239TIP3    H264133   5.213   0.358  15.923  1.3410 -0.0988 -0.5484
14240TIP3   OH264134   0.728   6.401   4.014  0.9573 -0.0934 -0.5579
14240TIP3    H164135   0.773   6.475   3.973 -1.2030  0.7100 -1.6212
14240TIP3    H264136   0.636   6.426   4.014  0.6025 -0.6644  3.5166
14241TIP3   OH264137   0.827   5.329  10.859  0.5864  0.3459 -0.3319
14241TIP3    H164138   0.892   5.394  10.886  0.3418  1.2087 -1.7124
14241TIP3    H264139   0.853   5.249  10.904  1.8892  0.9687  0.0783
14242TIP3   OH264140   3.526   4.419  16.370 -0.5288 -0.1273 -0.3797
14242TIP3    H164141   3.610   4.463  16.364 -0.4310 -0.1744  0.4561
14242TIP3    H264142   3.469   4.482  16.414 -0.3249 -0.8686  1.0358
14243TIP3   OH264143   5.261   1.272  15.268  0.2643  0.2633  0.2996
14243TIP3    H164144   5.326   1.312  15.210  2.0414 -1.3600  1.0490
14243TIP3    H264145   5.304   1.269  15.354  0.5639 -3.6765  0.1952
14244TIP3   OH264146   5.658   5.041  16.396  0.2554 -0.3575  0.0130
14244TIP3    H164147   5.635   4.952  16.421 -1.6005 -0.1932 -0.9028
14244TIP3    H264148   5.582   5.093  16.423  1.2228  0.9212  0.3581
14245TIP3   OH264149   5.526   5.596   3.816 -0.5520 -0.8729 -0.2491
14245TIP3    H164150   5.529   5.606   3.911  1.7473  0.7113 -0.4077
14245TIP3    H264151   5.525   5.501   3.803 -0.0678 -1.1380  1.3745
14246TIP3   OH264152   6.687   3.455   4.115 -0.4219 -0.6431 -0.0665
14246TIP3    H164153   6.698   3.480   4.207 -2.9286  0.6601 -0.0404
14246TIP3    H264154   6.638   3.373   4.118  1.2500 -1.6957 -0.2704
14247TIP3   OH264155   4.298   3.234  11.945  0.3012  0.1032  0.2116
14247TIP3    H164156   4.373   3.239  12.004  0.6057  1.6351 -0.2618
14247TIP3    H264157   4.318   3.160  11.887  1.0726 -0.0056  0.6018
14248TIP3   OH264158   5.558   2.511  15.478  0.2149 -0.2750  0.1131
14248TIP3    H164159   5.606   2.540  15.400 -0.2449  2.6006  0.7603
14248TIP3    H264160   5.624   2.469  15.533  0.5666 -2.2496 -1.7257
14249TIP3   OH264161   6.675   1.064   1.102  0.2418  0.4079  0.0427
14249TIP3    H164162   6.670   0.981   1.150  0.2267  0.5465  0.2859
14249TIP3    H264163   6.680   1.039   1.010  1.2146  0.1160  0.1721
14250TIP3   OH264164   0.473   6.182  13.615 -0.8661  0.0725  0.1078
14250TIP3    H164165   0.378   6.194  13.606 -0.7232  0.7142 -0.7553
14250TIP3    H264166   0.509   6.217  13.533  0.0325 -1.2715 -0.1046
14251TIP3   OH264167   3.355   5.969   5.369  0.0530  0.0189  0.0264
14251TIP3    H164168   3.268   5.935   5.391 -1.2766  2.2221 -1.5024
14251TIP3    H264169   3.405   5.961   5.451 -1.4903 -1.4412  0.8972
14252TIP3   OH264170   1.262   4.156  12.344  0.2433  0.3367  0.0487
14252TIP3    H164171   1.259   4.189  12.434 -2.5117  0.1045  0.1187
14252TIP3    H264172   1.246   4.062  12.352 -2.3270  0.6200 -0.7253
14253TIP3   OH264173   5.300   3.314   4.152  0.4392  0.5906  0.4064
14253TIP3    H164174   5.315   3.355   4.067  1.3636  1.7218  1.0876
14253TIP3    H264175   5.384   3.319   4.197 -0.2340  0.7626  1.6961
14254TIP3   OH264176   1.311   5.526   6.644 -0.2906 -0.2000  0.0491
14254TIP3    H164177   1.256   5.571   6.709  2.3440  2.0901  0.8972
14254TIP3    H264178   1.250   5.471   6.595 -3.2073  1.6628  1.3119
14255TIP3   OH264179   6.164   4.456   2.765 -0.2101  0.0326 -0.2302
14255TIP3    H164180   6.236   4.513   2.792 -0.5538 -0.1713  1.1619
14255TIP3    H264181   6.203   4.396   2.702  0.6067  0.5384 -0.2218
14256TIP3   OH264182   3.237   0.520   6.547  0.1886  0.1818  0.0608
14256TIP3    H164183   3.211   0.608   6.521 -1.0920 -0.3968 -0.7282
14256TIP3    H264184   3.299   0.492   6.480 -0.8758 -0.2225 -0.7660
14257TIP3   OH264185   2.191   6.114   6.036 -0.2348  0.6664 -0.0864
14257TIP3    H164186   2.123   6.175   6.065 -0.9365 -0.8257  1.5649
14257TIP3    H264187   2.178   6.107   5.941 -1.3275  1.6378 -0.0332
14258TIP3   OH264188   0.474   0.891   3.866  0.0314  0.2788  0.2078
14258TIP3    H164189   0.532   0.954   3.909  0.2722  0.1962  0.0050
14258TIP3    H264190   0.420   0.856   3.936  1.9762 -1.5938  0.8907
14259TIP3   OH264191   1.895   1.480   4.497 -0.7310 -0.2043  0.2259
14259TIP3    H164192   1.833   1.552   4.505  1.0810  1.7765 -2.0046
14259TIP3    H264193   1.890   1.454   4.405  1.6991  0.0644 -0.0572
14260TIP3   OH264194   5.842   1.015   4.787  0.0720  0.4390 -0.4319
14260TIP3    H164195   5.938   1.024   4.794 -0.1094  1.8265  0.9881
14260TIP3    H264196   5.828   0.925   4.757  1.7610 -0.8383  2.2528
14261TIP3   OH264197   1.490   1.177  14.362 -0.1176 -0.1286  0.2838
14261TIP3    H164198   1.398   1.193  14.340 -0.0264 -1.0861 -0.8642
14261TIP3    H264199   1.487   1.135  14.448 -0.8103 -0.9638 -0.1405
14262TIP3   OH264200   2.430   1.184  13.080 -0.9286  0.6244  0.3619
14262TIP3    H164201   2.497   1.125  13.115 -0.3753  0.6294 -0.6408
14262TIP3    H264202   2.453   1.192  12.987 -2.3833  0.5600 -0.0147
14263TIP3   OH264203   3.093   5.051  13.117 -0.5562 -0.4104  0.1913
14263TIP3    H164204   3.165   4.998  13.084 -1.1582 -1.9234  1.2073
14263TIP3    H264205   3.123   5.083  13.202  0.4965  2.4428 -1.1058
14264TIP3   OH264206   1.858   4.944  11.540 -0.1944 -0.3277  0.0629
14264TIP3    H164207   1.854   5.023  11.487 -0.1951 -0.3385  0.0472
14264TIP3    H264208   1.767   4.923  11.560 -0.2114 -0.4963 -0.1893
14265TIP3   OH264209   2.668   6.164   5.692  0.3240 -0.2883  0.2163
14265TIP3    H164210   2.597   6.183   5.754  1.5528 -0.8000  1.8575
14265TIP3    H264211   2.697   6.249   5.662 -2.1352 -0.0845 -1.9504
14266TIP3   OH264212   3.289   3.718   2.551 -0.5327 -0.2402 -0.5211
14266TIP3    H164213   3.312   3.637   2.596 -1.1651 -0.3591 -0.4097
14266TIP3    H264214   3.338   3.786   2.597 -1.6411 -0.2666  0.7679
14267TIP3   OH264215   5.418   3.010   0.362 -0.1933 -0.3754  0.3343
14267TIP3    H164216   5.491   3.022   0.301  0.3136  1.7315  1.2781
14267TIP3    H264217   5.372   3.093   0.361 -0.3908 -0.4091  2.5244
14268TIP3   OH264218   3.652   5.897   4.559 -0.1719  0.1577 -0.0199
14268TIP3    H164219   3.669   5.840   4.635  2.3791 -2.0952 -2.0506
14268TIP3    H264220   3.736   5.941   4.544 -1.0020  1.5184 -0.8448
14269TIP3   OH264221   4.083   0.423   0.910 -0.2156 -0.0627 -0.2892
14269TIP3    H164222   4.083   0.423   0.814 -1.1128  2.1318 -0.3552
14269TIP3    H264223   3.990   0.425   0.934 -0.0660  2.5325  0.4655
14270TIP3   OH264224   0.948   6.474   5.553 -0.0717  0.1283  0.4764
14270TIP3    H164225   1.040   6.451   5.570 -0.2076 -0.7599  0.0778
14270TIP3    H264226   0.953   6.553   5.499  0.4373  0.5612  1.1494
14271TIP3   OH264227   0.562   2.659  16.956 -0.6228 -0.1050  0.1077
14271TIP3    H164228   0.638   2.604  16.974 -0.0039  0.5111 -0.5745
14271TIP3    H264229   0.558   2.720  17.030  0.2587  0.6232 -0.4289
14272TIP3   OH264230   1.589   0.096   0.790 -0.2837  0.4830 -0.1256
14272TIP3    H164231   1.683   0.112   0.795 -0.0963 -0.8541  2.0070
14272TIP3    H264232   1.549   0.169   0.838 -0.3194  0.7454 -0.5436
14273TIP3   OH264233   5.859   2.772   5.053 -0.0772 -0.2299  0.0199
14273TIP3    H164234   5.770   2.749   5.078 -1.1863  2.4848 -0.9769
14273TIP3    H264235   5.874   2.724   4.972 -1.6709  1.0743 -1.1350
14274TIP3   OH264236   5.187   1.622  12.117  0.4146  0.0021  0.3909
14274TIP3    H164237   5.227   1.612  12.203  0.6923  2.2091  0.5730
14274TIP3    H264238   5.201   1.714  12.094 -1.5705  0.0222 -1.0381
14275TIP3   OH264239   6.637   5.451   1.891  0.3309  0.7187 -0.0957
14275TIP3    H164240   6.723   5.408   1.888  0.4421  0.9683 -1.2296
14275TIP3    H264241   6.581   5.388   1.936  1.5344  1.4146  2.5251
14276TIP3   OH264242   5.463   5.901  15.417 -0.1237 -0.4099 -0.3256
14276TIP3    H164243   5.432   5.981  15.376 -0.6628  0.7088  2.1160
14276TIP3    H264244   5.385   5.846  15.427  0.0036 -0.6736 -0.7362
14277TIP3   OH264245   2.037   5.723  12.877 -0.3457  1.1475  0.8812
14277TIP3    H164246   2.079   5.782  12.940 -0.1320 -0.6756  2.5319
14277TIP3    H264247   1.973   5.674  12.929 -1.1564  0.5429 -0.6266
14278TIP3   OH264248   6.053   1.365  16.492  0.3946  0.4884  0.2149
14278TIP3    H164249   5.964   1.397  16.480  0.1949  0.7288  2.0956
14278TIP3    H264250   6.109   1.443  16.485  0.3393  0.5344  0.2934
14279TIP3   OH264251   6.330   2.871  11.550 -0.0301  0.0078 -0.4093
14279TIP3    H164252   6.364   2.792  11.594 -0.4064 -0.4138 -0.8681
14279TIP3    H264253   6.261   2.839  11.493 -1.1330  0.8420  0.4268
14280TIP3   OH264254   1.486   4.377  11.534 -0.2031 -0.4250 -0.0744
14280TIP3    H164255   1.446   4.373  11.448 -1.0406 -3.0272  0.3403
14280TIP3    H264256   1.459   4.461  11.570 -0.5447  0.3200 -1.9981
14281TIP3   OH264257   4.616   3.914   3.754  0.4439 -0.1428  0.6715
14281TIP3    H164258   4.685   3.908   3.820  0.1039 -1.2873  0.9355
14281TIP3    H264259   4.572   3.829   3.756 -1.5340  0.8333  1.0774
14282TIP3   OH264260   1.576   2.276  12.918  0.0462  0.2276 -0.4304
14282TIP3    H164261   1.606   2.314  13.001  2.1334  1.7820 -1.8114
14282TIP3    H264262   1.611   2.187  12.919 -2.4166 -0.8723  1.5315
14283TIP3   OH264263   6.320   6.226  15.653  0.3341 -0.0365  0.6542
14283TIP3    H164264   6.327   6.245  15.747  0.4344  2.1184  0.2661
14283TIP3    H264265   6.406   6.248  15.618  0.1319 -0.3267 -0.0287
14284TIP3   OH264266   5.298   0.928   4.319 -0.2684 -0.3092  0.1170
14284TIP3    H164267   5.375   0.954   4.368 -0.6897  0.2532  0.5013
14284TIP3    H264268   5.264   1.011   4.283  0.5593 -0.7846 -1.9369
14285TIP3   OH264269   4.233   0.699  16.398  0.2824 -0.2244  0.0444
14285TIP3    H164270   4.187   0.629  16.352  2.4789 -1.0194 -1.1069
14285TIP3    H264271   4.322   0.665  16.411  0.6614  1.3045  1.9446
14286TIP3   OH264272   1.208   5.384   5.255  0.1568 -0.0789  0.2890
14286TIP3    H164273   1.243   5.335   5.180  2.1693 -1.1945  1.8622
14286TIP3    H264274   1.181   5.317   5.318  0.0784  0.8357  1.2660
14287TIP3   OH264275   0.150   4.566   1.549  0.3406  0.0054 -0.3263
14287TIP3    H164276   0.169   4.520   1.468  1.4555  0.5513 -0.3968
14287TIP3    H264277   0.204   4.521   1.615  1.1142  0.9243 -0.3191
14288TIP3   OH264278   1.217   6.352   2.112 -0.2685  0.4226 -0.3460
14288TIP3    H164279   1.196   6.352   2.205  0.8007  0.2565 -0.0950
14288TIP3    H264280   1.208   6.261   2.085  2.0950 -0.0485  0.2493
14289TIP3   OH264281   3.424   5.435  13.678  0.3325 -0.5639 -0.2265
14289TIP3    H164282   3.517   5.419  13.694  0.1742 -0.4910  0.8271
14289TIP3    H264283   3.389   5.463  13.763 -0.1914  1.6369 -1.0729
14290TIP3   OH264284   3.007   4.364  12.547  0.1701  0.2779 -0.0089
14290TIP3    H164285   3.025   4.394  12.458 -0.9088 -2.4369 -1.2654
14290TIP3    H264286   3.084   4.392  12.597  0.6312  2.2182 -1.6683
14291TIP3   OH264287   2.026   2.970  13.146  0.0030  0.0051  1.0456
14291TIP3    H164288   2.013   3.004  13.235 -1.4771  0.8381  0.5495
14291TIP3    H264289   1.944   2.924  13.126  0.4748 -0.5085  0.2411
14292TIP3   OH264290   1.152   1.292   3.810 -0.1904  0.2015 -0.2641
14292TIP3    H164291   1.214   1.306   3.882 -0.3520 -1.5134  0.2603
14292TIP3    H264292   1.191   1.338   3.736  0.4937  1.1536  0.6547
14293TIP3   OH264293   2.538   1.174  16.170 -0.0341 -0.6188 -0.1433
14293TIP3    H164294   2.502   1.115  16.103  1.3201 -2.5802  0.7677
14293TIP3    H264295   2.466   1.187  16.232 -1.5266  1.7442 -2.1655
14294TIP3   OH264296   5.118   3.925   4.316  0.1717 -0.1995 -0.4099
14294TIP3    H164297   5.188   3.870   4.282 -2.0752 -3.1367 -0.6794
14294TIP3    H264298   5.093   3.981   4.242  0.9715 -0.4419 -0.8752
14295TIP3   OH264299   0.330   1.292  15.894 -0.3145 -0.3531  0.7846
14295TIP3    H164300   0.306   1.222  15.834  1.1498  0.2597 -0.5840
14295TIP3    H264301   0.269   1.283  15.967 -1.0822 -2.1478 -0.0199
14296TIP3   OH264302   2.077   4.166   5.216  0.4126  0.3220 -0.3810
14296TIP3    H164303   2.017   4.184   5.143 -1.8742 -0.8797  1.1024
14296TIP3    H264304   2.144   4.109   5.179 -1.0274 -0.7374 -1.4305
14297TIP3   OH264305   4.126   1.424   2.630 -0.2833  0.6912 -0.5327
14297TIP3    H164306   4.125   1.355   2.697 -0.3559  0.6084 -0.6185
14297TIP3    H264307   4.176   1.495   2.670 -0.7781  0.8493 -0.1862
14298TIP3   OH264308   4.511   4.266  12.765 -0.1700 -0.1072  0.0588
14298TIP3    H164309   4.457   4.191  12.787 -0.2274  0.2047  1.0448
14298TIP3    H264310   4.592   4.229  12.731  0.0365 -0.6322  1.1046
14299TIP3   OH264311   2.199   1.935   6.136 -0.1092 -0.4914  0.0979
14299TIP3    H164312   2.287   1.972   6.124 -0.1271  0.2964  2.0191
14299TIP3    H264313   2.203   1.891   6.221 -1.6822 -0.0587  0.4247
14300TIP3   OH264314   4.540   6.727  13.189 -0.2717 -0.5584  0.5623
14300TIP3    H164315   4.530   6.639  13.225 -0.4755 -0.5846  0.4395
14300TIP3    H264316   4.624   6.757  13.224  0.5394 -1.3822 -0.5871
14301TIP3   OH264317   0.649   2.051   5.178  0.0544 -0.6204  0.9450
14301TIP3    H164318   0.650   2.126   5.119  1.5937 -0.6164  0.9314
14301TIP3    H264319   0.683   1.979   5.125 -1.3835 -1.3484  0.9630
14302TIP3   OH264320   5.998   4.083  14.490 -0.6318 -0.7759  0.2162
14302TIP3    H164321   6.062   4.048  14.428  2.4717  0.6436  2.3436
14302TIP3    H264322   5.990   4.015  14.557  0.5432 -0.0457  1.1377
14303TIP3   OH264323   3.913   3.948   6.319 -0.4458  0.0307  0.2880
14303TIP3    H164324   4.004   3.957   6.348 -0.6495 -0.1537  1.0092
14303TIP3    H264325   3.862   3.985   6.391 -0.9792 -0.6734  0.2719
14304TIP3   OH264326   3.798   1.403  13.087 -0.2612 -0.1665  0.3463
14304TIP3    H164327   3.753   1.323  13.061  0.5096 -0.3345 -0.4986
14304TIP3    H264328   3.757   1.428  13.170 -2.5322  0.1604 -0.7984
14305TIP3   OH264329   3.784   5.817  11.858  0.1993 -0.1475 -0.0294
14305TIP3    H164330   3.718   5.770  11.909 -0.8075  1.0709 -0.1813
14305TIP3    H264331   3.739   5.842  11.777  0.6823  1.1298  0.0720
14306TIP3   OH264332   5.082   6.569  11.150 -0.2602 -0.1895  0.1228
14306TIP3    H164333   5.157   6.611  11.108  1.3204 -1.2915  1.6953
14306TIP3    H264334   5.005   6.603  11.104  1.2564  0.0881 -2.3240
14307TIP3   OH264335   5.778   4.992  13.856 -0.4963 -0.3574  0.3602
14307TIP3    H164336   5.708   4.931  13.835 -0.4192 -0.3329  0.0241
14307TIP3    H264337   5.792   5.041  13.775 -0.9393  0.4875  0.7794
14308TIP3   OH264338   4.349   5.130   1.051  0.1329  0.6399  0.4351
14308TIP3    H164339   4.268   5.157   1.095 -0.1178 -1.1598  1.1418
14308TIP3    H264340   4.417   5.141   1.117  0.8636  3.8596 -0.6818
14309TIP3   OH264341   3.665   3.538   2.035 -0.2670  0.4265 -0.2077
14309TIP3    H164342   3.674   3.620   1.986  1.9085  1.1496  1.2912
14309TIP3    H264343   3.622   3.563   2.116 -0.0786 -0.0193  0.0342
14310TIP3   OH264344   5.310   6.329  16.839 -0.0883 -0.3707  0.5202
14310TIP3    H164345   5.218   6.331  16.865 -0.6231 -1.1483 -1.1334
14310TIP3    H264346   5.307   6.318  16.744  1.7111 -1.1404  0.5155
14311TIP3   OH264347   0.963   2.545  16.365 -0.3202  0.3471 -0.3304
14311TIP3    H164348   0.887   2.555  16.308 -0.1103 -1.2327 -0.9509
14311TIP3    H264349   1.027   2.608  16.331 -1.4579  2.0074  0.4754
14312TIP3   OH264350   5.404   6.085   6.039 -0.0328  0.0188  0.6555
14312TIP3    H164351   5.395   6.118   6.129  0.0842  0.8344  0.3686
14312TIP3    H264352   5.434   6.160   5.988  1.2440 -0.7975  0.1814
14313TIP3   OH264353   6.258   1.555  16.347 -0.0053  0.3710 -0.3747
14313TIP3    H164354   6.187   1.552  16.283 -0.9072 -0.4160  0.6307
14313TIP3    H264355   6.298   1.468  16.343  0.6433  0.6747 -0.6339
14314TIP3   OH264356   5.151   1.419   4.117 -0.2412 -0.1393 -0.2024
14314TIP3    H164357   5.208   1.473   4.172 -0.3852 -1.1988  1.0224
14314TIP3    H264358   5.170   1.448   4.028 -1.7418  3.3700  0.4311
14315TIP3   OH264359   1.731   2.610   4.179 -0.2400  0.2227 -0.1109
14315TIP3    H164360   1.760   2.679   4.120 -0.7213  1.8076  1.4128
14315TIP3    H264361   1.649   2.578   4.141  0.5615 -0.3473 -1.4347
14316TIP3   OH264362   4.444   4.250  14.461  0.1483 -0.4009  0.4700
14316TIP3    H164363   4.450   4.307  14.538  1.5691  0.7514 -0.4345
14316TIP3    H264364   4.373   4.288  14.408  2.3434  1.8537 -1.0661
14317TIP3   OH264365   4.525   6.294  12.552  0.1143  0.4557  0.6249
14317TIP3    H164366   4.517   6.299  12.457  0.0653  2.0783  0.6819
14317TIP3    H264367   4.462   6.359  12.585  1.1354  0.9415  1.7035
14318TIP3   OH264368   4.795   2.216   0.120  0.6833  0.4335 -0.3502
14318TIP3    H164369   4.888   2.207   0.097  1.1512 -0.9821  1.7943
14318TIP3    H264370   4.784   2.310   0.137  1.5139  0.7295 -1.2694
14319TIP3   OH264371   2.443   3.754  16.112  0.4035  0.2683 -0.8435
14319TIP3    H164372   2.364   3.715  16.150  1.4242 -0.9626  0.0875
14319TIP3    H264373   2.461   3.701  16.034  1.2553 -0.5657 -0.1028
14320TIP3   OH264374   5.043   0.224  16.163 -0.0307 -0.1350 -0.1389
14320TIP3    H164375   5.034   0.144  16.111 -1.0183 -0.5344  0.6284
14320TIP3    H264376   4.962   0.231  16.212 -0.4280  1.9278 -0.9737
14321TIP3   OH264377   6.622   2.336   5.431  0.3237  0.2043 -0.0023
14321TIP3    H164378   6.705   2.296   5.407  1.7821  2.1237  1.4764
14321TIP3    H264379   6.605   2.305   5.520 -0.6025 -0.2275 -0.3207
14322TIP3   OH264380   5.095   2.646  12.378  0.1314 -0.0278  0.7036
14322TIP3    H164381   5.130   2.692  12.302 -0.8051 -0.5227 -0.0520
14322TIP3    H264382   5.097   2.553  12.354  1.1553 -0.3369  1.8558
14323TIP3   OH264383   5.774   3.562  14.924  0.3446  0.0513 -0.3195
14323TIP3    H164384   5.801   3.622  14.994  0.8832  0.2246 -0.6645
14323TIP3    H264385   5.842   3.495  14.923 -0.8392 -1.2236  0.8159
14324TIP3   OH264386   5.413   6.090  13.121 -0.0194 -0.0892 -0.1780
14324TIP3    H164387   5.447   6.004  13.097  1.9400  0.5083  0.2933
14324TIP3    H264388   5.383   6.128  13.038  1.1081 -0.3813 -0.7323
14325TIP3   OH264389   4.425   0.806   4.843  0.2638  0.5064  0.2519
14325TIP3    H164390   4.504   0.753   4.836  1.1146  1.5986  1.2472
14325TIP3    H264391   4.378   0.769   4.917 -0.8333 -0.9453 -1.1013
14326TIP3   OH264392   2.290   0.040  15.678  0.2418 -0.4375  0.1072
14326TIP3    H164393   2.322   0.098  15.748 -0.0071 -0.9389  0.6447
14326TIP3    H264394   2.201   0.070  15.660  0.3234 -0.2770 -0.0293
14327TIP3   OH264395   2.003   6.008  12.807 -0.0622  0.5495  0.4515
14327TIP3    H164396   1.954   5.963  12.875 -1.6829  0.6047 -0.6404
14327TIP3    H264397   1.943   6.013  12.733  2.1439 -0.8987 -1.5632
14328TIP3   OH264398   6.647   5.160  11.354 -0.2588 -0.5777 -0.0046
14328TIP3    H164399   6.578   5.163  11.420 -2.5277  0.0319 -2.2541
14328TIP3    H264400   6.637   5.241  11.304  0.9001 -1.3058 -1.5281
14329TIP3   OH264401   3.218   6.339  10.339  0.5952  0.0512 -0.0553
14329TIP3    H164402   3.276   6.414  10.326  0.2548  0.5159  0.9793
14329TIP3    H264403   3.266   6.265  10.301  2.3340  0.2371  1.6142
14330TIP3   OH264404   1.641   1.972   6.302  0.2950 -0.2047  0.4983
14330TIP3    H164405   1.664   1.894   6.352 -0.0487  0.3840  1.6011
14330TIP3    H264406   1.550   1.990   6.326 -0.4100 -0.7690 -1.5064
14331TIP3   OH264407   3.844   4.482   6.284 -0.0238 -0.0468  0.3664
14331TIP3    H164408   3.763   4.482   6.335 -0.4693  1.7057 -0.2806
14331TIP3    H264409   3.862   4.389   6.268 -0.3705 -0.6006  2.8493
14332TIP3   OH264410   5.638   5.148  13.174  0.5027  0.3105  0.4294
14332TIP3    H164411   5.723   5.169  13.212  0.9266  0.5951 -0.6615
14332TIP3    H264412   5.575   5.193  13.231  1.0423 -0.0988  1.3867
14333TIP3   OH264413   4.206   1.414  13.765 -0.2184  0.6356  0.2727
14333TIP3    H164414   4.187   1.505  13.740 -0.4683  0.8007  1.0404
14333TIP3    H264415   4.154   1.362  13.705 -0.4176  1.0105  0.1135
14334TIP3   OH264416   5.932   3.730  11.612 -0.5748 -0.1711  0.1659
14334TIP3    H164417   5.927   3.756  11.703  1.1123 -0.5485  0.4032
14334TIP3    H264418   5.863   3.780  11.568 -0.7595  0.7590  1.4683
14335TIP3   OH264419   5.086   1.780   3.894  0.1369  0.6297 -0.0972
14335TIP3    H164420   5.143   1.825   3.956  1.0975 -0.4359 -0.1791
14335TIP3    H264421   5.005   1.830   3.895  1.1670  2.3585 -0.2039
14336TIP3   OH264422   3.738   1.741  12.961 -0.0796 -0.1059 -0.6988
14336TIP3    H164423   3.812   1.745  13.021  0.2520 -1.7667 -0.9559
14336TIP3    H264424   3.676   1.805  12.995 -0.6429 -2.0774  2.4385
14337TIP3   OH264425   1.735   4.118   2.553  0.3779  0.3531  0.0356
14337TIP3    H164426   1.809   4.063   2.528  0.6774  1.4277 -1.6355
14337TIP3    H264427   1.668   4.057   2.582  0.7247 -0.9073 -1.6703
14338TIP3   OH264428   3.353   2.041  16.044 -0.2880  0.1292  0.3916
14338TIP3    H164429   3.334   2.134  16.053 -0.7909 -0.0221  1.0191
14338TIP3    H264430   3.435   2.029  16.092  0.3968  0.4452 -0.6779
14339TIP3   OH264431   6.400   6.508  13.955  0.2384  0.6581  0.1307
14339TIP3    H164432   6.405   6.509  14.050 -1.2097  0.6488  0.2274
14339TIP3    H264433   6.339   6.437  13.934  0.2467  0.8983 -0.7846
14340TIP3   OH264434   2.898   1.598   1.199 -0.4985  0.0993  0.0214
14340TIP3    H164435   2.977   1.610   1.145 -0.7632  1.8296 -0.0463
14340TIP3    H264436   2.919   1.644   1.281 -0.6056 -1.3747  0.9046
14341TIP3   OH264437   2.701   1.919  13.200  0.1014  0.3086 -0.2183
14341TIP3    H164438   2.652   1.999  13.218 -0.1396  0.4550 -1.4387
14341TIP3    H264439   2.665   1.888  13.117 -1.5861 -2.4173  1.3722
14342TIP3   OH264440   4.711   4.236  16.015 -0.6292  0.0131 -0.4680
14342TIP3    H164441   4.644   4.294  15.977  1.2153  1.4273 -1.7264
14342TIP3    H264442   4.784   4.240  15.954  1.0992 -0.5121  1.4571
14343TIP3   OH264443   6.346   2.383   5.393  0.0853 -0.0632  0.4265
14343TIP3    H164444   6.304   2.370   5.478 -0.8261  1.7825  0.3053
14343TIP3    H264445   6.440   2.375   5.411  0.0596  2.2331  2.0579
14344TIP3   OH264446   3.101   2.519  13.127 -0.0118 -0.7782 -0.9685
14344TIP3    H164447   3.090   2.591  13.066 -0.5029 -0.6921 -0.7799
14344TIP3    H264448   3.018   2.472  13.126  0.0391 -0.8915 -0.5175
14345TIP3   OH264449   2.918   6.604  13.522 -0.7965 -0.3298  0.0817
14345TIP3    H164450   2.866   6.529  13.494  1.0005 -1.9566  0.8780
14345TIP3    H264451   2.865   6.646  13.590 -0.5298 -2.8415  1.9855
14346TIP3   OH264452   2.482   6.601  11.700  0.2672 -0.3166 -0.4979
14346TIP3    H164453   2.432   6.541  11.645  0.4215  0.2326 -1.2579
14346TIP3    H264454   2.486   6.683  11.649 -0.2440  0.4609  0.6590
14347TIP3   OH264455   2.922   2.443  11.742  0.2901 -0.4418  0.2953
14347TIP3    H164456   2.893   2.534  11.740  0.5384 -0.3714 -0.1822
14347TIP3    H264457   3.014   2.446  11.718  0.2872 -0.8272  0.2249
14348TIP3   OH264458   0.729   4.394   0.967 -0.1469  0.5307  0.6545
14348TIP3    H164459   0.714   4.299   0.962 -0.5218  0.6582 -1.9870
14348TIP3    H264460   0.767   4.407   1.054 -2.9161 -1.6029  2.3814
14349TIP3   OH264461   2.783   4.885   0.029  0.3123 -0.0393  0.0021
14349TIP3    H164462   2.761   4.953   0.092 -2.9470 -0.2155 -0.7654
14349TIP3    H264463   2.796   4.932  -0.054 -3.1826 -0.2143 -0.8235
14350TIP3   OH264464   3.153   6.220  12.439 -0.4207 -0.0792  0.4123
14350TIP3    H164465   3.153   6.286  12.508  2.2218 -0.1435  0.5643
14350TIP3    H264466   3.139   6.137  12.484  0.1925 -0.0127  0.7198
14351TIP3   OH264467   6.331   5.411   3.780  0.1096  0.1813 -0.7841
14351TIP3    H164468   6.258   5.378   3.833  0.1442  0.4725 -0.5546
14351TIP3    H264469   6.345   5.343   3.713  1.8153 -1.5128  1.1626
14352TIP3   OH264470   3.255   4.874  13.841  0.4947 -0.9736  0.2244
14352TIP3    H164471   3.336   4.926  13.839 -0.1890  0.1279 -0.6382
14352TIP3    H264472   3.223   4.882  13.931  1.1208 -1.0433  0.4554
14353TIP3   OH264473   2.960   3.975   4.970 -0.7516  0.3828 -0.4455
14353TIP3    H164474   2.970   3.909   4.901 -1.0571 -0.8509  0.6385
14353TIP3    H264475   2.890   4.032   4.940 -0.4824  0.2182 -1.4090
14354TIP3   OH264476   0.507   4.823   2.817 -0.5726  0.0858  0.6159
14354TIP3    H164477   0.573   4.778   2.870 -1.1303  1.2832  2.4452
14354TIP3    H264478   0.423   4.800   2.858 -1.4038 -1.5710 -1.7822
14355TIP3   OH264479   3.215   0.447  14.229 -0.1303  0.1666  0.5605
14355TIP3    H164480   3.146   0.382  14.223  0.5303 -0.4353 -1.2103
14355TIP3    H264481   3.296   0.396  14.230  0.4279  0.9163 -1.4113
14356TIP3   OH264482   0.995   3.086   5.961  0.5313 -0.3365 -0.7268
14356TIP3    H164483   0.965   3.059   5.874  0.1644  0.1914 -0.7694
14356TIP3    H264484   0.936   3.042   6.022 -0.2652  0.5872 -0.8053
14357TIP3   OH264485   0.565   3.056  16.796  0.0876  0.0097  0.2531
14357TIP3    H164486   0.576   3.000  16.720 -2.1154  0.7095 -0.6561
14357TIP3    H264487   0.478   3.093  16.786  1.6326  4.2814  0.2776
14358TIP3   OH264488   6.243   2.730  16.291 -0.4769 -0.3155 -0.4844
14358TIP3    H164489   6.255   2.810  16.342  2.3280  0.6190 -2.3376
14358TIP3    H264490   6.190   2.758  16.216  0.4982 -0.0902 -1.1277
14359TIP3   OH264491   1.039   0.482  12.428 -0.0280  0.1716 -0.5275
14359TIP3    H164492   1.009   0.391  12.432  1.0476 -0.1398  0.8185
14359TIP3    H264493   1.101   0.483  12.355  2.4082 -0.9871  1.3729
14360TIP3   OH264494   2.732   1.032   1.245 -0.5720 -0.3878  0.0675
14360TIP3    H164495   2.792   0.978   1.193 -1.4329  0.7826 -2.2942
14360TIP3    H264496   2.719   1.111   1.192 -3.4661 -0.1929  0.9208
14361TIP3   OH264497   4.055   3.704  16.722 -0.5758  0.4286 -0.1761
14361TIP3    H164498   4.022   3.671  16.806 -1.7151  0.3386 -0.6400
14361TIP3    H264499   4.022   3.794  16.717 -1.9003 -0.0848 -1.2280
14362TIP3   OH264500   2.809   2.672   1.903  0.1845 -1.0885 -0.0670
14362TIP3    H164501   2.882   2.729   1.877 -0.5041 -0.7808 -1.4142
14362TIP3    H264502   2.734   2.730   1.909  0.3144 -1.0892  3.0134
14363TIP3   OH264503   4.429   1.029   1.027 -0.0434  0.6439 -0.0416
14363TIP3    H164504   4.340   1.042   0.994 -0.6303 -0.3898  1.0602
14363TIP3    H264505   4.460   0.951   0.981 -1.4935 -1.8501  2.8666
14364TIP3   OH264506   4.487   6.551  11.779 -0.2036  0.1209  0.4998
14364TIP3    H164507   4.561   6.508  11.823  1.0860  1.1718 -0.5690
14364TIP3    H264508   4.418   6.551  11.845 -0.0013 -2.7870  0.8491
14365TIP3   OH264509   5.899   0.785  14.218 -0.5493 -0.1259  0.0435
14365TIP3    H164510   5.989   0.758  14.199 -0.2122 -0.4737  1.9099
14365TIP3    H264511   5.859   0.706  14.255 -0.9911  0.6143  1.1594
14366TIP3   OH264512   2.905   5.353  12.360 -0.4652 -0.2211  0.2572
14366TIP3    H164513   2.952   5.273  12.337 -0.5161 -0.1904  0.0444
14366TIP3    H264514   2.821   5.346  12.314 -1.3986 -1.0748  1.9864
14367TIP3   OH264515   3.162   2.304  15.234  0.5617 -0.3957  0.5345
14367TIP3    H164516   3.146   2.282  15.325  0.5895 -0.2780  0.5686
14367TIP3    H264517   3.242   2.258  15.211 -0.4474 -1.9512  0.0097
14368TIP3   OH264518   1.724   1.873   0.157  0.1105 -0.3883 -0.3942
14368TIP3    H164519   1.771   1.925   0.222  0.2221 -0.1297 -0.6755
14368TIP3    H264520   1.757   1.784   0.168 -0.4670 -0.5088  0.4505
14369TIP3   OH264521   2.077   5.393   1.412 -0.6941  0.1758 -0.2217
14369TIP3    H164522   2.119   5.476   1.435  0.7662 -0.5480 -0.1703
14369TIP3    H264523   2.007   5.418   1.351 -0.1527  1.4149 -0.3689
14370TIP3   OH264524   4.261   4.862  11.067  0.0687 -0.2413 -0.1131
14370TIP3    H164525   4.178   4.887  11.026  0.3220  1.0456  0.1254
14370TIP3    H264526   4.236   4.796  11.132 -0.7547  0.0700 -0.1016
14371TIP3   OH264527   1.386   6.593  11.894  0.0731  0.2693 -0.3021
14371TIP3    H164528   1.388   6.551  11.808  2.5717  0.4011 -0.3996
14371TIP3    H264529   1.461   6.653  11.893 -0.2834  0.8168  1.7001
14372TIP3   OH264530   0.673   1.057   1.999  0.1097 -0.0443  0.2452
14372TIP3    H164531   0.600   1.049   2.061  0.5765 -1.5505  0.6432
14372TIP3    H264532   0.631   1.063   1.913 -0.5912  3.1589  0.6761
14373TIP3   OH264533   0.132   4.239  15.798 -0.9910  0.0762  0.2532
14373TIP3    H164534   0.151   4.160  15.747 -0.9472 -0.6030  1.2957
14373TIP3    H264535   0.140   4.311  15.735 -1.7656 -0.8034 -0.8997
14374TIP3   OH264536   2.991   4.242  14.001 -0.2465 -0.3080  0.6604
14374TIP3    H164537   3.079   4.204  14.011 -0.1172 -0.3288 -0.4593
14374TIP3    H264538   2.994   4.322  14.053  0.9111  0.4179 -0.4622
14375TIP3   OH264539   4.417   3.826  12.933  0.0418  0.3974  0.0518
14375TIP3    H164540   4.487   3.803  12.993 -1.6283 -0.2920  1.8198
14375TIP3    H264541   4.366   3.746  12.923 -1.1018  1.1515 -0.3580
14376TIP3   OH264542   1.493   2.619   0.851 -0.0571 -0.4353 -0.1756
14376TIP3    H164543   1.529   2.627   0.939 -0.0471 -1.0254 -0.1182
14376TIP3    H264544   1.399   2.605   0.865 -0.2262  0.5419 -0.3025
14377TIP3   OH264545   4.843   1.449  13.371  1.2085 -0.1576  0.3855
14377TIP3    H164546   4.756   1.482  13.348  1.2480  0.1851  0.7065
14377TIP3    H264547   4.839   1.355  13.354  0.1498 -0.4939  2.2066
14378TIP3   OH264548   1.065   5.251  11.699 -0.0988  0.1038 -0.4494
14378TIP3    H164549   1.089   5.192  11.770 -0.9577  0.2697 -0.0029
14378TIP3    H264550   1.027   5.194  11.632 -1.4444  0.1727  0.2117
14379TIP3   OH264551   3.195   1.283  11.352  0.1256 -0.1902  0.5771
14379TIP3    H164552   3.242   1.264  11.433 -0.3109 -0.4038  0.7838
14379TIP3    H264553   3.222   1.372  11.329  1.6777 -0.7840 -0.0441
14380TIP3   OH264554   5.174   3.884   3.655  0.3248 -0.2975 -0.0941
14380TIP3    H164555   5.083   3.861   3.677 -0.1013 -0.2307 -1.7067
14380TIP3    H264556   5.206   3.809   3.604  0.5422  0.4951 -1.1506
14381TIP3   OH264557   5.880   1.664  12.442 -0.1407  0.0206  0.4219
14381TIP3    H164558   5.936   1.668  12.365  1.0941 -2.1829  1.0983
14381TIP3    H264559   5.924   1.719  12.507  0.6954 -0.8429  0.6052
14382TIP3   OH264560   2.392   1.171   2.493 -0.2146  0.0290  0.8689
14382TIP3    H164561   2.376   1.085   2.453 -0.8026  0.6583 -0.2977
14382TIP3    H264562   2.487   1.180   2.490 -0.2623  0.3555 -1.1269
14383TIP3   OH264563   5.328   1.813   4.101  0.0957  0.0911  0.0018
14383TIP3    H164564   5.373   1.842   4.022 -0.3327 -0.9065 -0.6229
14383TIP3    H264565   5.378   1.738   4.131 -1.4430 -1.4351 -1.0583
14384TIP3   OH264566   6.045   6.435   1.769 -0.3067  0.0728  0.0937
14384TIP3    H164567   6.099   6.428   1.690  0.3626  0.8989  0.4610
14384TIP3    H264568   5.971   6.378   1.752 -0.8013  1.1402 -1.6502
14385TIP3   OH264569   6.580   5.960   4.261  0.2892 -0.5794  0.2875
14385TIP3    H164570   6.533   5.932   4.339 -1.2559 -1.3685 -0.8679
14385TIP3    H264571   6.605   5.879   4.217 -0.5850 -0.1777 -1.0068
14386TIP3   OH264572   1.229   6.607  15.278  0.2200  0.0052  0.5639
14386TIP3    H164573   1.192   6.692  15.253  0.6320 -0.2200 -0.9155
14386TIP3    H264574   1.316   6.606  15.236  0.3268 -1.0393  0.7898
14387TIP3   OH264575   4.218   1.951   1.556  0.0979 -0.1224  0.0272
14387TIP3    H164576   4.146   2.009   1.582  0.0312 -0.2220  0.0628
14387TIP3    H264577   4.284   1.963   1.625 -0.9004 -1.9263  1.3824
14388TIP3   OH264578   4.120   1.672  12.787  0.4605 -0.0729  0.0464
14388TIP3    H164579   4.093   1.616  12.713  2.2225 -0.9500  0.0245
14388TIP3    H264580   4.096   1.621  12.865 -0.5863  0.4647  0.1007
14389TIP3   OH264581   0.696   0.292   5.866  0.5636 -0.4153  0.2096
14389TIP3    H164582   0.764   0.290   5.934 -1.0791  0.5702  1.9719
14389TIP3    H264583   0.684   0.385   5.848  0.3991 -0.6382 -0.8638
14390TIP3   OH264584   2.322   1.690  13.973  0.3133  0.6440 -0.0231
14390TIP3    H164585   2.231   1.680  13.946  1.2803 -0.8442 -3.2573
14390TIP3    H264586   2.330   1.637  14.052 -0.8818 -2.3736 -1.7722
14391TIP3   OH264587   4.321   6.269   0.363  0.2708 -0.4433  0.2093
14391TIP3    H164588   4.406   6.224   0.368  1.7027  2.1594  1.5432
14391TIP3    H264589   4.304   6.298   0.453 -0.8159  1.1572 -0.4639
14392TIP3   OH264590   3.707   1.773  12.509 -0.0009 -0.3655 -0.5230
14392TIP3    H164591   3.742   1.744  12.594  1.0509 -1.0934 -1.1856
14392TIP3    H264592   3.616   1.793  12.527  0.4404  0.4272  1.0045
14393TIP3   OH264593   0.263   1.593   2.094 -0.2853 -0.5527  0.3444
14393TIP3    H164594   0.275   1.677   2.137  1.1175  0.0478 -1.1356
14393TIP3    H264595   0.317   1.532   2.145  1.1240  0.0906 -0.3177
14394TIP3   OH264596   2.605   3.283   5.639  0.0900 -0.1767  0.2337
14394TIP3    H164597   2.544   3.217   5.606  0.0251 -0.1690  0.3376
14394TIP3    H264598   2.686   3.269   5.588 -0.3604  0.5567 -0.7151
14395TIP3   OH264599   5.177   3.304  13.486  0.1595  0.3923 -0.0805
14395TIP3    H164600   5.255   3.346  13.523  0.5236 -0.2104 -0.1536
14395TIP3    H264601   5.211   3.227  13.440 -0.7020 -1.2808  1.9180
14396TIP3   OH264602   1.719   0.534   2.249 -0.3104  0.3065  0.2771
14396TIP3    H164603   1.685   0.465   2.191  1.3711 -1.7002  1.5468
14396TIP3    H264604   1.681   0.514   2.335 -0.5474  1.5673  0.4809
14397TIP3   OH264605   4.437   1.119   1.857 -0.7915  0.1328 -0.0783
14397TIP3    H164606   4.408   1.088   1.943 -2.0959  2.8703  0.5778
14397TIP3    H264607   4.377   1.077   1.796  0.3042 -2.0443  0.2219
14398TIP3   OH264608   5.124   4.996  12.723  0.5758  0.2479  0.1703
14398TIP3    H164609   5.169   4.913  12.709  0.2127  0.4803 -3.1877
14398TIP3    H264610   5.180   5.061  12.679 -0.4686  1.3403  0.4068
14399TIP3   OH264611   6.783   3.056   2.478 -0.5177 -0.5990  0.2072
14399TIP3    H164612   6.722   2.990   2.446 -0.7302 -0.4626  0.3297
14399TIP3    H264613   6.734   3.103   2.545 -0.6304  0.1558 -0.3828
14400TIP3   OH264614   2.461   3.146  15.422  0.1923  0.4892 -0.1584
14400TIP3    H164615   2.368   3.159  15.404  0.6086  1.7218 -1.6449
14400TIP3    H264616   2.502   3.230  15.399  1.7123 -0.1366  0.1414
14401TIP3   OH264617   6.294   6.058   3.544  0.3266 -0.8769 -0.2086
14401TIP3    H164618   6.228   5.990   3.558  0.0289 -0.6222 -0.3664
14401TIP3    H264619   6.265   6.131   3.598  0.9521 -1.0703  0.4005
14402TIP3   OH264620   0.099   3.141   6.103  0.3425  0.3932 -0.0313
14402TIP3    H164621   0.033   3.200   6.138 -0.0891 -1.4167  2.5117
14402TIP3    H264622   0.121   3.084   6.177  0.7256 -2.5972 -2.2769
14403TIP3   OH264623   3.487   4.998  15.768 -0.0805  0.2785 -0.3450
14403TIP3    H164624   3.493   5.033  15.857  1.5495 -2.3253  0.6794
14403TIP3    H264625   3.556   5.044  15.720 -0.2520  0.9221  0.0092
14404TIP3   OH264626   6.709   3.716  15.824 -0.1276 -0.3066 -0.3662
14404TIP3    H164627   6.804   3.721  15.826 -0.1453  0.0668 -0.5196
14404TIP3    H264628   6.679   3.798  15.863 -0.3809 -0.9138  0.7621
14405TIP3   OH264629   5.679   3.059  16.207 -0.4292 -0.3314  0.1246
14405TIP3    H164630   5.744   3.000  16.246 -1.2774  0.4690  2.9697
14405TIP3    H264631   5.595   3.017  16.223 -0.8603  0.2887 -0.4391
14406TIP3   OH264632   1.045   0.503   3.457  0.1770  0.9747  0.1419
14406TIP3    H164633   1.113   0.435   3.458 -2.1767 -1.5544  0.6622
14406TIP3    H264634   1.040   0.533   3.547 -1.4943 -1.2270  0.8676
14407TIP3   OH264635   0.670   3.322  16.710  0.1265 -0.0373 -0.4845
14407TIP3    H164636   0.598   3.264  16.733 -0.1060  0.6298  0.5697
14407TIP3    H264637   0.653   3.348  16.620  1.4647 -3.3802 -1.8759
14408TIP3   OH264638   3.585   6.334   4.163 -0.0292  0.0237  0.0235
14408TIP3    H164639   3.493   6.326   4.138  0.3946  1.8765 -2.4943
14408TIP3    H264640   3.622   6.247   4.148 -0.9622 -0.2481 -0.7912
14409TIP3   OH264641   5.326   0.695   5.568  0.2309  0.1019 -0.1567
14409TIP3    H164642   5.318   0.790   5.562 -0.9536  0.0304 -0.0808
14409TIP3    H264643   5.322   0.676   5.661  0.3746 -0.0236 -0.1762
14410TIP3   OH264644   5.097   0.664   4.724  0.6811 -0.5127  0.3298
14410TIP3    H164645   5.038   0.604   4.678 -1.0252  1.1679  0.2165
14410TIP3    H264646   5.092   0.746   4.675  2.6923 -0.1257  0.6713
14411TIP3   OH264647   0.053   1.217  12.556  0.5147 -0.7118 -0.1168
14411TIP3    H164648   0.102   1.196  12.636 -1.0165  0.0606  1.0833
14411TIP3    H264649   0.020   1.132  12.526  0.7824 -0.9689  0.2915
14412TIP3   OH264650   0.237   6.390  14.212  0.2472 -0.4527 -0.4571
14412TIP3    H164651   0.156   6.344  14.192  0.1971  0.1525 -1.6957
14412TIP3    H264652   0.305   6.339  14.168  0.5107 -0.7673  0.2953
14413TIP3   OH264653   6.701   1.855   5.894  0.3386 -0.6283 -0.2775
14413TIP3    H164654   6.640   1.810   5.836 -1.4601 -0.4285  1.3370
14413TIP3    H264655   6.739   1.785   5.948 -0.6235 -0.5070  0.5940
14414TIP3   OH264656   2.803   2.528   6.067  0.3527  0.1945 -0.6232
14414TIP3    H164657   2.807   2.493   6.156  0.9634 -1.8792 -1.4099
14414TIP3    H264658   2.715   2.565   6.060  1.2574  3.2181  1.7673
14415TIP3   OH264659   1.341   6.701   4.850  0.4395  0.5721  0.1999
14415TIP3    H164660   1.292   6.619   4.858 -0.9220  1.4757  2.1797
14415TIP3    H264661   1.320   6.733   4.763 -0.5667 -0.2547  0.1168
14416TIP3   OH264662   3.726   1.781  16.418  0.5820 -0.0068 -0.0233
14416TIP3    H164663   3.731   1.701  16.470  0.1385  0.1696  0.3062
14416TIP3    H264664   3.746   1.754  16.329  0.3898 -0.4937  0.0772
14417TIP3   OH264665   0.319   6.323   3.082  0.2239 -0.1542 -0.0945
14417TIP3    H164666   0.226   6.308   3.099  0.2454 -2.1273 -1.3441
14417TIP3    H264667   0.358   6.336   3.168 -0.7947 -2.1845  0.7383
14418TIP3   OH264668   2.212   1.745  16.872  0.0891  0.7927  0.0661
14418TIP3    H164669   2.278   1.718  16.808 -0.1523  0.5979 -0.1023
14418TIP3    H264670   2.256   1.737  16.956 -0.2448 -1.0070  0.1074
14419TIP3   OH264671   5.126   5.474  13.569 -0.2091  0.1594 -0.0299
14419TIP3    H164672   5.099   5.468  13.660 -0.2769  3.0166  0.2296
14419TIP3    H264673   5.221   5.491  13.573  0.2939 -2.1501 -0.6519
14420TIP3   OH264674   3.201   2.187   4.114 -0.2898  0.4200  0.1905
14420TIP3    H164675   3.149   2.119   4.157 -0.3988  0.6762  0.4687
14420TIP3    H264676   3.264   2.215   4.180 -0.3250  0.6753  0.1161
14421TIP3   OH264677   3.238   1.005   0.692  0.5092 -0.2133  0.0661
14421TIP3    H164678   3.279   0.930   0.649  0.8315 -0.2544  0.4367
14421TIP3    H264679   3.287   1.081   0.659  0.6195 -0.2267  0.1966
14422TIP3   OH264680   2.944   3.101  15.785  0.4396 -0.1043 -0.5640
14422TIP3    H164681   2.855   3.134  15.798  0.1031 -0.4889 -1.7305
14422TIP3    H264682   2.959   3.112  15.691  1.0637 -1.4189 -0.6326
14423TIP3   OH264683   1.917   4.360  16.094  0.1492  0.7763 -0.4513
14423TIP3    H164684   1.973   4.293  16.132  1.2095  2.2698  0.7152
14423TIP3    H264685   1.828   4.333  16.117  0.5993  0.1055  0.5499
14424TIP3   OH264686   1.087   5.641  13.037  0.1196  0.1455  0.2144
14424TIP3    H164687   1.027   5.699  13.084 -1.2673  0.0236 -1.2937
14424TIP3    H264688   1.051   5.553  13.050 -0.6804  0.1635 -1.4930
14425TIP3   OH264689   2.781   3.666   6.151 -0.9817  0.8701 -0.1461
14425TIP3    H164690   2.816   3.671   6.240  0.9363  0.1614 -0.8183
14425TIP3    H264691   2.687   3.649   6.163 -0.8446  1.2364  1.7253
14426TIP3   OH264692   1.576   2.310  12.628  0.1520 -0.1530 -0.0201
14426TIP3    H164693   1.585   2.290  12.721  2.3903  2.9509  0.5937
14426TIP3    H264694   1.497   2.364  12.622  0.7995  0.8391  0.3325
14427TIP3   OH264695   4.677   1.584  10.549 -0.0532 -0.0126 -0.4244
14427TIP3    H164696   4.628   1.666  10.556  0.0670  0.0935 -0.8466
14427TIP3    H264697   4.641   1.529  10.619  0.6246  0.7844  0.5661
14428TIP3   OH264698   5.746   1.057  15.158 -0.1783  0.1250 -0.1202
14428TIP3    H164699   5.690   0.982  15.134  3.9112 -3.1552 -0.5357
14428TIP3    H264700   5.708   1.089  15.239 -2.7428 -1.7178 -0.4368
14429TIP3   OH264701   1.995   4.961   4.976 -0.1931  0.5628  0.3023
14429TIP3    H164702   2.007   4.871   5.007  0.3783 -0.1588 -1.8627
14429TIP3    H264703   1.909   4.960   4.934  0.6099  0.4973 -1.3813
14430TIP3   OH264704   0.920   1.438  11.109  0.5484 -0.3350 -0.9910
14430TIP3    H164705   0.998   1.493  11.099  0.0150  0.1451 -2.9384
14430TIP3    H264706   0.847   1.500  11.105  0.0147 -0.9222 -0.4952
14431TIP3   OH264707   6.507   2.112   3.989 -0.7033 -0.3051  0.1284
14431TIP3    H164708   6.443   2.145   3.926  0.3987 -0.4606 -1.1376
14431TIP3    H264709   6.529   2.024   3.957  2.1719  0.7437 -1.1970
14432TIP3   OH264710   1.435   5.020  10.987 -0.3004  0.3739 -0.1610
14432TIP3    H164711   1.474   4.985  10.907 -0.6030  3.2673 -1.7023
14432TIP3    H264712   1.342   5.000  10.979 -0.0163 -1.5259  0.7555
14433TIP3   OH264713   3.057   6.680  17.158  0.1530 -0.2479 -0.3175
14433TIP3    H164714   3.022   6.734  17.087 -0.2326 -2.7825 -2.1995
14433TIP3    H264715   3.002   6.700  17.234 -0.2791  1.5748 -1.0825
14434TIP3   OH264716   6.491   1.487   4.653  0.2972 -0.0243 -0.1275
14434TIP3    H164717   6.466   1.396   4.674  0.9249 -0.5681 -1.5969
14434TIP3    H264718   6.503   1.529   4.738  0.7140 -1.5295  0.5926
14435TIP3   OH264719   2.118   2.524   4.087  0.1764 -0.1272  0.1924
14435TIP3    H164720   2.081   2.611   4.104  1.1402 -0.1706  3.2733
14435TIP3    H264721   2.050   2.463   4.114  0.0746 -0.2999 -0.4551
14436TIP3   OH264722   1.010   1.762  14.038 -0.7298  0.8487  0.3019
14436TIP3    H164723   1.039   1.848  14.069  0.8567  0.0296  1.1964
14436TIP3    H264724   0.932   1.781  13.986  0.9078  3.1368 -1.5489
14437TIP3   OH264725   2.690   2.322   3.757  0.7059 -0.0304  0.0020
14437TIP3    H164726   2.740   2.245   3.782  1.1089  0.2696  0.1341
14437TIP3    H264727   2.604   2.288   3.731  1.4521 -0.7262 -1.7153
14438TIP3   OH264728   5.376   1.182  14.232 -0.6293 -0.0116  0.3921
14438TIP3    H164729   5.332   1.151  14.312 -0.3205 -0.8555  0.2520
14438TIP3    H264730   5.468   1.155  14.244 -0.5422  0.0347 -0.1552
14439TIP3   OH264731   1.254   0.098  16.536  0.3694  0.0265 -0.3830
14439TIP3    H164732   1.323   0.161  16.516  1.0600 -0.2985  0.8690
14439TIP3    H264733   1.173   0.143  16.511  0.7402  1.9334  1.5016
14440TIP3   OH264734   5.850   4.841  16.170  0.4053 -0.2617  0.4313
14440TIP3    H164735   5.861   4.923  16.122  2.0036 -0.2822  0.7062
14440TIP3    H264736   5.839   4.775  16.103 -0.5582  0.1108  0.1993
14441TIP3   OH264737   1.855   3.209  14.689  0.0354  0.5059 -0.0000
14441TIP3    H164738   1.834   3.292  14.732  0.0438  0.0011  1.0197
14441TIP3    H264739   1.775   3.185  14.642  0.3927  1.6166 -1.2121
14442TIP3   OH264740   4.889   0.907  17.016 -0.1419 -0.3129  0.4095
14442TIP3    H164741   4.934   0.827  16.987  2.6796  1.3110 -0.1358
14442TIP3    H264742   4.956   0.955  17.064 -1.7867  1.6974  0.8024
14443TIP3   OH264743   2.052   1.292   0.489  0.2312  0.5176  0.6675
14443TIP3    H164744   2.063   1.206   0.530  0.7863  0.6602  0.8220
14443TIP3    H264745   1.965   1.289   0.450  0.2178 -0.0873  0.7405
14444TIP3   OH264746   6.463   3.160   0.072  0.3813 -0.2688  0.1074
14444TIP3    H164747   6.513   3.242   0.078  0.4450 -0.3047  0.0575
14444TIP3    H264748   6.518   3.102   0.019  0.5961 -0.5340  0.6145
14445TIP3   OH264749   6.373   5.844  12.806 -0.3313 -0.1353  0.1987
14445TIP3    H164750   6.420   5.907  12.859 -0.5075  1.5776 -1.5623
14445TIP3    H264751   6.373   5.764  12.858  0.1280  1.2162  2.4119
14446TIP3   OH264752   0.306   6.551   2.646 -0.4371  0.0211 -1.0995
14446TIP3    H164753   0.284   6.644   2.655 -1.3004 -0.2407 -0.2935
14446TIP3    H264754   0.253   6.520   2.573 -0.5522  0.0499 -1.0291
14447TIP3   OH264755   0.846   3.094  11.060 -0.1142 -0.6689  0.1328
14447TIP3    H164756   0.844   3.100  11.156  0.7583 -0.5712  0.1548
14447TIP3    H264757   0.802   3.173  11.030 -0.5584 -0.7889  0.4475
14448TIP3   OH264758   6.670   4.588   5.851 -0.3978  0.5468 -0.1278
14448TIP3    H164759   6.635   4.528   5.917 -0.9267 -0.4341 -1.2527
14448TIP3    H264760   6.751   4.620   5.888 -1.5875  1.4983  1.8037
14449TIP3   OH264761   4.003   5.172  16.636 -0.2705  0.1044 -0.3810
14449TIP3    H164762   4.086   5.128  16.617  0.1380 -0.1855  1.7838
14449TIP3    H264763   3.966   5.192  16.550  0.1129 -3.3317 -1.4915
14450TIP3   OH264764   5.459   1.524  15.896  0.0668  0.1288  0.0898
14450TIP3    H164765   5.428   1.615  15.893 -0.1934  0.0332 -0.2053
14450TIP3    H264766   5.554   1.532  15.911  0.0135  0.4408  0.2856
14451TIP3   OH264767   4.069   3.046   1.912 -0.1574 -0.1324 -0.0306
14451TIP3    H164768   4.023   3.124   1.881  0.0953  0.7112  1.5578
14451TIP3    H264769   4.146   3.082   1.958  0.5678 -1.3765 -0.2450
14452TIP3   OH264770   3.401   2.914   1.437 -0.1691  0.4579 -0.1563
14452TIP3    H164771   3.485   2.936   1.396 -1.1263  0.8618 -2.0451
14452TIP3    H264772   3.385   2.986   1.498  0.0999  1.2672 -1.0093
14453TIP3   OH264773   0.911   2.967  11.428  0.2192  0.1370 -0.0157
14453TIP3    H164774   0.895   2.973  11.523 -1.5752 -0.3804 -0.2379
14453TIP3    H264775   0.837   3.014  11.390  0.2962 -0.6747 -1.1898
14454TIP3   OH264776   5.462   2.907   4.146  0.4657  0.1842 -0.1496
14454TIP3    H164777   5.387   2.934   4.092 -0.5935  1.2419  1.7685
14454TIP3    H264778   5.532   2.967   4.121 -0.1076  0.8789 -0.1027
14455TIP3   OH264779   0.623   3.350   4.013  0.3803  0.2625 -0.8026
14455TIP3    H164780   0.537   3.348   4.054  0.0011 -1.3827 -1.5959
14455TIP3    H264781   0.607   3.392   3.928  0.7609  1.7133 -0.1915
14456TIP3   OH264782   2.355   5.610  14.083 -0.6303 -0.1892  0.4297
14456TIP3    H164783   2.265   5.582  14.064 -0.1329 -1.0551 -0.7795
14456TIP3    H264784   2.387   5.547  14.146 -0.3821 -0.8178 -0.3058
14457TIP3   OH264785   5.273   5.075  14.745  0.2322  0.3920 -0.1099
14457TIP3    H164786   5.274   5.171  14.745 -0.5949  0.4402 -1.9904
14457TIP3    H264787   5.363   5.050  14.725  0.0101  0.8512 -1.8269
14458TIP3   OH264788   1.003   5.914   5.495 -0.1006  0.5074 -0.2375
14458TIP3    H164789   1.092   5.945   5.483  0.4930 -0.7920  0.5346
14458TIP3    H264790   1.008   5.856   5.571 -1.9598  1.7852  0.9239
14459TIP3   OH264791   2.896   0.582   6.215 -0.2176 -0.3272 -0.3592
14459TIP3    H164792   2.881   0.635   6.293 -0.1208 -0.7184 -0.0687
14459TIP3    H264793   2.921   0.645   6.147  1.1812 -0.1174  0.3152
14460TIP3   OH264794   2.077   1.772  11.328 -0.0440  0.0462  0.2665
14460TIP3    H164795   2.140   1.742  11.393  1.1455  1.4116 -0.2133
14460TIP3    H264796   2.118   1.848  11.287 -2.1221  1.2057  0.1540
14461TIP3   OH264797   5.428   1.712   1.657 -0.4524 -0.0351  0.5411
14461TIP3    H164798   5.409   1.626   1.619 -0.2564 -0.4607  1.3619
14461TIP3    H264799   5.485   1.754   1.593 -0.1858 -0.6985  0.3260
14462TIP3   OH264800   5.277   4.269  12.557  0.2634 -0.0503  0.3731
14462TIP3    H164801   5.240   4.255  12.644 -0.2183 -1.7913 -0.0942
14462TIP3    H264802   5.372   4.270  12.572  0.2302 -1.4828  0.7799
14463TIP3   OH264803   2.240   3.731  12.516  0.3196 -0.1836 -0.1828
14463TIP3    H164804   2.157   3.731  12.468  0.1663 -1.1050  0.0666
14463TIP3    H264805   2.282   3.647  12.492  0.9756  0.0723  0.0374
14464TIP3   OH264806   4.693   3.404   5.183 -0.3669  0.4159 -0.4104
14464TIP3    H164807   4.635   3.445   5.120 -0.1471  0.5623 -0.5200
14464TIP3    H264808   4.729   3.477   5.234  0.1196  0.3786 -0.6876
14465TIP3   OH264809   3.990   6.541   0.745  0.4965 -0.0942  0.3104
14465TIP3    H164810   3.995   6.522   0.839  0.3453 -0.8830  0.1668
14465TIP3    H264811   3.988   6.637   0.740  2.7278  0.0523  1.0143
14466TIP3   OH264812   4.531   3.420   1.102  0.1297  0.3117  0.4266
14466TIP3    H164813   4.444   3.450   1.128 -0.7475 -1.3472 -0.3931
14466TIP3    H264814   4.587   3.438   1.178 -0.5082  2.9507  0.3454
14467TIP3   OH264815   3.089   3.655   4.843 -0.0826  0.9549  0.6032
14467TIP3    H164816   3.148   3.730   4.837  0.8692  0.1404 -1.1825
14467TIP3    H264817   3.086   3.634   4.936  0.5156  2.5099  0.9966
14468TIP3   OH264818   5.579   2.193   3.850 -0.1175  0.0771  0.6388
14468TIP3    H164819   5.636   2.150   3.913 -0.0585 -0.4995  0.1926
14468TIP3    H264820   5.499   2.212   3.900 -0.1610 -0.5879  0.8222
14469TIP3   OH264821   5.312   2.511  16.576 -0.4730 -0.5730  0.0903
14469TIP3    H164822   5.270   2.518  16.662  0.3403 -1.4201  0.5757
14469TIP3    H264823   5.248   2.466  16.521 -1.0975  0.1965  0.1679
14470TIP3   OH264824   2.440   3.596  16.827  0.0011 -0.2847  0.0701
14470TIP3    H164825   2.360   3.602  16.878 -0.2031 -0.2568 -0.2514
14470TIP3    H264826   2.414   3.623  16.738  0.3365 -0.3918 -0.0611
14471TIP3   OH264827   2.095   0.981  11.100  0.2226 -0.3447  0.2857
14471TIP3    H164828   2.007   0.942  11.108  0.3085 -0.4985  0.5161
14471TIP3    H264829   2.117   1.007  11.190 -0.3983  1.4938 -0.0624
14472TIP3   OH264830   4.827   3.925  11.165 -0.6478 -0.4436  0.8558
14472TIP3    H164831   4.739   3.962  11.169 -0.6936 -0.6509  2.3752
14472TIP3    H264832   4.815   3.836  11.132 -0.7592  0.1763 -0.8660
14473TIP3   OH264833   2.388   4.623  13.007  0.0642 -0.1737 -0.3806
14473TIP3    H164834   2.455   4.557  12.991 -0.3008 -0.7853  0.5057
14473TIP3    H264835   2.421   4.672  13.083 -0.5309 -0.5670  0.1514
14474TIP3   OH264836   5.171   5.075  11.064 -0.3352  0.0701  0.5532
14474TIP3    H164837   5.251   5.098  11.017 -0.0493  0.5402  1.2456
14474TIP3    H264838   5.105   5.135  11.028  0.0969  1.0752  1.3871
14475TIP3   OH264839   2.887   0.365  15.487  0.4236 -0.4243 -0.7306
14475TIP3    H164840   2.858   0.360  15.578  0.6602  0.6365 -0.5744
14475TIP3    H264841   2.809   0.343  15.435 -0.8029  2.4581 -0.3236
14476TIP3   OH264842   6.398   1.424  17.222 -0.1047 -0.3955  0.3963
14476TIP3    H164843   6.356   1.362  17.281  0.5848 -1.5593 -0.3088
14476TIP3    H264844   6.477   1.379  17.191  0.6558  1.0017  0.2077
14477TIP3   OH264845   6.112   2.602  14.594 -0.2334  0.5859 -0.2028
14477TIP3    H164846   6.053   2.612  14.519  0.0657 -0.2239 -0.5543
14477TIP3    H264847   6.138   2.692  14.616  2.1237  0.7586 -3.0452
14478TIP3   OH264848   1.638   2.356  11.958  0.0119 -0.0280 -0.3939
14478TIP3    H164849   1.686   2.385  11.881 -1.6891 -0.8999 -1.8682
14478TIP3    H264850   1.547   2.381  11.940 -0.6147 -1.3720  0.7286
14479TIP3   OH264851   0.806   0.510  13.678  0.7740 -0.1307 -0.0637
14479TIP3    H164852   0.843   0.470  13.600  0.2334 -1.0569  0.1387
14479TIP3    H264853   0.716   0.479  13.681  0.9704 -0.6465  1.2693
14480TIP3   OH264854   1.257   0.375   4.150  0.3527  0.2624 -0.3515
14480TIP3    H164855   1.261   0.331   4.065 -1.0135  0.6801 -0.6609
14480TIP3    H264856   1.274   0.467   4.130  2.4049  0.0387  0.1836
14481TIP3   OH264857   5.200   3.528   1.666 -0.1442  0.3653  0.4774
14481TIP3    H164858   5.265   3.491   1.607  0.1994  0.6140  0.6908
14481TIP3    H264859   5.130   3.558   1.609  0.1304  0.4950  0.2038
14482TIP3   OH264860   0.699   5.797   2.220  0.0714  0.0300  0.4637
14482TIP3    H164861   0.698   5.892   2.228 -0.0074  0.0957 -0.3273
14482TIP3    H264862   0.638   5.767   2.288 -2.8180  0.7291 -1.6402
14483TIP3   OH264863   6.570   2.233   2.314  0.4224 -0.4952  0.3976
14483TIP3    H164864   6.641   2.285   2.276 -0.1749  0.2391  0.2681
14483TIP3    H264865   6.521   2.295   2.368 -0.9374 -0.6440 -0.6158
14484TIP3   OH264866   2.671   5.954  10.837 -0.0028 -0.0320 -0.3043
14484TIP3    H164867   2.706   6.003  10.763  2.7591  0.2169  1.0431
14484TIP3    H264868   2.600   6.009  10.870 -0.1513  0.6654 -1.7010
14485TIP3   OH264869   0.874   6.522  16.444 -0.5347 -0.0930 -0.4823
14485TIP3    H164870   0.946   6.462  16.465 -1.0147 -0.2716  0.7842
14485TIP3    H264871   0.900   6.563  16.362 -0.5561 -2.6606 -1.8880
14486TIP3   OH264872   4.418   0.772  13.075  0.4849  0.1598  0.0547
14486TIP3    H164873   4.413   0.765  12.980  1.3622 -0.1252  0.0207
14486TIP3    H264874   4.436   0.865  13.091  2.6537 -0.1601 -0.2007
14487TIP3   OH264875   5.248   1.298  13.948 -0.4541 -0.2068  0.8410
14487TIP3    H164876   5.339   1.317  13.924  0.2178 -1.5878  2.1467
14487TIP3    H264877   5.225   1.367  14.011 -0.0515 -0.2721  1.0656
14488TIP3   OH264878   6.125   5.585  16.559  0.0720  0.0740 -0.2224
14488TIP3    H164879   6.169   5.665  16.531  1.1318 -0.4489 -0.1134
14488TIP3    H264880   6.194   5.519  16.558 -0.4399 -0.5030  1.1859
14489TIP3   OH264881   4.998   4.119  13.240  0.0100 -0.3105 -0.1976
14489TIP3    H164882   5.034   4.038  13.203  0.5049  0.2476 -0.9796
14489TIP3    H264883   4.904   4.114  13.221 -0.1162 -1.1354  0.6109
14490TIP3   OH264884   3.413   3.275   4.637 -0.0626  0.2311  0.9176
14490TIP3    H164885   3.391   3.189   4.601 -0.3093  0.2662  0.9829
14490TIP3    H264886   3.331   3.307   4.675  0.6003 -0.6322  3.2517
14491TIP3   OH264887   4.729   3.710   2.853  0.2925  0.8996  0.1306
14491TIP3    H164888   4.689   3.765   2.921  1.1243  1.5537  0.1106
14491TIP3    H264889   4.822   3.729   2.860  0.2545  2.5141 -2.4695
14492TIP3   OH264890   5.385   1.058  14.867 -0.2208 -0.8264  0.0805
14492TIP3    H164891   5.303   1.011  14.853  0.0221 -1.2338  0.0285
14492TIP3    H264892   5.447   1.017  14.806  0.0217 -0.5157  0.1145
14493TIP3   OH264893   0.289   0.495  15.294 -0.2750  0.3019  0.2000
14493TIP3    H164894   0.256   0.517  15.381 -1.3369 -1.6665  0.3514
14493TIP3    H264895   0.276   0.575  15.243 -2.1286  0.6845  1.1602
14494TIP3   OH264896   1.771   6.144   1.811 -0.5848 -0.5076  0.0942
14494TIP3    H164897   1.803   6.054   1.803 -1.3661 -0.9660  1.6848
14494TIP3    H264898   1.844   6.198   1.782 -0.1851 -1.6438 -1.1291
14495TIP3   OH264899   3.608   4.150  15.075 -0.2423  0.1606 -0.2504
14495TIP3    H164900   3.607   4.176  14.983  2.1051  0.6989 -0.1831
14495TIP3    H264901   3.591   4.231  15.123  1.7565  0.6116 -0.1899
14496TIP3   OH264902   4.612   0.383  13.810 -0.1274 -0.3557 -0.1599
14496TIP3    H164903   4.568   0.438  13.874 -1.2890 -0.6889 -0.6482
14496TIP3    H264904   4.633   0.303  13.858  2.1681  0.7083  0.7365
14497TIP3   OH264905   0.236   3.339   3.527  0.7128  0.2001 -0.5432
14497TIP3    H164906   0.246   3.387   3.444 -1.3794  0.6973 -0.5675
14497TIP3    H264907   0.154   3.372   3.564  1.8916  0.4373  2.0685
14498TIP3   OH264908   3.555   0.337  15.993 -0.1447  0.5666 -0.2996
14498TIP3    H164909   3.649   0.317  15.986  0.2508  0.4258  3.4639
14498TIP3    H264910   3.552   0.432  16.005 -0.5302  0.6120 -0.7436
14499TIP3   OH264911   0.328   1.917  13.669  0.1755  0.4104  0.0035
14499TIP3    H164912   0.329   1.983  13.600 -0.5064 -2.1695 -2.6852
14499TIP3    H264913   0.420   1.906  13.693  0.7736 -0.2202 -2.2776
14500TIP3   OH264914   1.114   4.313   1.177 -0.5010  0.3344 -0.6311
14500TIP3    H164915   1.184   4.317   1.241 -0.2666  0.7289 -0.9098
14500TIP3    H264916   1.088   4.404   1.164 -0.3829  0.2814 -1.2729
14501TIP3   OH264917   0.400   0.807   2.148 -0.1968  0.0263  0.5128
14501TIP3    H164918   0.449   0.765   2.218  0.3927  0.1268  0.1659
14501TIP3    H264919   0.324   0.751   2.134 -0.9559  0.6243  2.0376
14502TIP3   OH264920   1.195   0.739   0.627 -0.1134  0.5786  0.3135
14502TIP3    H164921   1.151   0.732   0.543 -0.8356 -0.2679  0.7460
14502TIP3    H264922   1.127   0.767   0.688  0.2904  0.7008  0.7154
14503TIP3   OH264923   3.123   3.762   2.886 -0.2135  0.4792  0.3675
14503TIP3    H164924   3.196   3.765   2.946 -0.1998 -1.3169  0.5138
14503TIP3    H264925   3.050   3.802   2.934 -0.1950 -0.8745  1.5996
14504TIP3   OH264926   6.163   2.460  14.842 -0.7476  0.1567  0.1356
14504TIP3    H164927   6.244   2.488  14.884 -0.2598  0.1694 -0.7901
14504TIP3    H264928   6.145   2.527  14.777  0.1961 -1.3763 -1.8168
14505TIP3   OH264929   4.373   5.327   4.309  0.2261 -0.8738 -0.5068
14505TIP3    H164930   4.280   5.304   4.304  0.0351 -0.1966 -0.1679
14505TIP3    H264931   4.417   5.259   4.257 -0.4236 -1.3640 -0.4372
14506TIP3   OH264932   0.590   0.214   2.805  0.9107 -0.1554 -0.1478
14506TIP3    H164933   0.597   0.285   2.742  0.9500  1.6019  1.7407
14506TIP3    H264934   0.496   0.209   2.824  1.1460  1.1224  1.5387
14507TIP3   OH264935   4.068   1.402   4.983  0.1976  0.5813  0.1187
14507TIP3    H164936   4.065   1.324   5.038  0.6942  0.1725 -0.4153
14507TIP3    H264937   4.057   1.475   5.043 -2.6933  0.0586  0.3886
14508TIP3   OH264938   1.418   4.927   6.172 -0.0482  0.5539 -0.8714
14508TIP3    H164939   1.401   4.993   6.239 -1.2188 -0.1060 -0.4816
14508TIP3    H264940   1.429   4.976   6.091  3.0203  1.5110  0.0077
14509TIP3   OH264941   6.337   1.152   5.116  0.0002  0.7090 -0.0610
14509TIP3    H164942   6.316   1.108   5.199  2.6660  0.5753  0.6242
14509TIP3    H264943   6.353   1.243   5.141 -2.0992  1.3811 -0.9547
14510TIP3   OH264944   3.678   4.125   2.609  0.6880 -0.0080  0.5133
14510TIP3    H164945   3.738   4.169   2.669  1.9007  0.9259 -1.2984
14510TIP3    H264946   3.603   4.184   2.604  1.1835  0.5997  0.0788
14511TIP3   OH264947   5.571   0.201   3.379 -0.0028 -0.2999  0.3914
14511TIP3    H164948   5.646   0.200   3.439  0.1576 -0.3193  0.1939
14511TIP3    H264949   5.610   0.189   3.292 -0.2519 -0.4720  0.3027
14512TIP3   OH264950   2.691   4.549   4.977 -0.1128  0.2069  0.1988
14512TIP3    H164951   2.772   4.567   5.025 -1.5528  2.7556  1.9586
14512TIP3    H264952   2.697   4.457   4.952  2.9357  0.1026  0.9538
14513TIP3   OH264953   6.671   5.268   3.551  0.0956  0.3915  0.1141
14513TIP3    H164954   6.628   5.302   3.473 -1.4000 -1.5717 -0.0021
14513TIP3    H264955   6.733   5.336   3.576 -0.6105  1.8168 -1.7720
14514TIP3   OH264956   3.503   5.368  11.036 -0.0325  0.1143 -0.2749
14514TIP3    H164957   3.417   5.341  11.004  0.1176  0.1964 -0.7642
14514TIP3    H264958   3.561   5.296  11.013 -0.1076 -0.2782  0.7413
14515TIP3   OH264959   0.976   5.383  15.369 -0.5920 -0.2939  0.5926
14515TIP3    H164960   1.056   5.433  15.379 -0.0356 -0.8386 -0.9003
14515TIP3    H264961   0.953   5.392  15.276 -0.9852 -1.9968  0.4832
14516TIP3   OH264962   4.729   5.274   5.000 -0.5506 -0.6550  0.0085
14516TIP3    H164963   4.756   5.300   4.912  0.6580  0.5188  0.6878
14516TIP3    H264964   4.634   5.266   4.995 -0.4332 -1.4850 -1.6059
14517TIP3   OH264965   3.225   0.575   0.377  0.1156  0.0658  0.7337
14517TIP3    H164966   3.176   0.512   0.324  2.2465 -0.9714 -0.1094
14517TIP3    H264967   3.282   0.620   0.314  0.7441  0.7530  1.7695
14518TIP3   OH264968   5.869   6.224  13.942 -0.3173 -0.0179  0.2678
14518TIP3    H164969   5.866   6.239  14.037 -0.3160 -0.0960  0.2808
14518TIP3    H264970   5.858   6.129  13.933 -0.6720  0.0304  0.1689
14519TIP3   OH264971   0.351   0.587   0.106  0.6242 -0.4711  0.0848
14519TIP3    H164972   0.395   0.503   0.092  0.3868 -0.6008  0.1170
14519TIP3    H264973   0.278   0.586   0.045  0.3634 -0.4758  0.3979
14520TIP3   OH264974   2.869   5.996   2.364 -0.0428 -0.6523  0.3415
14520TIP3    H164975   2.786   6.032   2.396 -1.1271 -0.2169 -2.6417
14520TIP3    H264976   2.882   6.039   2.280  3.6687 -0.1477  1.0273
14521TIP3   OH264977   3.722   4.016   3.097 -0.5231 -0.4352 -0.1607
14521TIP3    H164978   3.635   4.043   3.067 -1.0539 -2.8592 -1.0642
14521TIP3    H264979   3.705   3.948   3.161  0.7300  0.6622  1.4023
14522TIP3   OH264980   0.610   0.456   1.049  0.0751 -0.6825 -0.3664
14522TIP3    H164981   0.630   0.363   1.059  1.2715 -0.5077 -1.0213
14522TIP3    H264982   0.569   0.481   1.132  0.6557 -1.5534  0.1927
14523TIP3   OH264983   3.208   2.352  11.733  0.7251 -0.1984 -0.2289
14523TIP3    H164984   3.179   2.307  11.653 -0.1004 -0.8943  0.4345
14523TIP3    H264985   3.281   2.300  11.765  0.2389 -0.6710  0.1415
14524TIP3   OH264986   6.750   4.771   2.513  0.1905 -1.0947  0.1479
14524TIP3    H164987   6.823   4.732   2.466  1.6487  1.1233  0.4174
14524TIP3    H264988   6.677   4.767   2.451  1.6398  0.3445 -1.8072
14525TIP3   OH264989   1.626   5.077  14.144 -0.1859 -0.3732 -0.1188
14525TIP3    H164990   1.532   5.061  14.142 -0.4083  0.4192  1.8461
14525TIP3    H264991   1.643   5.129  14.065 -1.3200 -0.8592 -0.6991
14526TIP3   OH264992   5.659   0.166   4.188 -0.0591  0.2597  0.3207
14526TIP3    H164993   5.708   0.236   4.146 -0.3815 -0.6143 -1.5909
14526TIP3    H264994   5.714   0.140   4.263  0.5548  1.8162  0.4415
14527TIP3   OH264995   6.264   3.796   2.833 -0.4490 -0.7484  0.3587
14527TIP3    H164996   6.296   3.859   2.767 -1.1223 -1.4770 -0.6967
14527TIP3    H264997   6.169   3.796   2.821 -0.4089 -2.5658 -0.2487
14528TIP3   OH264998   2.366   1.727   2.612 -0.0456  0.2949 -0.1019
14528TIP3    H164999   2.415   1.759   2.536  0.4943  0.5618  0.3565
14528TIP3    H265000   2.427   1.671   2.659  0.3434  1.8143  1.2850
14529TIP3   OH265001   0.183   0.005  13.928  0.3439  0.4872 -0.4272
14529TIP3    H165002   0.169   0.058  14.006  1.5871  2.0053 -1.1733
14529TIP3    H265003   0.149  -0.082  13.951  2.1379  0.3985  2.3806
14530TIP3   OH265004   1.775   2.432   1.748 -0.0346 -0.4036  0.3704
14530TIP3    H165005   1.699   2.484   1.724  0.6905  0.6120  0.2125
14530TIP3    H265006   1.787   2.371   1.674 -0.8696 -0.7868  0.5447
14531TIP3   OH265007   3.872   2.245   3.434 -0.2449 -0.6997  0.0094
14531TIP3    H165008   3.850   2.318   3.377  0.5892 -0.7674 -0.4142
14531TIP3    H265009   3.801   2.182   3.420 -0.5434 -0.3121 -0.2388
14532TIP3   OH265010   1.883   1.500   2.056  0.0076  0.2829  0.2848
14532TIP3    H165011   1.864   1.589   2.087  0.9917  1.0815 -1.3195
14532TIP3    H265012   1.925   1.457   2.131  0.2329  1.4203  0.8304
14533TIP3   OH265013   5.092   6.245  11.970 -0.2540 -0.5023 -0.0488
14533TIP3    H165014   5.007   6.245  12.014 -0.0589  3.0285  0.5773
14533TIP3    H265015   5.156   6.254  12.040  0.3069  1.3966 -0.7633
14534TIP3   OH265016   3.109   0.213   0.672 -0.1380 -0.0034 -0.7798
14534TIP3    H165017   3.180   0.264   0.713  0.6325 -1.0046 -0.8386
14534TIP3    H265018   3.148   0.128   0.654 -1.3483 -0.5516 -0.8894
14535TIP3   OH265019   3.417   4.506   5.068  0.3574  0.1501 -0.3161
14535TIP3    H165020   3.503   4.548   5.069  0.3279  0.2489 -1.0175
14535TIP3    H265021   3.383   4.517   5.156 -0.6991  3.8173 -0.9907
14536TIP3   OH265022   6.774   4.434   0.247  0.2066  0.1577  0.1633
14536TIP3    H165023   6.766   4.518   0.202 -2.1323 -0.1807 -0.1913
14536TIP3    H265024   6.791   4.456   0.338 -0.0231  1.0017  0.0054
14537TIP3   OH265025   3.786   2.526  14.700 -0.1342 -0.1489  0.0780
14537TIP3    H165026   3.867   2.502  14.655  1.0765  1.5830  1.1912
14537TIP3    H265027   3.735   2.445  14.703  0.9135 -0.9568 -1.9013
14538TIP3   OH265028   3.054   5.033  15.332  0.0124 -0.4267 -0.2231
14538TIP3    H165029   3.002   5.113  15.340 -0.1469 -0.6305  1.0487
14538TIP3    H265030   3.045   4.991  15.418  0.3498 -1.6487 -0.7708
14539TIP3   OH265031   5.154   1.351   4.496  0.1100  0.5488  0.7647
14539TIP3    H165032   5.070   1.382   4.462 -0.3863 -1.1519  0.3208
14539TIP3    H265033   5.218   1.416   4.468 -1.1198  2.1829  1.6054
14540TIP3   OH265034   2.256   1.403  15.803  0.1975 -0.2154 -0.3482
14540TIP3    H165035   2.201   1.329  15.829  0.1276  0.5186  1.8666
14540TIP3    H265036   2.332   1.397  15.860  1.0381  0.4255 -1.3741
14541TIP3   OH265037   0.587   5.456  14.125 -0.5849 -0.6314  0.4777
14541TIP3    H165038   0.564   5.514  14.198 -0.7155  0.8248 -0.6783
14541TIP3    H265039   0.681   5.470  14.112 -0.9351  0.6338 -0.8851
14542TIP3   OH265040   4.244   0.250   1.549 -0.3121  0.0318 -0.5570
14542TIP3    H165041   4.242   0.187   1.477  0.7330 -1.0686  0.3315
14542TIP3    H265042   4.336   0.252   1.576 -0.5433  1.0411  0.2268
14543TIP3   OH265043   6.265   5.067   5.233 -0.2522  0.1425 -0.2053
14543TIP3    H165044   6.344   5.019   5.259 -0.8808 -0.2375  1.1359
14543TIP3    H265045   6.260   5.056   5.138  0.8819 -0.4814 -0.2152
14544TIP3   OH265046   6.488   0.562   4.846 -0.8718 -0.1270  0.2756
14544TIP3    H165047   6.472   0.469   4.858  1.0228 -0.2214  3.0454
14544TIP3    H265048   6.580   0.567   4.821 -0.4905  1.0035  1.7469
14545TIP3   OH265049   4.492   2.655   3.423  0.5760 -0.6893  0.1544
14545TIP3    H165050   4.404   2.660   3.386 -0.9159 -4.1541  2.7020
14545TIP3    H265051   4.543   2.607   3.358 -0.0812 -0.7604 -0.3202
14546TIP3   OH265052   4.428   4.968  12.552 -0.3430  0.0168 -0.0049
14546TIP3    H165053   4.366   4.895  12.543 -0.2101 -0.2404  1.0829
14546TIP3    H265054   4.402   5.029  12.482 -0.0785 -1.3177 -1.3288
14547TIP3   OH265055   2.326   2.897  11.660  0.3488 -0.0387 -0.3932
14547TIP3    H165056   2.417   2.917  11.681  0.4897 -0.6975 -0.3649
14547TIP3    H265057   2.276   2.931  11.734  0.8572 -2.5114  1.1991
14548TIP3   OH265058   0.892   6.719  15.145 -0.0509 -0.1245 -0.2616
14548TIP3    H165059   0.965   6.778  15.129  0.0876  0.1229  1.1700
14548TIP3    H265060   0.923   6.659  15.213 -0.8473 -0.6352 -0.3231
14549TIP3   OH265061   2.379   1.008   4.344 -0.4702  0.2940  0.9576
14549TIP3    H165062   2.329   1.088   4.326 -0.1160  0.3711  0.2779
14549TIP3    H265063   2.449   1.009   4.279  0.0086 -0.1670  1.4569
14550TIP3   OH265064   5.514   6.712   1.153 -0.6736  0.9265  0.8811
14550TIP3    H165065   5.501   6.757   1.236 -1.5264 -0.4555  1.5422
14550TIP3    H265066   5.575   6.641   1.173 -0.8658  0.5972  0.3369
14551TIP3   OH265067   2.089   5.933  13.218 -0.6131 -0.6673 -0.1088
14551TIP3    H165068   2.064   5.994  13.288  0.5888  1.5173 -1.4556
14551TIP3    H265069   2.013   5.933  13.159 -1.4592 -2.1867  0.9195
14552TIP3   OH265070   2.423   0.060  15.266 -0.0887  0.0586  0.4590
14552TIP3    H165071   2.482  -0.012  15.291 -0.7448 -0.5173  0.3916
14552TIP3    H265072   2.375   0.027  15.190 -1.2482  0.0881  1.1441
14553TIP3   OH265073   5.400   1.372  13.269 -0.0227 -0.4766 -0.5691
14553TIP3    H165074   5.325   1.431  13.275  0.6829  0.4694 -0.7766
14553TIP3    H265075   5.375   1.295  13.320 -1.5692 -0.6602 -1.5518
14554TIP3   OH265076   5.612   3.376   3.068  0.2026 -0.2593  0.2638
14554TIP3    H165077   5.692   3.392   3.018  0.0584  0.5357  0.2832
14554TIP3    H265078   5.612   3.281   3.081 -0.3675 -0.6849 -2.2627
14555TIP3   OH265079   3.505   0.975  16.764  0.3323 -0.3534  0.1497
14555TIP3    H165080   3.424   0.952  16.808  0.0209 -0.2530 -0.3545
14555TIP3    H265081   3.558   1.017  16.831  0.6590 -1.9466  0.9254
14556TIP3   OH265082   5.943   4.551   0.900 -0.3067 -0.2036 -0.4362
14556TIP3    H165083   6.035   4.551   0.926 -0.0087 -1.8200 -1.3456
14556TIP3    H265084   5.943   4.581   0.809 -0.6563 -0.3693 -0.4944
14557TIP3   OH265085   6.250   5.671  14.020  0.0688 -0.7646 -0.7459
14557TIP3    H165086   6.226   5.585  14.054  0.2664  0.3678  2.6649
14557TIP3    H265087   6.167   5.718  14.013  0.2046 -0.2221  0.7638
14558TIP3   OH265088   4.300   3.298  14.822 -0.3254  0.3930 -0.1533
14558TIP3    H165089   4.236   3.228  14.812 -0.5060  0.4813  0.3594
14558TIP3    H265090   4.361   3.286  14.748 -0.2788 -0.3781  0.0051
14559TIP3   OH265091   3.679   5.501  13.366 -0.4380  0.3396  0.0571
14559TIP3    H165092   3.610   5.555  13.327 -2.4769  0.0638  2.9558
14559TIP3    H265093   3.659   5.412  13.337  0.2678  0.5373 -1.1190
14560TIP3   OH265094   4.349   2.434  13.916 -0.0392  0.4004 -0.3055
14560TIP3    H165095   4.363   2.348  13.956  1.2908  1.3500  1.4147
14560TIP3    H265096   4.414   2.437  13.845  1.5877  0.8323  1.1323
14561TIP3   OH265097   3.387   3.302   1.844  0.3618 -0.5801 -0.7624
14561TIP3    H165098   3.305   3.339   1.809  1.3106  0.0786 -2.4074
14561TIP3    H265099   3.378   3.309   1.939 -1.0440  0.4827 -0.9452
14562TIP3   OH265100   6.183   5.814  11.178  0.2020  0.7275 -0.0386
14562TIP3    H165101   6.214   5.853  11.096 -0.5470 -0.6390 -1.0010
14562TIP3    H265102   6.233   5.733  11.186 -0.2186  0.5178  0.5071
14563TIP3   OH265103   3.720   6.263  16.902  0.1529  0.2947  0.1976
14563TIP3    H165104   3.750   6.266  16.811 -0.6439  1.0458 -0.0561
14563TIP3    H265105   3.676   6.347  16.915 -0.8527 -0.3168  0.8826
14564TIP3   OH265106   0.586   4.722  16.555  0.5932 -0.4271 -0.2509
14564TIP3    H165107   0.622   4.686  16.474 -1.4092 -2.5795 -0.2987
14564TIP3    H265108   0.499   4.756  16.530 -1.3069 -3.6437  1.3216
14565TIP3   OH265109   4.916   6.149   4.560 -0.0111 -0.4613 -0.1183
14565TIP3    H165110   4.956   6.191   4.484 -0.0587 -0.2636 -0.0363
14565TIP3    H265111   4.881   6.066   4.527 -1.5414  0.3689 -0.7159
14566TIP3   OH265112   4.652   4.694  14.600 -0.3138 -0.2426 -0.5770
14566TIP3    H165113   4.622   4.747  14.526 -1.0550  0.5658  0.2871
14566TIP3    H265114   4.624   4.605  14.578 -1.4446  0.1535 -0.8001
14567TIP3   OH265115   1.259   2.110   2.258 -0.2289 -0.0857 -0.3840
14567TIP3    H165116   1.333   2.146   2.208  0.6441 -0.5796  0.5250
14567TIP3    H265117   1.266   2.016   2.246 -1.8313 -0.0668 -1.8072
14568TIP3   OH265118   3.732   2.812   2.472  0.0232 -0.6611 -0.4461
14568TIP3    H165119   3.649   2.839   2.432 -1.1713 -3.0642  0.2080
14568TIP3    H265120   3.779   2.765   2.403  0.3166 -0.3263 -0.4774
14569TIP3   OH265121   3.572   3.177   4.001  0.2502  0.2341  0.2273
14569TIP3    H165122   3.489   3.165   4.048  1.2212 -1.0069  1.7101
14569TIP3    H265123   3.597   3.089   3.974  0.8645  0.6615 -0.6332
14570TIP3   OH265124   4.614   5.397  15.008  0.4421  0.2057  0.1210
14570TIP3    H165125   4.675   5.411  15.080 -0.2681  0.6085  0.6509
14570TIP3    H265126   4.667   5.411  14.929  1.4335 -1.0650  0.5184
14571TIP3   OH265127   0.134   6.506   1.964  0.3500  0.0507  0.2672
14571TIP3    H165128   0.191   6.548   2.029  1.6400  0.0093 -0.7951
14571TIP3    H265129   0.121   6.417   1.998 -0.8396  0.6714  1.5671
14572TIP3   OH265130   4.185   5.678  14.162  0.0639 -0.4011  0.0638
14572TIP3    H165131   4.122   5.674  14.091  1.5225  1.2814 -1.4285
14572TIP3    H265132   4.132   5.693  14.240 -1.4244  0.6252 -1.0820
14573TIP3   OH265133   6.430   5.789  14.174 -0.7134 -0.6709 -0.1262
14573TIP3    H165134   6.351   5.743  14.144 -0.7351 -0.6088 -0.1630
14573TIP3    H265135   6.501   5.752  14.123 -1.1978  2.1336 -3.1575
14574TIP3   OH265136   0.796   1.499   3.225 -0.4732 -0.4259  0.6543
14574TIP3    H165137   0.778   1.592   3.237 -0.7454 -0.3251 -0.3974
14574TIP3    H265138   0.831   1.470   3.309 -1.1609  0.4399  1.2668
14575TIP3   OH265139   3.209   1.221   3.896 -0.2024  0.3482  0.1280
14575TIP3    H165140   3.200   1.249   3.805  0.0311 -0.5044 -0.1717
14575TIP3    H265141   3.269   1.285   3.935  1.1929 -0.3251 -0.8203
14576TIP3   OH265142   4.913   5.246  12.296  0.0832 -0.4877  0.0040
14576TIP3    H165143   4.968   5.190  12.243  0.6647 -0.0311  0.1123
14576TIP3    H265144   4.823   5.219  12.275  0.2714  0.0410 -1.6130
14577TIP3   OH265145   3.343   4.268   2.913  0.6976  0.3511 -0.2214
14577TIP3    H165146   3.265   4.319   2.935 -1.1257 -2.2292 -0.2836
14577TIP3    H265147   3.402   4.331   2.872 -0.0544  3.0693  2.4881
14578TIP3   OH265148   2.643   3.868   3.225  0.0161  0.1112  0.5764
14578TIP3    H165149   2.709   3.938   3.228 -0.1579  0.2361  2.2142
14578TIP3    H265150   2.560   3.912   3.245 -0.3909 -0.2605 -0.2406
14579TIP3   OH265151   0.714   0.509  12.380 -0.2429  0.0724  0.2199
14579TIP3    H165152   0.767   0.549  12.311 -0.8994 -0.2180 -0.4666
14579TIP3    H265153   0.743   0.552  12.460  1.4516 -0.5075 -0.0498
14580TIP3   OH265154   1.650   0.014   1.516 -0.1021 -0.0035  0.5688
14580TIP3    H165155   1.723   0.067   1.547 -0.4746 -0.4184  2.2223
14580TIP3    H265156   1.573   0.052   1.557 -1.1744  1.5580 -2.5130
14581TIP3   OH265157   2.267   2.420   2.914  0.1750  0.1203 -0.1672
14581TIP3    H165158   2.175   2.441   2.928  0.3363  1.4210 -0.8810
14581TIP3    H265159   2.269   2.367   2.835  0.1438  1.3090 -0.9871
14582TIP3   OH265160   3.504   4.486  13.717  0.0089 -0.2947 -0.3477
14582TIP3    H165161   3.507   4.391  13.731 -0.4577 -0.3576 -0.6704
14582TIP3    H265162   3.470   4.496  13.628 -0.0187  0.1784 -0.2851
14583TIP3   OH265163   4.390   2.617   1.014  0.0960 -0.6266  0.2222
14583TIP3    H165164   4.373   2.557   1.087  1.2252 -0.5881  0.5255
14583TIP3    H265165   4.485   2.621   1.007  0.0687  1.3093  0.3598
14584TIP3   OH265166   1.439   3.137  16.730 -0.5091  0.5269 -0.0543
14584TIP3    H165167   1.407   3.213  16.681 -1.1878  0.5480  0.4100
14584TIP3    H265168   1.525   3.164  16.763 -1.3460  1.6725  1.3314
14585TIP3   OH265169   6.130   5.951   4.731 -0.4160  0.2162 -0.0484
14585TIP3    H165170   6.037   5.966   4.745 -0.6484 -1.5019  0.4559
14585TIP3    H265171   6.143   5.858   4.750  1.0953  0.0132 -1.7434
14586TIP3   OH265172   0.408   0.263  14.775 -0.6048  0.0194 -0.8235
14586TIP3    H165173   0.371   0.342  14.815  3.1473  1.6973 -0.1526
14586TIP3    H265174   0.386   0.193  14.836 -0.9607  1.2482  0.5287
14587TIP3   OH265175   3.626   3.067   4.962 -0.1287  0.2499  0.1122
14587TIP3    H165176   3.702   3.040   5.014  0.5998  1.1969 -0.4380
14587TIP3    H265177   3.643   3.031   4.875  0.0919  1.1400 -0.2190
14588TIP3   OH265178   0.442   6.163   5.949  0.5455  0.3403  0.3753
14588TIP3    H165179   0.453   6.229   5.881  0.3359  0.4355  0.4312
14588TIP3    H265180   0.443   6.080   5.903 -0.7922  0.4579  0.1054
14589TIP3   OH265181   3.212   2.454  11.304 -0.0928 -0.6242 -0.2658
14589TIP3    H165182   3.248   2.541  11.323 -1.1424  0.4375 -2.6614
14589TIP3    H265183   3.210   2.410  11.388  0.1111  1.8357  1.1368
14590TIP3   OH265184   0.940   1.432   1.359 -0.0105 -0.0713  0.4721
14590TIP3    H165185   0.897   1.352   1.327 -0.7657  0.7289 -0.5975
14590TIP3    H265186   0.886   1.460   1.433  0.0310 -0.3379  0.6050
14591TIP3   OH265187   4.274   4.965   3.744 -0.3562  0.1819  0.0531
14591TIP3    H165188   4.311   4.893   3.692 -2.2172 -1.0197  0.2929
14591TIP3    H265189   4.294   5.043   3.693  1.9046 -0.4550 -0.1227
14592TIP3   OH265190   5.433   3.868   5.641  0.2668  0.1118  0.6288
14592TIP3    H165191   5.510   3.821   5.609 -0.4478  0.3450 -1.6063
14592TIP3    H265192   5.386   3.804   5.695  3.1470  0.6675  4.1700
14593TIP3   OH265193   0.526   1.829   5.981 -0.5036 -0.1517 -0.4419
14593TIP3    H165194   0.467   1.887   6.030 -0.3413 -1.2055  1.0666
14593TIP3    H265195   0.507   1.742   6.016  2.1235 -0.5043  0.2861
14594TIP3   OH265196   3.022   6.061  15.932  0.2206  0.8559  0.0252
14594TIP3    H165197   2.979   6.143  15.909  0.7047  1.3044  0.6695
14594TIP3    H265198   2.978   5.995  15.879  0.6526  1.6974 -1.4132
14595TIP3   OH265199   3.488   6.528  14.205  0.6770  0.0805 -0.2870
14595TIP3    H165200   3.518   6.466  14.272  0.5251  0.3108 -0.0033
14595TIP3    H265201   3.491   6.613  14.248 -0.5830  0.0900 -0.1847
14596TIP3   OH265202   3.745   4.536  16.085 -0.2854 -0.1887 -0.4968
14596TIP3    H165203   3.767   4.448  16.054  2.6276  0.8226 -1.5958
14596TIP3    H265204   3.655   4.550  16.056 -0.7018 -2.6541 -0.5680
14597TIP3   OH265205   2.419   0.403   1.460  0.1351  0.9450 -0.0017
14597TIP3    H165206   2.459   0.387   1.545  0.0001  0.0331 -0.0989
14597TIP3    H265207   2.482   0.458   1.413  0.8038  0.3790  0.2206
14598TIP3   OH265208   2.441   3.985   4.546 -0.2972 -0.5346 -0.0134
14598TIP3    H165209   2.536   3.997   4.555 -0.3067 -0.7192  0.3942
14598TIP3    H265210   2.429   3.890   4.551 -0.3374 -0.6638 -1.8898
14599TIP3   OH265211   3.640   0.519   2.121  0.5913 -0.8211  0.0037
14599TIP3    H165212   3.641   0.526   2.217 -0.5767 -0.5160  0.0005
14599TIP3    H265213   3.655   0.609   2.091 -2.3941 -0.2529 -0.0610
14600TIP3   OH265214   6.331   2.822   2.820 -0.4548  0.3484 -0.1630
14600TIP3    H165215   6.336   2.728   2.802  0.0297 -0.0402  1.7847
14600TIP3    H265216   6.420   2.854   2.804 -0.2725  0.2008  0.5585
14601TIP3   OH265217   3.100   4.476   5.560  0.5378  0.4401 -0.4408
14601TIP3    H165218   3.034   4.425   5.513 -0.1875 -0.1050  1.1042
14601TIP3    H265219   3.154   4.411   5.605  0.4905  0.9696  0.4114
14602TIP3   OH265220   1.340   0.154   1.876  0.1539 -0.3498  0.4008
14602TIP3    H165221   1.417   0.098   1.866  0.1231 -0.2941 -0.1402
14602TIP3    H265222   1.268   0.094   1.895  0.2322 -0.4398  0.4126
14603TIP3   OH265223   0.134   6.196  16.410  0.3489  0.2418 -0.4617
14603TIP3    H165224   0.105   6.155  16.328 -0.6412  2.4981 -1.3316
14603TIP3    H265225   0.207   6.252  16.383  0.0409  0.9744  0.2109
14604TIP3   OH265226   2.437   4.849   3.951 -0.8624  0.0868 -0.1253
14604TIP3    H165227   2.414   4.771   4.003 -1.1370  0.6284  0.5866
14604TIP3    H265228   2.365   4.859   3.890 -0.8468 -0.1911 -0.1917
14605TIP3   OH265229   0.774   0.429   3.093 -0.4368  0.3033  0.2311
14605TIP3    H165230   0.710   0.465   3.031 -0.2813  0.0881 -0.0594
14605TIP3    H265231   0.851   0.412   3.040 -0.8011 -1.2870  0.1587
14606TIP3   OH265232   6.312   1.328  12.950  0.6270 -0.2605  0.2291
14606TIP3    H165233   6.327   1.239  12.981  2.1431 -0.0721  0.0851
14606TIP3    H265234   6.361   1.384  13.010  2.0211  0.2497 -1.3201
14607TIP3   OH265235   6.532   3.276   5.128 -0.4773 -0.2599 -0.1342
14607TIP3    H165236   6.504   3.187   5.106 -0.5037 -0.4197  0.5155
14607TIP3    H265237   6.519   3.282   5.222  0.7099  0.0169  0.0271
14608TIP3   OH265238   1.410   4.790   1.614 -0.2864  0.2223  0.1688
14608TIP3    H165239   1.380   4.734   1.686  0.1768  0.4545  0.5483
14608TIP3    H265240   1.484   4.838   1.651  0.0543  0.2296 -0.5088
14609TIP3   OH265241   6.219   6.213   6.539  0.0973  0.6055 -0.1359
14609TIP3    H165242   6.254   6.224   6.628  2.2082  1.4237 -1.0151
14609TIP3    H265243   6.281   6.155   6.496 -1.5457 -0.7407 -0.7816
14610TIP3   OH265244   1.256   6.330  12.866 -0.0717 -0.3140 -0.4827
14610TIP3    H165245   1.272   6.308  12.957  1.0590 -0.5526 -0.7232
14610TIP3    H265246   1.298   6.415  12.854  1.5693 -1.1871 -1.2630
14611TIP3   OH265247   3.883   1.805  15.225  0.5036 -0.2931 -0.1014
14611TIP3    H165248   3.821   1.737  15.250  1.9237 -1.8742 -0.6888
14611TIP3    H265249   3.960   1.758  15.192  2.4211  1.5461  1.4230
14612TIP3   OH265250   2.740   6.490   0.137 -1.0769 -0.0734  0.5290
14612TIP3    H165251   2.804   6.513   0.204 -0.5572  0.8502 -0.2494
14612TIP3    H265252   2.727   6.396   0.147 -0.2274 -0.1258  1.2472
14613TIP3   OH265253   3.130   6.726   6.602 -0.0712 -0.1880  0.0099
14613TIP3    H165254   3.180   6.683   6.532  0.7491 -0.5476  0.7978
14613TIP3    H265255   3.089   6.654   6.650 -3.1464  0.1326 -1.8221
14614TIP3   OH265256   3.995   3.364  12.849 -0.2602  0.1072 -0.0698
14614TIP3    H165257   4.072   3.330  12.897 -0.7814 -1.4105 -0.2521
14614TIP3    H265258   3.939   3.287  12.838 -0.2592  0.4268 -2.9616
14615TIP3   OH265259   0.178   2.651  15.392 -0.3061 -0.0364  0.0028
14615TIP3    H165260   0.260   2.628  15.349 -0.3470 -0.4731  0.1587
14615TIP3    H265261   0.204   2.669  15.483 -0.1477  1.3176 -0.2813
14616TIP3   OH265262   5.087   6.018   5.069 -0.3928  0.0448  0.0279
14616TIP3    H165263   5.119   5.997   4.982 -0.3110 -0.0793  0.0878
14616TIP3    H265264   5.081   5.933   5.114  0.5574  0.2105  0.4858
14617TIP3   OH265265   0.662   0.807   1.365  0.0100  0.2312  0.4574
14617TIP3    H165266   0.749   0.783   1.398 -0.5209 -2.1418  0.2616
14617TIP3    H265267   0.679   0.856   1.285  1.1724 -0.6392  0.1524
14618TIP3   OH265268   3.258   4.695  11.266 -0.3783 -0.2717 -0.0505
14618TIP3    H165269   3.233   4.783  11.294  1.0837  0.1692 -0.0647
14618TIP3    H265270   3.345   4.705  11.228  0.4372 -1.9666  1.2603
14619TIP3   OH265271   5.133   4.819  11.160 -0.1708 -0.4858  0.7854
14619TIP3    H165272   5.047   4.814  11.202 -0.1384 -0.9751  0.7983
14619TIP3    H265273   5.144   4.912  11.139 -1.7567 -0.7080 -1.4002
14620TIP3   OH265274   1.718   5.869   3.923  0.2074  0.1697 -0.1485
14620TIP3    H165275   1.682   5.952   3.892 -2.3030 -0.5424  0.5652
14620TIP3    H265276   1.805   5.890   3.955  0.0918  2.2764 -1.0926
14621TIP3   OH265277   3.604   6.018  15.151  0.4026 -0.0393  0.2946
14621TIP3    H165278   3.617   5.925  15.136 -0.6030 -0.3877  1.4062
14621TIP3    H265279   3.681   6.060  15.113  0.6800 -1.2850 -0.5635
14622TIP3   OH265280   5.713   0.302   3.167  0.2697  0.1447  0.1360
14622TIP3    H165281   5.699   0.379   3.221 -0.2836 -0.6307  1.1380
14622TIP3    H265282   5.773   0.331   3.098  0.4671  1.3244  0.7790
14623TIP3   OH265283   3.753   2.026  13.532 -0.3027  0.4709 -0.0786
14623TIP3    H165284   3.737   1.935  13.505  0.5764  0.2496  0.1134
14623TIP3    H265285   3.668   2.069  13.523 -0.2302  0.2636 -2.5803
14624TIP3   OH265286   6.161   1.425  15.908  0.3491  0.2239 -0.2574
14624TIP3    H165287   6.135   1.495  15.968 -2.7355 -0.3151 -0.7963
14624TIP3    H265288   6.135   1.457  15.822 -0.2119 -1.1553 -0.6234
14625TIP3   OH265289   4.172   1.308   0.357 -0.5791 -0.0597 -0.1078
14625TIP3    H165290   4.199   1.346   0.273 -0.2462  1.0083  0.4733
14625TIP3    H265291   4.078   1.293   0.347 -0.7793  1.1939 -0.2616
14626TIP3   OH265292   3.913   3.267  11.721 -0.3668  0.1362  0.1303
14626TIP3    H165293   3.964   3.298  11.646 -0.1809  2.8963  1.2628
14626TIP3    H265294   3.977   3.255  11.791 -0.9548  1.5071  0.9419
14627TIP3   OH265295   1.767   5.140   0.385  0.0046 -0.0776  0.2260
14627TIP3    H165296   1.684   5.143   0.337  0.5164 -0.2445 -0.6702
14627TIP3    H265297   1.760   5.212   0.448 -1.2376 -0.7005  0.8517
14628TIP3   OH265298   4.699   2.807   5.704  0.4584 -0.3044  0.1002
14628TIP3    H165299   4.653   2.889   5.685  1.8418  0.2931 -0.8261
14628TIP3    H265300   4.751   2.790   5.626 -1.3041 -3.1858 -0.5799
14629TIP3   OH265301   3.712   0.825   0.001  0.1309 -0.9691  0.4866
14629TIP3    H165302   3.732   0.917   0.019  0.8443 -0.8434 -0.7448
14629TIP3    H265303   3.619   0.824  -0.020  0.6539  0.0893 -2.5261
14630TIP3   OH265304   4.999   1.080   2.172  0.3892 -0.0557  0.0828
14630TIP3    H165305   4.927   1.062   2.111 -0.7812  2.4541  0.5847
14630TIP3    H265306   5.067   1.118   2.118  0.5644 -0.6179 -0.0974
14631TIP3   OH265307   4.804   6.772  16.354 -0.1172 -0.2062  0.4353
14631TIP3    H165308   4.782   6.804  16.441 -1.3769 -1.0577  0.4617
14631TIP3    H265309   4.757   6.829  16.294  1.5979  1.0588  0.2165
14632TIP3   OH265310   2.541   3.149   3.191 -0.4226 -0.0076 -0.5214
14632TIP3    H165311   2.624   3.178   3.152  0.4839 -0.5802  0.8916
14632TIP3    H265312   2.502   3.228   3.227 -0.2580  0.1833 -0.7570
14633TIP3   OH265313   5.695   5.651   2.015 -0.4848  0.6344  0.1035
14633TIP3    H165314   5.698   5.734   2.064 -0.3195  0.5228  0.2828
14633TIP3    H265315   5.774   5.605   2.042 -1.1067 -0.0437  0.8072
14634TIP3   OH265316   6.574   4.916   0.479 -0.2266 -0.2832 -0.1908
14634TIP3    H165317   6.590   4.999   0.436  1.0335 -0.4918 -0.1534
14634TIP3    H265318   6.647   4.860   0.452 -0.8680 -1.2680  0.0559
14635TIP3   OH265319   6.382   2.208  11.099 -0.2198 -0.0761 -0.2879
14635TIP3    H165320   6.351   2.129  11.143 -1.8442  0.7931  0.2313
14635TIP3    H265321   6.305   2.265  11.096  1.5292  2.6679  1.9817
14636TIP3   OH265322   5.638   4.262   4.153 -0.0959 -0.8931 -0.0428
14636TIP3    H165323   5.709   4.316   4.187  1.2867 -1.7333 -1.4532
14636TIP3    H265324   5.659   4.173   4.183 -0.2097 -1.2369 -0.9472
14637TIP3   OH265325   3.110   6.703   2.448 -1.1855  0.4597 -0.0775
14637TIP3    H165326   3.040   6.735   2.390  0.9503  1.8503 -2.0613
14637TIP3    H265327   3.182   6.681   2.389  0.1427 -0.7770  1.9021
14638TIP3   OH265328   4.997   2.615  13.754 -0.3595  0.1456  0.1361
14638TIP3    H165329   4.975   2.523  13.744 -1.4526  0.5595 -1.9046
14638TIP3    H265330   4.935   2.647  13.819 -0.7074 -0.3460  0.0558
14639TIP3   OH265331   4.576   0.737  13.640 -0.0028 -0.2757 -0.6537
14639TIP3    H165332   4.582   0.830  13.662 -1.1655  0.0139 -1.4862
14639TIP3    H265333   4.513   0.702  13.703 -0.1818 -0.3340 -0.8674
14640TIP3   OH265334   2.611   5.854  15.855  0.5439  0.3036 -0.0290
14640TIP3    H165335   2.520   5.865  15.826  0.7230 -0.6213 -0.9743
14640TIP3    H265336   2.603   5.816  15.943 -0.0029  3.3545  1.3866
14641TIP3   OH265337   4.962   3.620  12.349 -0.3168  0.2309  0.2365
14641TIP3    H165338   4.956   3.690  12.413  0.3024  1.3783 -0.9213
14641TIP3    H265339   4.872   3.588  12.339 -0.6227  0.9582  0.6690
14642TIP3   OH265340   4.806   3.178  13.471 -0.5239 -0.1171 -0.6221
14642TIP3    H165341   4.736   3.194  13.534  0.3639  1.4809 -0.0024
14642TIP3    H265342   4.880   3.150  13.524  0.4702  2.0002 -0.8237
14643TIP3   OH265343   0.656   2.819   3.761  0.0765  0.6429  0.4226
14643TIP3    H165344   0.688   2.877   3.692  1.4248  1.2451  1.5034
14643TIP3    H265345   0.678   2.864   3.842  0.5264 -1.0476  1.2941
14644TIP3   OH265346   6.200   4.358  15.512  0.3807  0.0325  0.1159
14644TIP3    H165347   6.265   4.288  15.506  2.4189  1.7734  0.8047
14644TIP3    H265348   6.177   4.362  15.605  0.1092  0.1525  0.0456
14645TIP3   OH265349   1.950   6.783  14.762  0.1880  0.0254  0.1190
14645TIP3    H165350   1.867   6.738  14.778 -1.6157  2.2063 -2.2415
14645TIP3    H265351   1.932   6.875  14.784  1.2913  0.9030 -2.2816
14646TIP3   OH265352   0.474   2.016  17.097 -0.3652  0.5634  0.3831
14646TIP3    H165353   0.485   2.040  17.005 -0.2575  0.5005  0.3794
14646TIP3    H265354   0.391   2.057  17.122 -0.9339 -0.2803 -0.0394
14647TIP3   OH265355   5.959   4.914   0.911 -0.1320  0.2222 -0.2486
14647TIP3    H165356   5.951   4.821   0.892 -0.4242  0.5362 -1.7944
14647TIP3    H265357   5.970   4.955   0.826  2.2534  1.4062  0.5417
14648TIP3   OH265358   2.676   1.745  16.972  0.2167  0.1814  0.0503
14648TIP3    H165359   2.725   1.703  17.043  1.5330  2.8210  0.8828
14648TIP3    H265360   2.744   1.781  16.915 -0.7711  1.2018 -0.5292
14649TIP3   OH265361   4.037   2.983  16.526 -1.0925 -0.1333 -0.8673
14649TIP3    H165362   4.010   3.028  16.446 -0.4482 -3.2347 -3.0452
14649TIP3    H265363   3.974   2.911  16.535 -1.3602  0.3433  1.6992
14650TIP3   OH265364   2.179   0.001  12.744  0.4693  0.3479 -0.1643
14650TIP3    H165365   2.163  -0.079  12.794  1.1825 -0.3516 -1.0199
14650TIP3    H265366   2.116   0.064  12.779 -0.2449 -0.6401  0.3827
14651TIP3   OH265367   0.726   0.540  15.301  0.1778  0.0980 -0.1776
14651TIP3    H165368   0.703   0.544  15.208  1.2007 -1.1831 -0.5136
14651TIP3    H265369   0.772   0.457  15.311  1.0610  0.7196  1.2455
14652TIP3   OH265370   6.289   2.870   3.086 -0.1323 -0.0868 -0.3810
14652TIP3    H165371   6.362   2.932   3.080  1.1109 -1.4372  0.3525
14652TIP3    H265372   6.301   2.811   3.012 -1.1689  0.3419 -0.9239
14653TIP3   OH265373   2.783   0.338   1.374  0.4804 -0.0128  0.5421
14653TIP3    H165374   2.728   0.409   1.408  0.7326  1.3561 -1.7471
14653TIP3    H265375   2.809   0.290   1.453 -1.0947  1.3823  2.0261
14654TIP3   OH265376   0.020   2.775   2.203 -0.3929 -0.1587  0.0221
14654TIP3    H165377   0.095   2.730   2.166 -0.3033  0.0740 -0.0802
14654TIP3    H265378   0.056   2.828   2.274 -0.2506  0.9745 -0.8572
14655TIP3   OH265379   5.133   1.976   5.002 -0.0859 -0.0520  0.3650
14655TIP3    H165380   5.066   1.983   5.071  0.5134  4.1155  0.7905
14655TIP3    H265381   5.084   1.987   4.920 -0.2793 -0.0742  0.4774
14656TIP3   OH265382   5.413   0.003   1.621  0.3411  0.5902 -0.2275
14656TIP3    H165383   5.423   0.080   1.566  0.2667  0.1369 -0.8886
14656TIP3    H265384   5.400  -0.069   1.559  0.1356  0.0904  0.3878
14657TIP3   OH265385   1.296   1.381  12.899 -0.0546 -0.0842  0.4837
14657TIP3    H165386   1.244   1.349  12.973 -0.8969  1.0895  0.4298
14657TIP3    H265387   1.245   1.358  12.822  0.3510 -0.4484  0.3214
14658TIP3   OH265388   0.971   6.709  11.154  0.5369  0.4123 -0.1067
14658TIP3    H165389   1.025   6.632  11.139 -0.7625 -0.8604  1.3981
14658TIP3    H265390   0.898   6.700  11.093  0.0583  0.0947  0.4988
14659TIP3   OH265391   5.148   2.372   2.884  0.2223  0.4846 -0.3056
14659TIP3    H165392   5.227   2.318   2.884  0.2689  0.5143  1.5198
14659TIP3    H265393   5.078   2.314   2.914  0.0474  1.1259  0.5670
14660TIP3   OH265394   3.625   0.276   1.293 -0.6977 -0.0616 -0.3756
14660TIP3    H165395   3.698   0.218   1.316 -0.8109  0.5118  1.7093
14660TIP3    H265396   3.581   0.232   1.221  1.7808 -0.3348 -1.8462
14661TIP3   OH265397   3.092   6.039   4.979  0.2323 -0.1797  0.5295
14661TIP3    H165398   3.167   6.060   5.035  0.0992  1.4912  0.1419
14661TIP3    H265399   3.020   6.023   5.041  0.3051  0.7707  0.8863
14662TIP3   OH265400   3.863   0.320   0.133 -0.1064  0.4422 -0.6603
14662TIP3    H165401   3.804   0.394   0.124  0.5839  0.9030 -1.4312
14662TIP3    H265402   3.930   0.350   0.195  0.2695  0.5377 -1.1048
14663TIP3   OH265403   5.118   2.886   2.184  0.4340  0.7378 -0.4478
14663TIP3    H165404   5.047   2.834   2.220  1.6034  0.1686  1.1485
14663TIP3    H265405   5.172   2.824   2.136  0.3031  1.0115 -0.9527
14664TIP3   OH265406   0.943   0.157  16.790 -0.3594  0.0128 -0.1099
14664TIP3    H165407   0.960   0.238  16.741 -1.0572 -0.3232 -0.9254
14664TIP3    H265408   0.968   0.087  16.730  0.2497 -0.3934  0.6009
14665TIP3   OH265409   6.264   3.603  12.353 -0.7242  0.1066  0.2623
14665TIP3    H165410   6.225   3.621  12.438 -0.5279  2.4918 -0.0806
14665TIP3    H265411   6.283   3.690  12.317 -1.4380 -0.8039 -2.5200
14666TIP3   OH265412   1.437   1.283   0.880 -0.3045 -0.4693  0.4368
14666TIP3    H165413   1.389   1.364   0.860  1.0368  0.1557 -0.3429
14666TIP3    H265414   1.394   1.216   0.827 -1.6021 -0.3516  1.2931
14667TIP3   OH265415   1.524   4.577   0.383  0.4062 -0.2529 -0.2189
14667TIP3    H165416   1.553   4.499   0.337  0.7052  0.9206 -2.1315
14667TIP3    H265417   1.604   4.617   0.416  0.4584  0.1919 -0.8602
14668TIP3   OH265418   1.567   0.915   3.312  0.9817  0.1439 -0.4124
14668TIP3    H165419   1.595   1.005   3.298  2.1723 -0.4532 -2.0583
14668TIP3    H265420   1.544   0.882   3.225 -0.6807 -0.7848  0.3126
14669TIP3   OH265421   0.794   0.138   3.951 -0.1885 -0.0812 -0.7106
14669TIP3    H165422   0.879   0.130   3.908  0.1114 -0.6942 -0.0378
14669TIP3    H265423   0.751   0.211   3.907  0.1738 -0.5769 -1.9132
14670TIP3   OH265424   4.764   0.045   4.431  0.0697 -0.3065  0.3292
14670TIP3    H165425   4.740   0.007   4.346  2.7476 -1.3208 -0.0750
14670TIP3    H265426   4.810   0.126   4.409  1.4731 -0.9671  0.7125
14671TIP3   OH265427   3.782   6.392   0.667  0.3517  0.4735  0.7387
14671TIP3    H165428   3.862   6.428   0.704  1.1872 -2.4814  2.1131
14671TIP3    H265429   3.797   6.297   0.664 -1.9086  0.0563 -1.9301
14672TIP3   OH265430   2.924   0.582   2.391 -0.5439  0.4979 -0.3247
14672TIP3    H165431   2.895   0.586   2.482 -0.7791  1.3122 -0.4330
14672TIP3    H265432   3.010   0.540   2.395 -1.9430 -2.6141 -0.0558
14673TIP3   OH265433   1.619   3.915   1.435 -0.0907 -0.1009 -0.0786
14673TIP3    H165434   1.606   3.992   1.379 -0.2423  0.3255  0.5363
14673TIP3    H265435   1.689   3.866   1.392 -0.1105  0.2880 -0.5684
14674TIP3   OH265436   1.587   0.747  10.695 -0.0495 -0.1996  0.2421
14674TIP3    H165437   1.581   0.770  10.788  0.0735 -1.1248  0.4962
14674TIP3    H265438   1.498   0.755  10.662  0.1817  1.7944  0.0055
14675TIP3   OH265439   0.506   1.517  16.323  0.4143  0.0100 -0.1586
14675TIP3    H165440   0.522   1.433  16.367  1.8125  0.2347 -0.1958
14675TIP3    H265441   0.593   1.547  16.298 -0.0570  1.5410 -0.0341
14676TIP3   OH265442   5.077   2.895  11.547 -0.4915  0.0274  0.1292
14676TIP3    H165443   5.043   2.815  11.507  0.0026  0.2225 -0.7134
14676TIP3    H265444   5.129   2.864  11.621  1.2009 -0.5936 -1.2559
14677TIP3   OH265445   5.524   4.731   4.763  0.0079 -0.6301  0.2553
14677TIP3    H165446   5.520   4.826   4.772  1.4927 -0.7190  2.8699
14677TIP3    H265447   5.452   4.709   4.705  0.9278  2.2537 -2.2149
14678TIP3   OH265448   4.208   5.556   4.662 -0.0570  0.2531 -0.1754
14678TIP3    H165449   4.278   5.603   4.706  0.6667 -1.4587  0.6215
14678TIP3    H265450   4.150   5.624   4.628  1.8297  1.7098 -0.6201
14679TIP3   OH265451   0.050   5.436   1.533  0.8778 -0.1674  0.1902
14679TIP3    H165452   0.004   5.353   1.548  1.2620 -0.5149 -0.4846
14679TIP3    H265453   0.014   5.496   1.598  0.8910 -0.9817  0.9627
14680TIP3   OH265454   1.923   6.510  16.966 -0.1557 -0.7017  0.3768
14680TIP3    H165455   1.883   6.443  17.021 -0.1131 -1.2123 -0.1967
14680TIP3    H265456   1.900   6.484  16.877 -0.0405 -0.0111  0.1422
14681TIP3   OH265457   0.570   3.621  17.177 -0.2949  0.2022 -0.8278
14681TIP3    H165458   0.507   3.676  17.224 -1.2305 -1.3967 -0.1149
14681TIP3    H265459   0.587   3.548  17.237  1.5447  0.1145 -1.4024
14682TIP3   OH265460   1.456   1.832  16.818  0.6168  0.6577  0.4365
14682TIP3    H165461   1.453   1.822  16.723  0.8346 -0.1505  0.5056
14682TIP3    H265462   1.365   1.851  16.843  0.2526 -0.6952  0.2189
14683TIP3   OH265463   6.257   1.058  15.076  0.4193 -0.2045 -0.4600
14683TIP3    H165464   6.311   1.078  15.152  1.9739 -0.8531 -1.3466
14683TIP3    H265465   6.212   1.140  15.056  1.4723  0.5153  0.0196
14684TIP3   OH265466   2.250   1.372   5.845 -0.3308  0.1553 -0.4214
14684TIP3    H165467   2.209   1.372   5.932 -0.4862 -2.2976 -0.4292
14684TIP3    H265468   2.342   1.390   5.862 -0.4754  0.3598  0.1755
14685TIP3   OH265469   0.904   0.349   4.640 -0.2885 -0.0352  0.1004
14685TIP3    H165470   0.828   0.366   4.695 -0.2439  0.1078  0.1167
14685TIP3    H265471   0.976   0.396   4.682 -0.2232 -0.0464  0.0020
14686TIP3   OH265472   1.682   6.127  16.825  0.7688 -0.1613 -0.2142
14686TIP3    H165473   1.660   6.111  16.917 -0.2740 -0.1123 -0.4369
14686TIP3    H265474   1.655   6.047  16.780  0.2764  0.2243 -0.6197
14687TIP3   OH265475   4.623   1.647  17.148 -0.1240 -0.1071  0.6990
14687TIP3    H165476   4.624   1.719  17.212 -0.8853 -0.5024  1.1675
14687TIP3    H265477   4.697   1.592  17.174 -0.1060  0.0145  0.9160
14688TIP3   OH265478   4.893   3.803  13.457  0.2064  0.1274 -0.8674
14688TIP3    H165479   4.930   3.823  13.544 -0.5135 -0.8752 -0.3107
14688TIP3    H265480   4.970   3.784  13.403  0.7382  1.7337 -0.7505
14689TIP3   OH265481   6.322   6.152   2.264 -0.2469 -0.4072  0.4978
14689TIP3    H165482   6.332   6.247   2.271 -0.0547 -0.3491 -0.4662
14689TIP3    H265483   6.228   6.138   2.263 -0.2801 -0.1806  0.1722
14690TIP3   OH265484   6.310   5.668   3.619 -0.1142 -0.2521  0.1354
14690TIP3    H165485   6.332   5.598   3.680 -1.8280 -0.2200  0.8435
14690TIP3    H265486   6.236   5.712   3.659 -0.8723  0.1886 -1.6594
14691TIP3   OH265487   1.429   4.874   5.655  0.5887 -0.5192 -0.1474
14691TIP3    H165488   1.447   4.944   5.717  0.9953 -1.6716  1.0961
14691TIP3    H265489   1.367   4.911   5.593  1.0732  1.0322  0.2619
14692TIP3   OH265490   3.469   3.960   0.926  0.1562  0.1667  0.3439
14692TIP3    H165491   3.425   4.040   0.898 -0.3852  0.4937  2.0129
14692TIP3    H265492   3.559   3.987   0.945  0.3841  0.0457 -0.4896
14693TIP3   OH265493   5.903   2.388   6.002  0.4455  0.3111  0.0596
14693TIP3    H165494   5.815   2.389   5.966  0.2650 -0.1073  0.4678
14693TIP3    H265495   5.891   2.403   6.096  0.8831  1.1379 -0.0103
14694TIP3   OH265496   6.214   6.180  12.744 -0.5347  0.1592 -0.2772
14694TIP3    H165497   6.148   6.249  12.730  1.5406  2.3671  0.1030
14694TIP3    H265498   6.179   6.104  12.698 -3.6485  0.9771  0.5000
14695TIP3   OH265499   5.979   3.592   4.209 -0.3066  0.3410  0.4742
14695TIP3    H165500   6.000   3.626   4.296 -0.0226  1.5132 -0.0421
14695TIP3    H265501   5.973   3.669   4.153 -2.9982 -0.1648 -0.0653
14696TIP3   OH265502   2.269   4.739   5.416  0.0932 -0.1003  0.2689
14696TIP3    H165503   2.336   4.727   5.348  0.5675  0.6734  0.5944
14696TIP3    H265504   2.315   4.784   5.487 -1.2121  2.1636 -0.2459
14697TIP3   OH265505   5.975   1.747   1.173 -0.1055 -0.3315 -0.4914
14697TIP3    H165506   6.056   1.797   1.169  0.8677 -1.6954  1.0403
14697TIP3    H265507   5.913   1.805   1.217  1.4749 -0.9522  2.8177
14698TIP3   OH265508   5.450   3.050  12.266 -0.2526  0.1612  0.2775
14698TIP3    H165509   5.439   2.956  12.256 -1.5371  0.5047 -2.6895
14698TIP3    H265510   5.394   3.073  12.340  1.7491 -1.5479  2.5272
14699TIP3   OH265511   3.652   2.589  10.873 -0.0241  0.3414  0.2737
14699TIP3    H165512   3.624   2.500  10.852  0.5166  0.2136  0.0905
14699TIP3    H265513   3.669   2.630  10.789 -1.1175  0.9098  0.3057
14700TIP3   OH265514   0.425   0.936   4.830  0.1988 -0.0267  0.1794
14700TIP3    H165515   0.416   1.031   4.832  1.0875  0.0869 -0.6593
14700TIP3    H265516   0.347   0.905   4.783 -0.8535  0.1491  1.7295
14701TIP3   OH265517   5.116   5.066   0.187 -0.0537 -0.2346 -0.6131
14701TIP3    H165518   5.070   5.105   0.112 -0.7291 -0.6781 -0.4351
14701TIP3    H265519   5.130   4.975   0.162  0.3366 -0.2090 -0.4828
14702TIP3   OH265520   3.927   0.925   4.334  0.1609 -0.2083  0.2691
14702TIP3    H165521   3.932   0.933   4.429  2.1004  3.1944  0.0817
14702TIP3    H265522   4.008   0.880   4.309  0.5510  0.5038  0.2016
14703TIP3   OH265523   5.738   3.493   0.852 -0.3407  0.1591 -0.2279
14703TIP3    H165524   5.717   3.560   0.787 -1.2040 -0.7104 -0.8832
14703TIP3    H265525   5.787   3.539   0.920  2.2414  0.7400 -2.3524
14704TIP3   OH265526   1.112   0.473   1.804 -0.3454 -0.2202  0.4029
14704TIP3    H165527   1.026   0.516   1.804 -0.4118 -0.2530 -1.7432
14704TIP3    H265528   1.155   0.505   1.724  1.9591  0.3447  1.7830
14705TIP3   OH265529   5.257   5.579   0.602  0.3158 -0.7117  0.2324
14705TIP3    H165530   5.301   5.508   0.648  2.0731  0.2601  0.1205
14705TIP3    H265531   5.171   5.543   0.578  0.9534 -2.5891  0.6518
14706TIP3   OH265532   5.360   6.653   3.722  0.7160 -0.0541  0.1942
14706TIP3    H165533   5.277   6.686   3.758  0.9598  0.5003  0.2515
14706TIP3    H265534   5.338   6.565   3.690 -0.3161  0.7219 -1.3524
14707TIP3   OH265535   5.985   1.007  16.326  0.2174  0.4892  0.0351
14707TIP3    H165536   5.943   0.994  16.242 -2.6159 -1.3822  1.5891
14707TIP3    H265537   6.006   0.919  16.357  0.4009  1.0636  1.6617
14708TIP3   OH265538   2.031   0.813  16.299 -0.5395 -0.1893 -1.0380
14708TIP3    H165539   2.093   0.741  16.282 -0.7301 -0.6713  0.1639
14708TIP3    H265540   1.976   0.780  16.371 -0.6629  1.1452 -0.4955
14709TIP3   OH265541   4.638   6.566   2.975  0.0605  0.2429  0.1641
14709TIP3    H165542   4.707   6.519   2.928 -0.6074  1.9925 -2.7808
14709TIP3    H265543   4.686   6.620   3.038  1.1418 -0.7335  0.2102
14710TIP3   OH265544   4.680   5.046   1.934  0.2837  0.3538 -0.3524
14710TIP3    H165545   4.632   5.076   2.012 -1.6198 -0.8368 -0.9961
14710TIP3    H265546   4.730   5.123   1.907 -0.7496  1.4887  0.7608
14711TIP3   OH265547   3.439   4.469   5.646 -0.0048  0.4373  0.3242
14711TIP3    H165548   3.450   4.418   5.727  0.0799  0.9205  0.6185
14711TIP3    H265549   3.426   4.403   5.578  2.1198 -0.0850  0.3516
14712TIP3   OH265550   4.858   5.772   5.565 -0.4548 -0.5742 -0.2259
14712TIP3    H165551   4.856   5.721   5.646 -0.5360 -0.5276 -0.1992
14712TIP3    H265552   4.813   5.854   5.587 -0.8400 -0.7317 -0.4364
14713TIP3   OH265553   0.932   5.509   5.277 -0.0716 -0.2616 -0.4458
14713TIP3    H165554   0.913   5.603   5.278 -0.9818 -0.4163  1.4320
14713TIP3    H265555   1.027   5.503   5.286  0.2463  0.4539 -2.6420
14714TIP3   OH265556   3.726   5.987  14.303  0.1140 -0.5302  0.0544
14714TIP3    H165557   3.656   6.020  14.246  0.8141 -0.0424 -0.5493
14714TIP3    H265558   3.681   5.934  14.368 -1.1362  1.7903  1.2361
14715TIP3   OH265559   3.853   1.058  11.487 -0.0197  0.2193 -0.1571
14715TIP3    H165560   3.786   1.125  11.503  0.6908  1.0091 -0.4308
14715TIP3    H265561   3.899   1.089  11.409  0.0336 -0.8252 -0.5547
14716TIP3   OH265562   5.412   1.671   3.413  0.0904 -0.2482 -0.1905
14716TIP3    H165563   5.500   1.687   3.377 -0.2124 -1.5215 -1.5756
14716TIP3    H265564   5.404   1.576   3.415 -0.8603 -0.1515  0.9626
14717TIP3   OH265565   0.352   3.728   0.401  0.8966 -0.2041  0.5291
14717TIP3    H165566   0.412   3.796   0.372  1.8276 -1.1767  0.1135
14717TIP3    H265567   0.275   3.776   0.431  1.5971  1.0338  0.4290
14718TIP3   OH265568   3.685   6.334   0.171  0.6428  0.2726  0.1978
14718TIP3    H165569   3.640   6.397   0.116  2.0365  1.4587  0.3661
14718TIP3    H265570   3.777   6.360   0.168  1.2901 -1.8348  0.1725
14719TIP3   OH265571   5.627   3.648  15.993 -0.4128  0.5853  0.4012
14719TIP3    H165572   5.577   3.729  15.994  0.5942  1.2502  1.8553
14719TIP3    H265573   5.589   3.596  16.064 -0.9417 -0.1551 -0.4123
14720TIP3   OH265574   1.396   4.632  11.655 -0.3008  0.5800 -0.1901
14720TIP3    H165575   1.400   4.714  11.705 -0.6169  1.0719 -0.9413
14720TIP3    H265576   1.399   4.660  11.563  1.4974 -0.3678 -0.4623
14721TIP3   OH265577   1.400   6.722   3.114 -1.0910  0.5087  0.5489
14721TIP3    H165578   1.475   6.753   3.164 -1.2814  1.4801  0.2582
14721TIP3    H265579   1.346   6.800   3.100 -1.1024  0.2506 -1.0462
14722TIP3   OH265580   3.274   0.457  15.289 -0.9920  0.2493  0.3693
14722TIP3    H165581   3.245   0.438  15.378  1.2611  0.6595  1.2758
14722TIP3    H265582   3.332   0.533  15.298  4.9679 -3.5973 -0.1114
14723TIP3   OH265583   6.158   0.580  15.497 -0.1429 -0.0456 -0.4714
14723TIP3    H165584   6.127   0.490  15.502  0.6472 -0.2515  1.5851
14723TIP3    H265585   6.222   0.579  15.426  1.2493 -1.6048  0.7267
14724TIP3   OH265586   1.005   4.228   0.212 -0.0987  0.1964  0.0761
14724TIP3    H165587   1.016   4.322   0.228 -2.1479  0.2677  1.5773
14724TIP3    H265588   0.911   4.213   0.227 -0.3582 -1.6464 -2.7283
14725TIP3   OH265589   3.797   2.428  13.938  0.2979  0.7261 -0.2908
14725TIP3    H165590   3.809   2.417  13.844  2.9903 -2.7453  0.2542
14725TIP3    H265591   3.885   2.444  13.972 -0.1876 -0.7823  1.8489
14726TIP3   OH265592   6.473   2.954   5.673 -0.3758 -0.9954  0.6400
14726TIP3    H165593   6.562   2.937   5.705  0.2177 -0.4763 -0.6524
14726TIP3    H265594   6.446   3.033   5.720  0.2610 -0.5665  0.3123
14727TIP3   OH265595   0.013   5.099  14.830  0.0152 -0.1462 -0.1479
14727TIP3    H165596   0.006   5.096  14.926 -1.9087  2.6093 -0.0801
14727TIP3    H265597  -0.067   5.142  14.801  0.6619 -0.6682 -3.0146
14728TIP3   OH265598   1.501   1.343   6.415 -0.1916  0.4788 -0.0304
14728TIP3    H165599   1.429   1.393   6.378 -0.8443  1.1457  2.0227
14728TIP3    H265600   1.574   1.358   6.354 -1.3221  1.1121 -1.2797
14729TIP3   OH265601   4.181   5.038   4.280  0.0346 -0.4226  0.2037
14729TIP3    H165602   4.158   5.131   4.273  0.7217 -0.2586  0.0227
14729TIP3    H265603   4.174   5.005   4.191  1.9756  0.0029 -0.1482
14730TIP3   OH265604   2.321   5.831   0.501  0.0697 -0.5070 -0.3472
14730TIP3    H165605   2.241   5.783   0.479  0.7526 -1.3456 -1.0737
14730TIP3    H265606   2.292   5.922   0.513 -0.7622 -0.4984 -2.0948
14731TIP3   OH265607   1.887   0.697   2.136  0.2517 -1.0965 -0.0489
14731TIP3    H165608   1.840   0.638   2.194  0.1030  0.3966  1.4063
14731TIP3    H265609   1.979   0.688   2.162  0.1127  0.0385  0.8721
14732TIP3   OH265610   5.280   5.696  16.156  0.0735  0.2029 -0.8465
14732TIP3    H165611   5.229   5.634  16.208  0.9313  0.0292 -0.1919
14732TIP3    H265612   5.355   5.718  16.211  0.3395  1.0011 -1.5062
14733TIP3   OH265613   2.892   2.011   0.975  0.2906 -0.2971  0.1185
14733TIP3    H165614   2.941   1.994   1.056 -0.6351 -1.0697  0.5260
14733TIP3    H265615   2.811   2.054   1.005  0.7462  1.1155 -0.5610
14734TIP3   OH265616   0.441   0.934   1.219  0.4654  0.0302 -0.1205
14734TIP3    H165617   0.368   0.930   1.157  1.1010 -3.8425 -0.8705
14734TIP3    H265618   0.517   0.955   1.165  0.3990  0.9339  0.1249
14735TIP3   OH265619   5.148   4.109  15.007  0.1670  0.2602 -0.1718
14735TIP3    H165620   5.161   4.015  15.010  0.2565  0.2897  0.6397
14735TIP3    H265621   5.229   4.143  14.969 -0.0533 -0.0152 -0.9074
14736TIP3   OH265622   2.935   3.181  12.324 -0.4922 -0.3530  0.5816
14736TIP3    H165623   2.941   3.163  12.417  0.8631  1.6262  0.9456
14736TIP3    H265624   2.953   3.275  12.316 -1.3763 -0.2918 -1.6014
14737TIP3   OH265625   6.692   2.070   0.638 -0.8276  0.0198 -0.2747
14737TIP3    H165626   6.682   1.976   0.652  2.4896 -0.9367 -2.9895
14737TIP3    H265627   6.658   2.085   0.549  0.4994  0.9642 -0.6563
14738TIP3   OH265628   2.136   6.568   4.284 -0.0637  0.4649 -0.6960
14738TIP3    H165629   2.198   6.504   4.248 -0.8268 -1.1367  0.7218
14738TIP3    H265630   2.169   6.586   4.372  0.6062  2.7256 -1.3410
14739TIP3   OH265631   1.266   6.719  14.563  0.4306  0.5898  0.2101
14739TIP3    H165632   1.318   6.655  14.612  2.0527  1.0045 -0.8571
14739TIP3    H265633   1.235   6.671  14.486  0.1606  0.6334  0.2903
14740TIP3   OH265634   0.160   6.093  11.645 -0.2095  0.6649 -0.0886
14740TIP3    H165635   0.084   6.148  11.627  0.1651  1.0616 -0.4965
14740TIP3    H265636   0.217   6.106  11.569  0.9583  1.5660  0.9055
14741TIP3   OH265637   6.513   5.648  15.800  0.4345 -0.0822 -0.1331
14741TIP3    H165638   6.485   5.557  15.793  1.3036 -0.4837  1.1890
14741TIP3    H265639   6.599   5.650  15.757  0.6244  0.0022  0.2437
14742TIP3   OH265640   6.218   3.019   5.379  0.2207  0.2469 -0.1678
14742TIP3    H165641   6.159   3.084   5.343 -0.9672 -0.7982 -0.1772
14742TIP3    H265642   6.272   2.991   5.305 -0.3802  0.0526 -0.5403
14743TIP3   OH265643   2.640   6.503   1.167  0.0932 -0.0527 -0.6689
14743TIP3    H165644   2.616   6.594   1.181 -0.0625 -0.1417 -0.3461
14743TIP3    H265645   2.711   6.506   1.103  1.5680  0.4266  0.9340
14744TIP3   OH265646   1.949   1.020   4.962 -0.6155 -0.0740 -0.5149
14744TIP3    H165647   1.933   0.976   5.045  2.3178 -3.3959 -1.4158
14744TIP3    H265648   2.043   1.009   4.948 -0.3516  3.5253 -2.6848
14745TIP3   OH265649   6.327   1.646   0.251 -0.1107  0.4587  0.1854
14745TIP3    H165650   6.383   1.571   0.232  0.4101  0.3211  2.0218
14745TIP3    H265651   6.254   1.610   0.302  0.6767  1.2952  1.9855
14746TIP3   OH265652   2.721   5.410  13.674 -0.0838 -0.0764 -0.4099
14746TIP3    H165653   2.637   5.455  13.687  0.1944  0.0186  1.2999
14746TIP3    H265654   2.710   5.361  13.592 -1.6303  0.3225 -0.4700
14747TIP3   OH265655   2.811   3.053   0.141 -0.0564  0.1814  0.0386
14747TIP3    H165656   2.869   3.064   0.216 -2.1279 -1.2515  2.0032
14747TIP3    H265657   2.831   2.965   0.108  0.5643  0.6493 -0.8756
14748TIP3   OH265658   3.280   0.367   0.014  0.3416  0.1823 -0.0965
14748TIP3    H165659   3.370   0.353  -0.017  0.0901 -2.1458 -0.0121
14748TIP3    H265660   3.258   0.285   0.058 -1.5688  1.0068  0.5718
14749TIP3   OH265661   4.982   3.792   3.865 -0.0246  0.2481 -0.6459
14749TIP3    H165662   5.019   3.762   3.948 -0.1233  1.3336 -0.1935
14749TIP3    H265663   4.925   3.720   3.837  0.6881 -0.4998 -0.2251
14750TIP3   OH265664   2.645   2.431   4.021  0.1489  0.2798 -0.3490
14750TIP3    H165665   2.639   2.378   3.941 -0.0299  0.4444 -0.4431
14750TIP3    H265666   2.563   2.479   4.025  0.1502  0.2619 -0.0562
14751TIP3   OH265667   3.113   3.897   1.505 -0.1250 -0.3574  0.3380
14751TIP3    H165668   3.046   3.936   1.449 -0.3471  0.1384  0.9342
14751TIP3    H265669   3.119   3.806   1.477 -1.4360 -0.5490  0.6281
14752TIP3   OH265670   1.531   6.774   4.203  0.1915 -0.5612 -0.1636
14752TIP3    H165671   1.459   6.753   4.143  0.8718 -3.2694 -0.1827
14752TIP3    H265672   1.497   6.845   4.257 -1.8722 -0.6233 -1.2602
14753TIP3   OH265673   4.111   3.619  11.255  0.3596 -0.3763 -1.0386
14753TIP3    H165674   4.103   3.541  11.201  1.4581 -0.9286 -0.4323
14753TIP3    H265675   4.119   3.691  11.193 -1.0446 -0.6844 -1.6030
14754TIP3   OH265676   6.675   0.273  14.629  0.1103 -0.2912 -0.3779
14754TIP3    H165677   6.763   0.237  14.621  0.2764  0.3122 -1.4037
14754TIP3    H265678   6.688   0.361  14.664 -0.1991 -0.6807  0.7803
14755TIP3   OH265679   6.266   5.748   0.739  0.2868  0.0772 -0.0017
14755TIP3    H165680   6.343   5.772   0.687  1.4891 -2.0398  0.6668
14755TIP3    H265681   6.231   5.670   0.694  1.7281 -2.2064  2.5429
14756TIP3   OH265682   1.035   1.808   6.121  0.3612 -0.6374 -0.2743
14756TIP3    H165683   1.087   1.731   6.146  1.6159 -0.2890 -1.6743
14756TIP3    H265684   0.945   1.777   6.119  0.2457 -1.0230  3.2767
14757TIP3   OH265685   3.563   5.647  15.294  0.0818 -0.3527 -0.2370
14757TIP3    H165686   3.619   5.691  15.357 -1.0418 -0.3092  0.7718
14757TIP3    H265687   3.552   5.559  15.330 -0.2841 -0.4396 -0.5542
14758TIP3   OH265688   3.989   1.513  12.621 -0.1234 -0.5773 -0.2322
14758TIP3    H165689   4.049   1.490  12.550  0.8730  0.4982  0.2271
14758TIP3    H265690   3.905   1.476  12.594 -0.1101  0.9095 -2.6238
14759TIP3   OH265691   1.858   4.023  12.754  0.0807  0.7484  0.7812
14759TIP3    H165692   1.797   4.045  12.825 -0.6481 -0.9794  0.7558
14759TIP3    H265693   1.802   4.012  12.677  0.6087  0.5969  0.4163
14760TIP3   OH265694   3.908   3.357  16.699  0.8178  0.5802  0.0488
14760TIP3    H165695   3.970   3.316  16.760 -1.6433 -0.9193  1.7365
14760TIP3    H265696   3.839   3.391  16.756 -0.3599  1.3932 -1.8069
14761TIP3   OH265697   0.913   0.444  14.904 -0.2412 -0.2251 -0.5112
14761TIP3    H165698   0.830   0.423  14.947 -0.1551 -0.8467 -0.6387
14761TIP3    H265699   0.979   0.434  14.973 -0.1731 -0.6177 -0.6310
14762TIP3   OH265700   2.281   1.309   1.889  0.0988 -0.5188 -0.0536
14762TIP3    H165701   2.317   1.221   1.880  1.8094  0.3154 -2.1747
14762TIP3    H265702   2.195   1.296   1.928 -0.3858 -3.2829 -1.7995
14763TIP3   OH265703   6.377   5.841  13.473 -0.1411 -0.3609 -0.3492
14763TIP3    H165704   6.293   5.888  13.469  0.7751  1.3752 -0.0017
14763TIP3    H265705   6.369   5.773  13.406 -1.3877  0.5196 -1.1514
14764TIP3   OH265706   0.713   5.344   2.014  0.0410 -0.3087 -0.3955
14764TIP3    H165707   0.790   5.290   1.995 -0.4408 -0.9799 -0.4844
14764TIP3    H265708   0.651   5.323   1.943 -0.3681 -0.0691 -0.1139
14765TIP3   OH265709   0.572   6.082  11.212  0.7647  0.3480  0.3955
14765TIP3    H165710   0.539   6.005  11.166 -3.2459  1.4296  1.1327
14765TIP3    H265711   0.553   6.156  11.153  2.3834  1.0555  0.6998
14766TIP3   OH265712   2.927   1.110  14.525 -0.3155  0.2488  0.3808
14766TIP3    H165713   2.887   1.082  14.607 -0.8097  2.2277  0.8804
14766TIP3    H265714   2.874   1.068  14.457 -1.1936  0.2162  1.0661
14767TIP3   OH265715   3.266   0.387   2.603 -0.7480  0.0627  0.0318
14767TIP3    H165716   3.261   0.356   2.513  0.4504 -0.8516  0.2658
14767TIP3    H265717   3.360   0.400   2.619 -0.9449  0.2044  1.1481
14768TIP3   OH265718   2.306   1.093  16.301  0.5297 -0.1507  0.2613
14768TIP3    H165719   2.366   1.021  16.322  0.2743 -0.2202  0.7802
14768TIP3    H265720   2.219   1.053  16.306  0.4667 -0.5709 -2.4818
14769TIP3   OH265721   4.045   4.897  12.344 -0.2169  0.0539  0.3771
14769TIP3    H165722   3.969   4.856  12.387 -0.0985 -2.1611 -1.3444
14769TIP3    H265723   4.033   4.991  12.360 -1.4432 -0.4426  3.0821
14770TIP3   OH265724   4.230   3.924   4.937 -0.3048 -0.3922 -0.2169
14770TIP3    H165725   4.226   3.829   4.942  0.1606 -0.4278 -0.4674
14770TIP3    H265726   4.262   3.951   5.023 -0.0304 -0.4921 -0.2851
14771TIP3   OH265727   3.408   1.664   2.528 -0.4283  0.3039  0.1372
14771TIP3    H165728   3.407   1.749   2.485  0.8152 -0.9315 -2.6098
14771TIP3    H265729   3.363   1.605   2.468  0.2709 -1.3158  1.1075
14772TIP3   OH265730   0.616   5.357  13.184 -0.8900 -0.3321  0.0413
14772TIP3    H165731   0.551   5.403  13.237 -0.1716  0.6135  0.1149
14772TIP3    H265732   0.655   5.294  13.245 -0.2436  0.5802  0.5807
14773TIP3   OH265733   4.323   1.424  16.953  0.1154 -0.2067 -0.2207
14773TIP3    H165734   4.377   1.499  16.928  0.0941  0.3942  1.4363
14773TIP3    H265735   4.348   1.405  17.043 -3.1205  0.7795  1.0285
14774TIP3   OH265736   4.852   2.695  13.979  0.2395  0.6842  0.4579
14774TIP3    H165737   4.763   2.666  13.997 -0.8991  1.7041 -2.8366
14774TIP3    H265738   4.849   2.790  13.990 -0.2984  1.2611 -3.3168
14775TIP3   OH265739   0.830   2.648   2.821  0.2439  0.9342  0.3832
14775TIP3    H165740   0.800   2.624   2.733  1.6458  2.6262 -0.6399
14775TIP3    H265741   0.862   2.567   2.859 -1.5529 -0.0824 -0.1225
14776TIP3   OH265742   0.226   3.289   1.722  0.5815 -0.0169 -0.4155
14776TIP3    H165743   0.155   3.328   1.773  1.7368  0.7633  0.6809
14776TIP3    H265744   0.222   3.334   1.637  0.1953  0.5165 -0.1200
14777TIP3   OH265745   5.793   6.156   3.833  0.2839  0.5551  0.1087
14777TIP3    H165746   5.859   6.101   3.874  0.5148  0.7642  0.0146
14777TIP3    H265747   5.835   6.190   3.755 -0.0164  0.4924 -0.0822
14778TIP3   OH265748   4.636   5.188  12.244 -0.4830 -0.4173 -0.6612
14778TIP3    H165749   4.625   5.141  12.161  2.6979 -0.7918 -0.9798
14778TIP3    H265750   4.574   5.261  12.239 -0.5090 -0.5343 -3.2872
14779TIP3   OH265751   4.516   1.148  14.631  0.4342 -0.1209  0.5121
14779TIP3    H165752   4.491   1.062  14.599 -0.9569 -0.0360  1.3241
14779TIP3    H265753   4.596   1.133  14.681  2.1870 -0.3842 -2.1556
14780TIP3   OH265754   1.994   5.980  12.291 -0.1165  0.0024  0.2229
14780TIP3    H165755   2.069   6.037  12.307  0.3599 -0.5902  0.1418
14780TIP3    H265756   1.921   6.025  12.333  0.4062  0.2777  0.8671
14781TIP3   OH265757   1.457   0.197  14.164  0.1421 -0.3850  0.2308
14781TIP3    H165758   1.384   0.204  14.225 -0.8229  0.8462 -1.0097
14781TIP3    H265759   1.415   0.186  14.078  1.4332 -0.4314 -0.4128
14782TIP3   OH265760   1.184   1.505   2.326 -0.3940 -0.1572 -0.3061
14782TIP3    H165761   1.112   1.551   2.283 -2.1920 -2.7387 -0.3324
14782TIP3    H265762   1.193   1.423   2.277  0.0495 -1.5370  1.9106
14783TIP3   OH265763   6.051   5.997   4.393 -0.3038  0.3396 -0.7292
14783TIP3    H165764   6.058   6.065   4.460  1.0706 -0.4334 -0.0391
14783TIP3    H265765   6.086   5.918   4.435 -1.0685 -0.5921 -1.7878
14784TIP3   OH265766   3.147   2.318  16.325 -0.8392  0.0732 -0.2972
14784TIP3    H165767   3.058   2.291  16.350 -1.0709  1.9129  1.0928
14784TIP3    H265768   3.194   2.323  16.408  0.2905  0.0918 -0.9302
14785TIP3   OH265769   4.703   3.321   1.589 -0.0795 -0.3418  0.0718
14785TIP3    H165770   4.764   3.251   1.612 -0.1911 -0.7932 -0.9314
14785TIP3    H265771   4.737   3.399   1.633 -0.1388 -1.0852  1.4647
14786TIP3   OH265772   4.730   1.784   3.186 -0.0692  0.6375 -0.2377
14786TIP3    H165773   4.662   1.831   3.234 -0.6879 -1.9034  1.6065
14786TIP3    H265774   4.684   1.712   3.144  1.2866 -0.4353  0.0359
14787TIP3   OH265775   4.588   1.833  11.013  0.8736  0.1608  0.0947
14787TIP3    H165776   4.521   1.901  11.021  1.7061  0.8978  1.1237
14787TIP3    H265777   4.607   1.829  10.919 -2.5007 -2.0175 -0.6710
14788TIP3   OH265778   5.838   0.708  15.188 -0.0349 -1.0549  0.4596
14788TIP3    H165779   5.918   0.729  15.141 -0.2811  0.1326  0.5412
14788TIP3    H265780   5.851   0.745  15.275 -0.7460 -0.6687  0.4108
14789TIP3   OH265781   0.240   6.088  13.953 -0.3029 -0.4401 -0.6933
14789TIP3    H165782   0.283   6.015  13.997  0.5940  1.6454  2.1648
14789TIP3    H265783   0.308   6.156  13.948 -2.1273  1.5788  0.4166
14790TIP3   OH265784   3.997   0.051  12.238  0.1161 -0.4616  0.3687
14790TIP3    H165785   3.926   0.059  12.302  1.0877  1.9544  1.2625
14790TIP3    H265786   4.074   0.030  12.291  0.2273 -2.6336 -0.5494
14791TIP3   OH265787   1.492   3.425  14.015 -0.2348 -0.4506  0.5310
14791TIP3    H165788   1.581   3.410  13.982 -0.3495 -3.2747  1.2490
14791TIP3    H265789   1.501   3.423  14.110 -1.1625 -1.6300  0.6130
14792TIP3   OH265790   5.146   3.507   0.237 -0.5181  0.6594  0.0056
14792TIP3    H165791   5.137   3.567   0.311  0.6641 -0.6365  1.2811
14792TIP3    H265792   5.221   3.541   0.188 -0.0626  0.4686  0.5413
14793TIP3   OH265793   3.269   0.066   5.269 -0.2771 -0.1303  0.4328
14793TIP3    H165794   3.222   0.145   5.240  2.8543  2.2542  1.3236
14793TIP3    H265795   3.317   0.037   5.191  0.8061  0.6183  0.8048
14794TIP3   OH265796   5.497   5.470  14.293  0.2926 -0.2639  0.1155
14794TIP3    H165797   5.563   5.401  14.285  0.3747 -0.3115  1.1452
14794TIP3    H265798   5.416   5.429  14.264  0.5875 -0.3817 -0.5781
14795TIP3   OH265799   4.929   4.450   0.174  0.3208 -0.0212 -0.3098
14795TIP3    H165800   5.020   4.474   0.158  0.8512 -0.0714  2.1696
14795TIP3    H265801   4.887   4.532   0.201 -0.1955 -0.1253 -0.7922
14796TIP3   OH265802   3.804   3.992   0.045 -1.0537  0.4103 -0.3486
14796TIP3    H165803   3.792   4.038  -0.038  0.1180  0.8801 -0.2682
14796TIP3    H265804   3.724   4.013   0.095 -0.3261  2.8893 -0.0903
14797TIP3   OH265805   5.647   5.643   3.549 -0.0329 -0.2441 -0.1021
14797TIP3    H165806   5.615   5.644   3.639  1.5253 -0.8855  0.4974
14797TIP3    H265807   5.585   5.697   3.501 -1.2415 -0.3911  1.2314
14798TIP3   OH265808   2.069   5.698  16.915  0.5710  0.8259  0.1969
14798TIP3    H165809   1.987   5.748  16.916 -0.3814 -0.6419 -0.5400
14798TIP3    H265810   2.135   5.761  16.885 -0.8789  1.2773 -2.3552
14799TIP3   OH265811   1.533   5.662   1.610 -0.4077 -0.5176 -0.1196
14799TIP3    H165812   1.546   5.734   1.548 -0.7812 -1.7615 -1.7417
14799TIP3    H265813   1.476   5.698   1.678 -1.3744  0.4658 -1.3973
14800TIP3   OH265814   0.150   3.347  11.304  0.8004 -0.6954 -0.1072
14800TIP3    H165815   0.118   3.421  11.252  1.4406 -0.9835 -0.9414
14800TIP3    H265816   0.097   3.349  11.383 -2.9377 -2.4834 -2.2867
14801TIP3   OH265817   6.629   2.084  13.173 -0.4239 -0.6366 -0.1312
14801TIP3    H165818   6.557   2.123  13.221  0.7481  1.5267  0.0034
14801TIP3    H265819   6.603   2.091  13.081 -0.4111  0.1388 -0.0833
14802TIP3   OH265820   1.721   6.113   0.565  0.1409  0.0514 -0.2532
14802TIP3    H165821   1.729   6.200   0.606  0.7593 -0.3360  0.4695
14802TIP3    H265822   1.806   6.098   0.524 -0.0316 -0.1338 -0.5440
14803TIP3   OH265823   3.457   2.563   6.355  0.4709  0.1881 -0.5157
14803TIP3    H165824   3.446   2.647   6.401 -1.8189 -1.1268  1.6094
14803TIP3    H265825   3.534   2.523   6.395  2.3367  1.7061 -2.4076
14804TIP3   OH265826   4.089   2.852   6.333  0.0122  0.3810 -0.1607
14804TIP3    H165827   4.021   2.914   6.361  0.2509  1.0839 -1.1002
14804TIP3    H265828   4.160   2.908   6.303  1.2226 -0.3373  1.2651
14805TIP3   OH265829   1.075   1.577   3.911 -0.0914  0.1881 -0.1802
14805TIP3    H165830   1.055   1.574   4.004 -0.7203  0.5331 -0.2996
14805TIP3    H265831   1.087   1.485   3.886 -1.8192 -0.0776 -0.1553
14806TIP3   OH265832   4.057   5.611  11.552 -0.0597 -0.2548 -0.3119
14806TIP3    H165833   4.004   5.532  11.562 -0.6365 -0.1763 -2.2776
14806TIP3    H265834   4.097   5.603  11.465  0.8601  1.0450 -0.0513
14807TIP3   OH265835   5.072   1.206   0.399  0.1853  0.3178  0.6714
14807TIP3    H165836   5.028   1.283   0.363  0.4713  0.7015  1.1190
14807TIP3    H265837   5.001   1.152   0.435 -0.1265 -0.2178 -0.7085
14808TIP3   OH265838   1.951   6.168  15.510 -0.2267  0.6935  0.6375
14808TIP3    H165839   1.929   6.259  15.530 -0.0190  0.6978  0.8537
14808TIP3    H265840   2.046   6.169  15.497 -0.1103  0.3678  1.4257
14809TIP3   OH265841   4.519   2.123  13.601 -0.2270 -0.0264 -0.1355
14809TIP3    H165842   4.586   2.069  13.559 -0.7122  0.2902 -1.3623
14809TIP3    H265843   4.436   2.091  13.564 -0.9336 -1.3176  2.3219
14810TIP3   OH265844   3.630   5.441  15.628 -0.0883  0.2129  0.2851
14810TIP3    H165845   3.633   5.537  15.633 -0.4944  0.2269  0.2680
14810TIP3    H265846   3.709   5.417  15.581  0.6862  0.4654  1.4187
14811TIP3   OH265847   6.179   2.976  15.501 -0.1386  0.1757 -0.2596
14811TIP3    H165848   6.135   3.061  15.506 -1.3105 -0.4094 -0.1958
14811TIP3    H265849   6.169   2.950  15.409 -3.2697 -1.6095  0.4372
14812TIP3   OH265850   6.335   1.853   0.629  0.0274 -0.5152  0.2773
14812TIP3    H165851   6.337   1.943   0.662 -0.0805 -0.6842  0.7482
14812TIP3    H265852   6.275   1.807   0.688  0.4011 -0.9919  0.2941
14813TIP3   OH265853   4.214   5.247   0.841  0.1895 -0.0010  0.1305
14813TIP3    H165854   4.132   5.209   0.871 -0.3206  0.6677 -0.3800
14813TIP3    H265855   4.282   5.202   0.892 -0.4040 -1.3393 -0.1972
14814TIP3   OH265856   2.769   4.195   5.548  0.3974  0.1292  0.5470
14814TIP3    H165857   2.811   4.251   5.613  0.3911 -0.7325  1.3211
14814TIP3    H265858   2.699   4.151   5.597 -0.0119 -0.0639 -0.1989
14815TIP3   OH265859   6.098   6.306  13.035 -0.0255  0.4214 -0.4802
14815TIP3    H165860   6.168   6.280  13.095 -3.0618 -0.1744  3.2225
14815TIP3    H265861   6.110   6.250  12.958  3.4981  0.4462 -0.1220
14816TIP3   OH265862   5.467   2.273  11.520  0.1065  0.2571 -0.0594
14816TIP3    H165863   5.498   2.306  11.604  0.7450 -0.5689  0.0387
14816TIP3    H265864   5.530   2.206  11.495 -0.5029 -0.0551 -0.8242
14817TIP3   OH265865   1.337   5.942  15.412  0.1043  0.2428 -0.1344
14817TIP3    H165866   1.292   6.006  15.358 -0.8270  0.4012  0.7986
14817TIP3    H265867   1.320   5.970  15.502 -0.0326 -1.1116  0.2864
14818TIP3   OH265868   4.054   2.324  12.633 -0.9137 -0.1483 -0.1320
14818TIP3    H165869   3.959   2.320  12.631 -0.8678 -1.1821 -0.4382
14818TIP3    H265870   4.083   2.235  12.653  0.0104 -0.0948 -1.1008
14819TIP3   OH265871   1.278   0.745   5.713  0.2262  0.7542 -0.6467
14819TIP3    H165872   1.368   0.735   5.682  0.3387 -1.0318  0.1168
14819TIP3    H265873   1.286   0.743   5.809 -0.5934  1.0855 -0.5624
14820TIP3   OH265874   3.683   4.478  13.470 -0.2759 -1.0154 -0.0994
14820TIP3    H165875   3.609   4.506  13.415 -0.2605 -1.8117 -0.5329
14820TIP3    H265876   3.749   4.546  13.458  0.4510 -2.0548 -2.5170
14821TIP3   OH265877   1.340   2.709   3.198 -0.4242 -0.0937  0.2162
14821TIP3    H165878   1.263   2.710   3.256 -0.4210 -0.9371  0.2550
14821TIP3    H265879   1.305   2.733   3.112 -0.3367  1.6875  0.6499
14822TIP3   OH265880   6.161   4.726   1.665  0.1322 -0.1892  0.4874
14822TIP3    H165881   6.174   4.819   1.648 -0.8956 -0.0663  0.3202
14822TIP3    H265882   6.086   4.702   1.611 -0.3982 -0.8228  1.4841
14823TIP3   OH265883   4.491   4.528   0.399  0.3395  0.4556  0.5063
14823TIP3    H165884   4.403   4.506   0.370  0.0896  1.7868  0.1885
14823TIP3    H265885   4.541   4.447   0.389 -0.3034  0.2530 -1.4499
14824TIP3   OH265886   2.416   5.601   5.060 -0.6707 -0.2246  0.3823
14824TIP3    H165887   2.434   5.536   5.128 -1.5687  1.1149  1.9548
14824TIP3    H265888   2.417   5.551   4.978  1.5694 -1.6843  1.2117
14825TIP3   OH265889   2.709   5.460  16.256 -0.4091 -0.3170  0.1981
14825TIP3    H165890   2.737   5.371  16.231 -0.7596 -0.1364 -0.8858
14825TIP3    H265891   2.730   5.466  16.349  3.0910 -0.2202 -0.4729
14826TIP3   OH265892   6.168   5.320   4.002 -0.2178  0.4363 -0.3419
14826TIP3    H165893   6.089   5.348   3.956 -1.0909 -0.5082  0.5427
14826TIP3    H265894   6.139   5.250   4.060  1.4396 -0.5589 -0.6458
14827TIP3   OH265895   1.000   2.646   0.239  0.2209  0.2982 -0.7400
14827TIP3    H165896   0.947   2.570   0.216  1.0598 -0.5027 -0.0928
14827TIP3    H265897   1.090   2.619   0.220  0.5608  1.0063 -0.1734
14828TIP3   OH265898   1.284   0.053  13.666  0.1628  0.3025 -0.7321
14828TIP3    H165899   1.224   0.088  13.732  0.5436 -1.9225  0.9159
14828TIP3    H265900   1.228   0.001  13.609  0.2752 -0.5520 -0.0859
14829TIP3   OH265901   5.069   1.790  15.830  0.2556 -0.2341  0.1897
14829TIP3    H165902   5.095   1.739  15.906 -1.2758 -0.2531  0.7483
14829TIP3    H265903   5.149   1.803  15.780  0.8570 -2.5133  0.4315
14830TIP3   OH265904   3.187   4.697  15.383  0.2541 -0.5607  0.1539
14830TIP3    H165905   3.111   4.671  15.331 -0.3772 -0.3143  0.9379
14830TIP3    H265906   3.168   4.666  15.471  0.7558  0.1002  0.5038
14831TIP3   OH265907   1.558   4.648  13.828  0.0358  0.3448  0.1959
14831TIP3    H165908   1.563   4.738  13.859  1.0599 -0.0501  1.2496
14831TIP3    H265909   1.616   4.599  13.886 -1.2382 -1.1781  0.2584
14832TIP3   OH265910   5.349   6.774  11.255  0.2186  0.1178 -0.0962
14832TIP3    H165911   5.254   6.777  11.267  0.2728 -1.3792  1.0363
14832TIP3    H265912   5.377   6.695  11.302  1.8144 -0.4979 -1.9402
14833TIP3   OH265913   1.313   5.332  11.750 -0.1954 -0.2832 -0.1076
14833TIP3    H165914   1.275   5.355  11.665  1.2396 -0.5193 -0.8331
14833TIP3    H265915   1.295   5.239  11.761  0.1592 -0.3939 -0.4505
14834TIP3   OH265916   4.342   0.633   6.472 -0.5348  0.4952 -0.3940
14834TIP3    H165917   4.257   0.603   6.440 -0.3605  1.5162 -1.8844
14834TIP3    H265918   4.321   0.705   6.532 -0.8156 -0.8563  1.1869
14835TIP3   OH265919   2.725   0.898   1.528  0.0094  0.1794 -0.4554
14835TIP3    H165920   2.746   0.826   1.469  1.4005  0.6254 -0.5269
14835TIP3    H265921   2.630   0.910   1.518 -0.3459 -1.9471 -0.0678
14836TIP3   OH265922   4.788   0.598   0.481  0.1946 -0.0668  0.2481
14836TIP3    H165923   4.783   0.533   0.411  1.1609  0.2319 -0.1249
14836TIP3    H265924   4.794   0.682   0.435  0.6411  0.1468  0.6836
14837TIP3   OH265925   5.217   4.795   6.593 -0.2783 -0.8533 -0.3501
14837TIP3    H165926   5.191   4.885   6.573  1.3409 -0.6170 -1.5747
14837TIP3    H265927   5.166   4.742   6.533 -1.4518 -0.8226  0.5679
14838TIP3   OH265928   4.979   4.504  15.308 -0.2520 -0.1120  0.4623
14838TIP3    H165929   4.902   4.510  15.251 -0.1525 -2.2281  0.0179
14838TIP3    H265930   4.980   4.412  15.337  2.3356 -0.2517  0.1252
14839TIP3   OH265931   5.400   0.026   1.890  0.3645  0.0504 -0.0238
14839TIP3    H165932   5.376   0.023   1.797 -2.3547  1.0989  0.5365
14839TIP3    H265933   5.378  -0.060   1.924 -1.0258  0.4252  0.0950
14840TIP3   OH265934   5.038   5.259  12.036  0.5002  0.4091  0.1144
14840TIP3    H165935   5.028   5.167  12.009 -0.4880  0.4543  0.2824
14840TIP3    H265936   5.130   5.279  12.018  0.5743 -0.4197 -0.5288
14841TIP3   OH265937   6.043   6.685   5.656  1.0750  0.3415  0.2157
14841TIP3    H165938   5.974   6.656   5.596  0.5612  1.7426  0.0826
14841TIP3    H265939   6.030   6.632   5.735  2.6138 -2.5027 -1.3097
14842TIP3   OH265940   5.732   4.614  14.052 -0.1802 -0.0556  0.0050
14842TIP3    H165941   5.717   4.662  13.970 -0.6912  2.8694  1.6863
14842TIP3    H265942   5.644   4.595  14.085  0.0198 -0.7262  0.1731
14843TIP3   OH265943   6.688   4.038   0.222 -0.2528  0.5761 -0.1292
14843TIP3    H165944   6.723   4.101   0.159 -0.0212  1.0827  0.4907
14843TIP3    H265945   6.603   4.014   0.186  0.2147  0.2290 -1.0492
14844TIP3   OH265946   0.585   5.824  13.598 -0.0329  0.2537  0.5365
14844TIP3    H165947   0.516   5.873  13.552 -0.9821 -0.7423  0.8427
14844TIP3    H265948   0.599   5.873  13.679 -0.3390  0.4976  0.4455
14845TIP3   OH265949   0.636   0.679  16.567 -0.6025 -0.2311  0.6333
14845TIP3    H165950   0.646   0.584  16.554 -2.9232 -0.2554 -1.8407
14845TIP3    H265951   0.555   0.687  16.618 -2.7825  0.3679 -2.6280
14846TIP3   OH265952   3.550   0.146  11.928  0.6219 -0.0167  0.2235
14846TIP3    H165953   3.461   0.145  11.893  1.4500 -2.7139 -2.1597
14846TIP3    H265954   3.540   0.114  12.018 -0.7234 -1.7457 -0.4858
14847TIP3   OH265955   3.687   5.399  11.486  0.2114 -0.2796 -0.0911
14847TIP3    H165956   3.727   5.327  11.439  0.5126 -0.3624  0.2878
14847TIP3    H265957   3.599   5.407  11.448  0.1771 -0.8387 -0.1378
14848TIP3   OH265958   2.171   1.075   5.472 -0.1833  0.0115  0.1003
14848TIP3    H165959   2.265   1.057   5.473 -0.0416  0.7306 -0.1673
14848TIP3    H265960   2.130   0.988   5.473  0.4623 -0.2993  1.2324
14849TIP3   OH265961   4.106   6.359  12.494 -0.0947 -0.3693  0.3378
14849TIP3    H165962   4.188   6.394  12.529 -0.5359 -0.0817  1.0932
14849TIP3    H265963   4.122   6.265  12.487  0.2018 -0.3524  0.7572
14850TIP3   OH265964   6.488   2.559  10.474 -0.3642  0.4185 -0.1741
14850TIP3    H165965   6.565   2.534  10.524 -2.3883  0.4637  3.2646
14850TIP3    H265966   6.510   2.645  10.438  1.9638 -0.5721 -1.2802
14851TIP3   OH265967   6.401   5.627  12.563  0.2172 -0.2744  0.8502
14851TIP3    H165968   6.398   5.577  12.645  0.0656 -0.2599  0.8535
14851TIP3    H265969   6.398   5.719  12.591 -0.8918 -0.2824  0.7856
14852TIP3   OH265970   3.732   1.455  12.608  0.6656  0.1235 -0.0160
14852TIP3    H165971   3.713   1.410  12.690  1.6262 -0.4695 -0.1035
14852TIP3    H265972   3.662   1.427  12.548 -0.2247  0.8205  0.6749
14853TIP3   OH265973   6.160   0.215  12.236 -0.4132 -0.3389 -0.3958
14853TIP3    H165974   6.163   0.144  12.300 -0.2678 -1.7048 -1.8834
14853TIP3    H265975   6.118   0.178  12.159 -0.2001  1.1427 -1.2764
14854TIP3   OH265976   2.799   3.551   3.739  1.1579  0.3443  0.4576
14854TIP3    H165977   2.885   3.588   3.719  1.9123 -1.9400 -0.9353
14854TIP3    H265978   2.741   3.586   3.672  1.5235  0.1482  0.0349
14855TIP3   OH265979   0.404   4.678  11.817  0.1501  0.2687 -0.0822
14855TIP3    H165980   0.370   4.638  11.736 -1.7612  0.2596  0.6638
14855TIP3    H265981   0.453   4.608  11.860 -0.0894 -0.1738 -0.5215
14856TIP3   OH265982   3.458   0.172   6.621  0.6385  0.0243 -0.0033
14856TIP3    H165983   3.484   0.229   6.549 -2.0669  0.2830 -0.9144
14856TIP3    H265984   3.436   0.089   6.579 -0.3413 -0.0268  0.5598
14857TIP3   OH265985   0.361   3.297  13.983 -0.0142  0.2965  0.0627
14857TIP3    H165986   0.450   3.315  13.954 -0.1190 -0.1718 -0.5698
14857TIP3    H265987   0.307   3.364  13.941 -0.2005 -0.5379 -1.0540
14858TIP3   OH265988   4.981   6.280  12.216 -0.2790 -0.7442 -0.1536
14858TIP3    H165989   5.009   6.199  12.259  0.6457 -1.2827 -1.6918
14858TIP3    H265990   5.058   6.336  12.219  0.0406 -1.0640 -1.6990
14859TIP3   OH265991   0.033   1.262  15.889  0.8831 -0.4397 -0.6675
14859TIP3    H165992   0.014   1.329  15.954  2.4249  0.7841 -1.4235
14859TIP3    H265993  -0.045   1.259  15.833  1.0320  1.2224 -1.0154
14860TIP3   OH265994   4.373   5.185  11.039  1.1024  0.2682  0.3976
14860TIP3    H165995   4.367   5.160  11.131  1.0050 -0.3938  0.2186
14860TIP3    H265996   4.462   5.219  11.029  0.9988  0.6701  0.8088
14861TIP3   OH265997   3.509   3.609  13.193 -0.2475  0.7198 -0.2873
14861TIP3    H165998   3.496   3.627  13.100 -0.1398  1.3624 -0.1823
14861TIP3    H265999   3.591   3.654  13.215  0.4015 -0.4599 -0.1616
14862TIP3   OH266000   5.954   1.927   5.571 -0.0564  0.6327 -0.3204
14862TIP3    H166001   5.940   1.836   5.545  2.6955  0.1306 -0.2795
14862TIP3    H266002   5.912   1.978   5.501 -2.3496 -0.5631  0.0622
14863TIP3   OH266003   5.139   3.500  13.687 -0.6879  0.0100 -0.2452
14863TIP3    H166004   5.139   3.532  13.597 -1.0848  2.0014  0.4175
14863TIP3    H266005   5.062   3.540  13.727 -0.7390 -1.1569  0.8849
14864TIP3   OH266006   2.581   2.407  14.618 -0.1547 -0.3605 -0.3058
14864TIP3    H166007   2.567   2.497  14.648  0.9609 -1.1617  3.0275
14864TIP3    H266008   2.672   2.406  14.587 -1.0124  0.2222 -3.1896
14865TIP3   OH266009   1.615   5.565   4.338 -0.4370  0.0958  0.1700
14865TIP3    H166010   1.590   5.549   4.247 -1.1531 -1.8400  0.6414
14865TIP3    H266011   1.581   5.652   4.358  2.4801  2.0046 -2.2940
14866TIP3   OH266012   0.505   0.942   4.155 -0.5209 -0.3988 -0.1629
14866TIP3    H166013   0.600   0.954   4.149 -0.5286 -0.0913  0.2747
14866TIP3    H266014   0.468   1.021   4.115 -0.5800  0.0712  0.7805
14867TIP3   OH266015   5.278   6.405  15.091  0.0327  0.1734 -0.2610
14867TIP3    H166016   5.286   6.456  15.010  0.9857 -1.1247 -1.0297
14867TIP3    H266017   5.292   6.468  15.161  0.7814  1.0511 -1.1711
14868TIP3   OH266018   2.926   1.088   2.954 -0.0794  0.3487  0.1694
14868TIP3    H166019   2.907   1.064   3.045 -0.1860 -0.1139  0.0300
14868TIP3    H266020   2.982   1.165   2.960  1.9979 -1.1012  0.7052
14869TIP3   OH266021   1.809   4.994   2.755 -0.2161  0.2595  0.1857
14869TIP3    H166022   1.726   4.969   2.715 -0.1527  0.9817 -0.3999
14869TIP3    H266023   1.859   5.034   2.684  0.6362 -0.1610  0.5341
14870TIP3   OH266024   2.468   5.238  13.855  0.0328  0.2286  0.8223
14870TIP3    H166025   2.458   5.296  13.930  0.4989 -1.2200  2.0324
14870TIP3    H266026   2.390   5.184  13.855  0.9953 -1.2102  1.5586
14871TIP3   OH266027   0.463   2.830   2.643  0.1765  0.1526 -0.0643
14871TIP3    H166028   0.514   2.863   2.569  0.0537  1.7798  0.5336
14871TIP3    H266029   0.419   2.908   2.679 -1.4715 -0.9407  0.4134
14872TIP3   OH266030   0.856   3.588  11.644  0.4661 -0.7308 -0.5385
14872TIP3    H166031   0.763   3.569  11.648  0.0584  1.1223 -0.1419
14872TIP3    H266032   0.876   3.591  11.550 -0.2076  0.1744 -0.6714
14873TIP3   OH266033   2.532   4.727  14.628 -0.0419  0.1840  0.0249
14873TIP3    H166034   2.623   4.757  14.621  0.3838 -1.0449  0.0808
14873TIP3    H266035   2.521   4.707  14.721  0.2539 -1.4814 -0.2646
14874TIP3   OH266036   3.276   1.213  12.781  0.2214 -0.5120  0.0170
14874TIP3    H166037   3.294   1.280  12.715  0.5658 -0.3953  0.2240
14874TIP3    H266038   3.217   1.256  12.844 -0.6360 -0.8269 -0.5481
14875TIP3   OH266039   6.639   3.849   4.301  0.0421  0.8444  0.2039
14875TIP3    H166040   6.670   3.931   4.262 -1.5990  0.4113 -2.2601
14875TIP3    H266041   6.572   3.876   4.364 -0.3087  1.4207 -0.4007
14876TIP3   OH266042   1.682   0.640   5.454  0.2085 -0.9658  0.1215
14876TIP3    H166043   1.610   0.585   5.483  1.0165 -1.3912  1.4047
14876TIP3    H266044   1.685   0.712   5.517 -0.4394  0.2542 -1.1790
14877TIP3   OH266045   5.295   4.401  13.206  0.3299  0.4261  0.3180
14877TIP3    H166046   5.291   4.466  13.277  0.8547  0.8889 -0.0684
14877TIP3    H266047   5.244   4.440  13.135  0.0721  0.1067  0.3277
14878TIP3   OH266048   1.827   5.678  14.605 -0.0312 -0.3778  0.2657
14878TIP3    H166049   1.797   5.606  14.660 -0.5173 -0.1931  0.2471
14878TIP3    H266050   1.760   5.745  14.615  0.5086  0.1462  0.4222
14879TIP3   OH266051   5.455   1.044   1.109  0.2163 -0.1524  0.3765
14879TIP3    H166052   5.476   1.131   1.075  0.2997 -0.7273 -1.1489
14879TIP3    H266053   5.533   0.992   1.091  0.0505 -0.6171  0.9849
14880TIP3   OH266054   5.264   1.833   1.844 -0.3675  0.1844 -0.3050
14880TIP3    H166055   5.222   1.755   1.880 -0.8253  0.1993 -0.7894
14880TIP3    H266056   5.288   1.808   1.755 -1.2366  0.8452 -0.7340
14881TIP3   OH266057   2.856   4.183   0.334 -0.0376  0.6789 -0.0881
14881TIP3    H166058   2.919   4.166   0.404  1.0663  0.9053 -0.9935
14881TIP3    H266059   2.893   4.257   0.285 -1.0189  0.8336 -0.6311
14882TIP3   OH266060   6.131   0.313   4.879 -0.2896  0.0727  0.8890
14882TIP3    H166061   6.043   0.346   4.899 -1.1992 -0.8371 -1.2936
14882TIP3    H266062   6.118   0.219   4.865  0.5179  0.2836 -1.8192
14883TIP3   OH266063   2.678   0.397  16.269 -0.3445 -0.7875  0.8855
14883TIP3    H166064   2.712   0.457  16.336 -1.3009  0.1917  0.5357
14883TIP3    H266065   2.688   0.444  16.187  0.0413 -1.6353  0.4366
14884TIP3   OH266066   3.292   3.047   2.951 -0.6765  0.1257  0.1778
14884TIP3    H166067   3.365   3.067   2.893  0.1516  0.4905  1.3169
14884TIP3    H266068   3.225   3.111   2.928  0.2518  1.3328  0.6961
14885TIP3   OH266069   1.180   3.390  12.904 -0.2078  0.3236 -0.4107
14885TIP3    H166070   1.163   3.313  12.960  0.1061  0.1908 -0.4998
14885TIP3    H266071   1.181   3.355  12.815  0.4192  0.3499 -0.4172
14886TIP3   OH266072   4.569   4.467   2.151  0.2395  0.2476 -0.1223
14886TIP3    H166073   4.476   4.461   2.130  0.3416 -2.3237 -0.1390
14886TIP3    H266074   4.571   4.494   2.243 -0.5768 -0.2510  0.0519
14887TIP3   OH266075   2.456   4.686  15.352  0.0954 -0.3562  0.0423
14887TIP3    H166076   2.469   4.599  15.388 -0.8741 -0.7108 -0.4362
14887TIP3    H266077   2.471   4.745  15.426 -1.2909 -1.0350  0.8923
14888TIP3   OH266078   5.432   3.416   3.902 -0.0757 -0.7297  0.0631
14888TIP3    H166079   5.396   3.479   3.840 -0.5472  1.3956  2.3231
14888TIP3    H266080   5.518   3.392   3.866  0.3814  1.7021 -0.6021
14889TIP3   OH266081   5.192   2.035  13.872  0.7571 -0.2444 -0.4017
14889TIP3    H166082   5.235   2.004  13.792 -0.2635 -0.2537 -0.9628
14889TIP3    H266083   5.166   1.956  13.918  1.1393 -0.2371 -0.1703
14890TIP3   OH266084   6.551   3.864  16.691  0.1048  0.4316 -0.2745
14890TIP3    H166085   6.504   3.946  16.676 -1.7022 -0.7777 -1.6374
14890TIP3    H266086   6.530   3.840  16.781 -0.7420  0.6329 -0.4128
14891TIP3   OH266087   6.631   1.851  16.237  0.2956 -0.6327 -0.4372
14891TIP3    H166088   6.697   1.849  16.168 -1.3299 -0.0585 -2.0813
14891TIP3    H266089   6.643   1.937  16.279 -0.1462  0.0011 -1.5492
14892TIP3   OH266090   0.372   0.561  12.006  0.3174 -0.3704 -0.3780
14892TIP3    H166091   0.422   0.574  11.925  3.4597 -0.3783  1.3974
14892TIP3    H266092   0.411   0.484  12.046 -1.0047 -0.2424  1.2752
14893TIP3   OH266093   6.054   6.171   5.032  0.4846 -0.4044  0.1876
14893TIP3    H166094   6.008   6.233   5.089  0.8418 -0.9254  1.0698
14893TIP3    H266095   6.070   6.094   5.088  2.1776 -0.3480 -0.1611
14894TIP3   OH266096   3.983   1.179   5.349  0.1168  0.1844 -0.0679
14894TIP3    H166097   4.075   1.207   5.342  0.3152 -0.3758  0.2573
14894TIP3    H266098   3.933   1.254   5.315  0.6848  0.5497 -0.1196
14895TIP3   OH266099   5.145   0.905   3.146 -0.5071  0.2230 -0.1902
14895TIP3    H166100   5.063   0.855   3.145 -0.7003  0.5266  0.1919
14895TIP3    H266101   5.146   0.948   3.231  1.7570 -2.5105  1.3391
14896TIP3   OH266102   0.767   2.934  12.411  0.4519  0.4614 -0.3538
14896TIP3    H166103   0.808   2.948  12.326  0.5870 -0.3454 -0.4315
14896TIP3    H266104   0.831   2.881  12.459 -0.5788 -1.0231 -0.5533
14897TIP3   OH266105   1.363   3.892  12.120  0.3478  0.3271  0.2306
14897TIP3    H166106   1.283   3.843  12.105  0.5861  0.2157 -0.7078
14897TIP3    H266107   1.387   3.871  12.210 -0.0084 -0.6111  0.1170
14898TIP3   OH266108   2.380   4.369  12.404  0.2963 -0.3243 -0.0739
14898TIP3    H166109   2.476   4.365  12.402  0.4748  0.3507  2.7989
14898TIP3    H266110   2.352   4.312  12.333  2.8047  1.1735 -2.4706
14899TIP3   OH266111   3.277   0.359   0.790  0.0869  0.1310 -0.2453
14899TIP3    H166112   3.362   0.353   0.747 -0.3281 -0.0172 -1.0682
14899TIP3    H266113   3.255   0.452   0.788 -1.1938 -0.1291 -2.9503
14900TIP3   OH266114   3.037   0.283  12.940  0.4530 -0.6047  0.0384
14900TIP3    H166115   3.102   0.212  12.940 -0.0501 -1.1162  1.8465
14900TIP3    H266116   3.069   0.344  12.874  2.1404 -1.4181  0.0394
14901TIP3   OH266117   1.660   3.787  15.843 -0.3101  0.4303 -0.2428
14901TIP3    H166118   1.727   3.720  15.853 -0.1707  0.2145 -2.2260
14901TIP3    H266119   1.638   3.785  15.750 -2.2723  1.2644  0.1534
14902TIP3   OH266120   1.646   3.005   5.443 -0.7465 -0.3130 -0.2869
14902TIP3    H166121   1.657   3.038   5.532 -0.4393 -2.1005  0.3722
14902TIP3    H266122   1.639   2.911   5.453 -0.5925 -0.5632 -2.1880
14903TIP3   OH266123   3.749   4.596  14.315  0.2989 -0.2743 -0.0436
14903TIP3    H166124   3.692   4.668  14.340 -0.0460 -0.8853  1.0104
14903TIP3    H266125   3.741   4.590  14.220  0.4039  1.1153 -0.1645
14904TIP3   OH266126   4.613   0.108   3.362 -0.5889  0.5203 -0.0209
14904TIP3    H166127   4.552   0.052   3.410 -0.9604 -1.0404 -2.1728
14904TIP3    H266128   4.604   0.194   3.404 -0.7796 -0.7127  2.7028
14905TIP3   OH266129   1.167   1.105   2.425 -0.4317 -0.1790 -0.2353
14905TIP3    H166130   1.151   1.022   2.469  0.8362 -1.5217 -2.1846
14905TIP3    H266131   1.098   1.111   2.359 -2.2984  1.8074  1.7118
14906TIP3   OH266132   6.325   3.427   5.517 -0.2836 -0.1714 -0.1969
14906TIP3    H166133   6.368   3.508   5.493 -0.5784 -0.1711 -0.7410
14906TIP3    H266134   6.231   3.448   5.515 -0.3667 -0.5504 -0.4480
14907TIP3   OH266135   2.612   1.610  16.147  0.2619  0.1669  0.2061
14907TIP3    H166136   2.587   1.564  16.227 -0.8764  1.4882  0.6476
14907TIP3    H266137   2.531   1.652  16.117  1.1204  1.4013 -0.4766
14908TIP3   OH266138   1.708   1.890  13.794 -0.1513  0.1768 -0.1308
14908TIP3    H166139   1.744   1.977  13.813 -0.7787  0.3918  0.1235
14908TIP3    H266140   1.714   1.843  13.877  3.0761 -1.1321 -0.9856
14909TIP3   OH266141   1.885   4.193   2.862 -0.3281 -0.0457 -0.6414
14909TIP3    H166142   1.933   4.218   2.782  0.5367  1.0090  0.1757
14909TIP3    H266143   1.821   4.262   2.874 -0.7244 -0.4127 -0.6293
14910TIP3   OH266144   4.841   0.194  17.102 -0.5147 -0.0946 -0.1026
14910TIP3    H166145   4.881   0.176  17.016 -0.6819 -2.5546  0.2597
14910TIP3    H266146   4.855   0.114  17.152  2.2391  2.2054  3.2978
14911TIP3   OH266147   0.537   2.448   5.639  0.0186  0.3679 -0.1987
14911TIP3    H166148   0.456   2.497   5.624 -0.3266 -0.5022 -1.3056
14911TIP3    H266149   0.512   2.356   5.630  0.6203 -0.0718  2.0099
14912TIP3   OH266150   2.878   6.438   0.925 -0.2618  0.1483 -0.1651
14912TIP3    H166151   2.848   6.428   0.835  0.2932  1.4581 -0.5217
14912TIP3    H266152   2.972   6.454   0.918 -0.3330  0.9705  0.5822
14913TIP3   OH266153   4.807   5.853  14.260  0.0381 -0.0206  0.2307
14913TIP3    H166154   4.835   5.898  14.180  1.2273 -0.4106  0.4121
14913TIP3    H266155   4.828   5.761  14.245  1.1075  0.0172  1.3254
14914TIP3   OH266156   4.441   5.544   4.462  0.1599  0.7343 -0.2048
14914TIP3    H166157   4.402   5.478   4.403  0.9923  0.9320 -0.9950
14914TIP3    H266158   4.487   5.492   4.528 -0.8117  0.5085  0.3200
14915TIP3   OH266159   4.790   6.721  15.768  0.1178  0.0290  0.3776
14915TIP3    H166160   4.837   6.637  15.768  0.2693  0.0878  1.8525
14915TIP3    H266161   4.714   6.705  15.824  0.3907  0.9952  1.0395
14916TIP3   OH266162   3.139   3.179  11.594  0.0037 -1.1062  0.5941
14916TIP3    H166163   3.066   3.163  11.655  0.2951 -1.6217  0.8081
14916TIP3    H266164   3.096   3.190  11.509 -0.6307  1.7464  1.1552
14917TIP3   OH266165   0.686   5.072  15.445 -0.6653 -0.2673 -0.0777
14917TIP3    H166166   0.656   4.981  15.449 -1.1554 -0.1068 -0.0346
14917TIP3    H266167   0.671   5.098  15.354  3.5550 -1.5782 -1.3631
14918TIP3   OH266168   4.030   1.885  14.427 -0.3009 -0.2055 -0.7242
14918TIP3    H166169   4.079   1.809  14.394 -1.8779 -1.1038 -1.0987
14918TIP3    H266170   3.977   1.913  14.353  0.8807  1.8454 -0.8485
14919TIP3   OH266171   4.684   3.929   4.030 -0.0973  0.1789 -0.0868
14919TIP3    H166172   4.601   3.919   4.075  0.5008 -0.2475  0.9515
14919TIP3    H266173   4.706   3.840   4.000 -0.2443  0.3726 -0.7922
14920TIP3   OH266174   3.669   0.100   0.027 -0.3606 -0.7145 -0.5275
14920TIP3    H166175   3.729   0.145   0.086 -0.9940 -0.1869 -0.2663
14920TIP3    H266176   3.719   0.027  -0.008  0.0442 -0.9992  0.6112
14921TIP3   OH266177   4.379   6.290  13.864  0.1990 -0.2926 -0.4398
14921TIP3    H166178   4.435   6.355  13.822 -1.1436  0.2705 -1.4537
14921TIP3    H266179   4.314   6.342  13.911  0.7507 -0.9284  1.1022
14922TIP3   OH266180   3.053   3.898  13.066 -0.0289 -0.0238 -1.0070
14922TIP3    H166181   3.025   3.828  13.126 -1.0122 -0.3487 -1.8301
14922TIP3    H266182   3.130   3.862  13.021  1.1143  0.4563  0.4639
14923TIP3   OH266183   4.212   0.105   0.807 -0.1831  0.8131 -0.0673
14923TIP3    H166184   4.202   0.166   0.734 -2.0845 -0.5201 -1.0235
14923TIP3    H266185   4.123   0.084   0.833  0.4482  0.0629  1.6409
14924TIP3   OH266186   4.114   3.705   4.115  0.2790 -0.3486  0.6434
14924TIP3    H166187   4.041   3.684   4.058 -1.9123  0.7698  2.8496
14924TIP3    H266188   4.181   3.740   4.057 -1.1993 -0.7435 -1.3926
14925TIP3   OH266189   2.126   5.988   1.363  0.6462 -0.1698 -0.4050
14925TIP3    H166190   2.066   5.943   1.303 -0.6665  0.8998  0.0500
14925TIP3    H266191   2.208   5.994   1.314  0.3628 -1.5455 -1.1112
14926TIP3   OH266192   4.075   5.722  11.254 -0.2347  0.1686  0.3175
14926TIP3    H166193   4.092   5.741  11.161 -1.2692 -0.4678 -0.0246
14926TIP3    H266194   3.980   5.719  11.260 -0.1913 -2.0191  0.9130
14927TIP3   OH266195   1.807   2.269   2.398 -0.1067 -0.4356 -0.4053
14927TIP3    H166196   1.750   2.194   2.382  0.5016 -1.1930  0.8382
14927TIP3    H266197   1.865   2.272   2.322  1.6751 -2.9536  0.6962
14928TIP3   OH266198   3.807   0.163  10.913 -0.1316 -0.6233 -0.0641
14928TIP3    H166199   3.873   0.163  10.983 -0.5144  0.9626  0.3425
14928TIP3    H266200   3.846   0.215  10.843 -0.3953 -0.8500 -0.3815
14929TIP3   OH266201   1.947   1.225   6.502 -0.4060 -0.0582 -0.6334
14929TIP3    H166202   1.861   1.203   6.539  0.2887  1.2954  2.0212
14929TIP3    H266203   2.005   1.156   6.536  0.1721  0.9895  0.5748
14930TIP3   OH266204   5.931   0.263  12.640  0.2054 -0.7416  0.0160
14930TIP3    H166205   5.899   0.286  12.727 -0.9147 -3.5863  0.4516
14930TIP3    H266206   6.017   0.224  12.656  0.5662 -0.0954 -0.3155
14931TIP3   OH266207   0.446   0.231   6.521  0.1530 -0.0049  0.5117
14931TIP3    H166208   0.487   0.182   6.450 -0.2425 -0.0331  0.3022
14931TIP3    H266209   0.499   0.210   6.598 -1.1555 -2.3749  0.8535
14932TIP3   OH266210   4.939   4.821  16.473  0.0054 -0.4596 -0.4923
14932TIP3    H166211   4.908   4.890  16.532  1.3395 -0.8904  0.7825
14932TIP3    H266212   4.946   4.863  16.388  0.6583  0.9635  0.2242
14933TIP3   OH266213   2.825   2.376   2.225 -0.3453 -0.1305  0.2694
14933TIP3    H166214   2.848   2.291   2.262 -0.5829  0.0954  0.9514
14933TIP3    H266215   2.899   2.432   2.246  0.2718 -0.4135 -1.0708
14934TIP3   OH266216   1.186   0.666   0.354 -0.1187  0.0732 -0.0504
14934TIP3    H166217   1.275   0.649   0.321 -0.6839 -1.4158 -0.8802
14934TIP3    H266218   1.154   0.738   0.300  0.5314  0.5333  0.1649
14935TIP3   OH266219   6.175   0.073   5.400 -0.2444  1.2898 -0.4054
14935TIP3    H166220   6.265   0.066   5.368 -0.0586  0.6576  0.2269
14935TIP3    H266221   6.169   0.008   5.470 -1.7438  0.0412 -1.6317
14936TIP3   OH266222   0.406   0.077  14.254  0.4672  0.3988 -1.2352
14936TIP3    H166223   0.391   0.118  14.339  1.8424 -1.4692  0.0123
14936TIP3    H266224   0.331   0.019  14.241 -0.6375  1.9699 -2.2054
14937TIP3   OH266225   0.353   0.870   3.407 -0.1796  0.4062 -0.2830
14937TIP3    H166226   0.378   0.837   3.321  0.0961  1.4842 -0.6417
14937TIP3    H266227   0.298   0.802   3.444 -0.2554 -0.1045 -1.2900
14938TIP3   OH266228   3.752   2.958   0.748 -0.1215 -0.7363 -0.2808
14938TIP3    H166229   3.845   2.938   0.735 -0.4934 -1.6419 -1.8858
14938TIP3    H266230   3.744   3.049   0.721  0.4417 -0.3787  0.7133
14939TIP3   OH266231   3.131   5.666   2.363 -0.0355 -0.4258  0.0525
14939TIP3    H166232   3.128   5.611   2.285  1.0670  0.4862 -0.6560
14939TIP3    H266233   3.208   5.722   2.351 -0.5190  0.5495  1.2385
14940TIP3   OH266234   5.752   5.367  15.073 -0.7537 -0.1932 -0.0844
14940TIP3    H166235   5.759   5.411  15.158 -0.3288 -0.6357  0.1172
14940TIP3    H266236   5.662   5.336  15.069 -0.2745 -1.8991  1.0936
14941TIP3   OH266237   5.454   2.406   0.743  0.1850  0.3040 -0.2459
14941TIP3    H166238   5.444   2.357   0.824 -2.4515 -1.0307 -1.2670
14941TIP3    H266239   5.540   2.379   0.709  0.6982 -0.2024  1.3534
14942TIP3   OH266240   2.507   0.387   5.892 -0.1066  0.2930 -0.7642
14942TIP3    H166241   2.510   0.331   5.970 -0.9084 -0.0755 -0.9828
14942TIP3    H266242   2.587   0.365   5.843 -0.2753 -0.4779 -0.7127
14943TIP3   OH266243   2.122   6.445  15.383 -0.1127  0.0688 -0.1681
14943TIP3    H166244   2.170   6.522  15.412 -1.7887  1.8039 -1.7093
14943TIP3    H266245   2.044   6.480  15.341 -1.2153 -2.5160 -0.4573
14944TIP3   OH266246   1.358   0.983   3.920  0.3690 -0.3503 -0.4265
14944TIP3    H166247   1.390   1.046   3.856 -0.2543 -1.1303 -1.5715
14944TIP3    H266248   1.428   0.975   3.984  1.5106 -0.3609 -1.6306
14945TIP3   OH266249   6.063   5.511   1.301  0.0885  0.3025  0.3564
14945TIP3    H166250   6.134   5.573   1.286 -0.8277  1.0930 -1.0135
14945TIP3    H266251   6.093   5.429   1.261  0.6560  0.3274  0.7320
14946TIP3   OH266252   3.225   1.760  13.836  0.2187 -0.0800 -0.2468
14946TIP3    H166253   3.148   1.804  13.800 -0.5854  0.5450  2.0414
14946TIP3    H266254   3.293   1.828  13.839 -0.0901  0.2021  0.5046
14947TIP3   OH266255   3.379   5.784  17.196  0.3990  0.9494  0.1507
14947TIP3    H166256   3.428   5.753  17.119 -0.3889 -1.0814  0.4019
14947TIP3    H266257   3.319   5.849  17.160 -0.7157 -0.7248 -1.2343
14948TIP3   OH266258   5.183   4.191  11.555 -0.4581  0.3966 -0.0912
14948TIP3    H166259   5.168   4.226  11.468 -3.0389  1.0242  0.5218
14948TIP3    H266260   5.216   4.102  11.540 -0.7856  0.5195 -1.7104
14949TIP3   OH266261   2.027   4.040  11.431  0.3046 -0.3367 -0.6201
14949TIP3    H166262   2.088   4.046  11.358 -0.0154 -1.2725 -0.9781
14949TIP3    H266263   1.982   3.957  11.418 -0.1509 -0.2544  0.3385
14950TIP3   OH266264   4.141   5.423   1.944  0.0362 -0.3830 -0.3236
14950TIP3    H166265   4.073   5.436   2.010 -3.1011 -1.8238 -2.9823
14950TIP3    H266266   4.134   5.500   1.887 -1.5171 -1.7932 -2.1988
14951TIP3   OH266267   3.021   0.042  13.732 -0.0134 -0.2222  0.5853
14951TIP3    H166268   2.999  -0.046  13.700  1.0845  0.3615 -2.0544
14951TIP3    H266269   2.938   0.079  13.761 -1.0702 -1.0822 -1.1462
14952TIP3   OH266270   0.454   1.398   2.490 -0.5748 -0.0995  0.3195
14952TIP3    H166271   0.395   1.379   2.563 -1.4015 -0.9499 -0.5508
14952TIP3    H266272   0.396   1.406   2.414  0.2204  1.2669 -0.1718
14953TIP3   OH266273   4.123   4.787  15.926 -0.3051  0.6377 -0.0349
14953TIP3    H166274   4.216   4.764  15.930 -0.6356 -0.6165  2.1404
14953TIP3    H266275   4.113   4.860  15.987 -0.1536  3.5422 -3.2252
14954TIP3   OH266276   6.737   4.374  11.735  0.2359  0.1412  0.1661
14954TIP3    H166277   6.740   4.445  11.799  0.9109 -0.0904  0.3937
14954TIP3    H266278   6.674   4.312  11.772 -1.5488  1.2951 -0.7645
14955TIP3   OH266279   0.381   2.704  15.882  0.3078  0.0387  0.4374
14955TIP3    H166280   0.464   2.676  15.921  0.7030  0.3108 -0.1977
14955TIP3    H266281   0.319   2.705  15.955  0.4314 -1.8324  0.6106
14956TIP3   OH266282   5.212   1.536  16.462 -0.2773 -0.1211  0.8327
14956TIP3    H166283   5.290   1.509  16.510 -0.5355 -0.5831  1.0067
14956TIP3    H266284   5.193   1.462  16.404  0.0092  0.4195  0.0394
14957TIP3   OH266285   5.510   5.008  15.501 -0.0917  0.1984 -0.0448
14957TIP3    H166286   5.461   5.088  15.483  0.4989  0.5376 -0.1581
14957TIP3    H266287   5.553   4.987  15.418  1.0793  0.6820  0.4191
14958TIP3   OH266288   3.945   0.316   2.578  0.4414  0.0129 -0.0982
14958TIP3    H166289   3.920   0.403   2.609  0.7275  0.2557 -0.5431
14958TIP3    H266290   4.023   0.331   2.525 -0.2928 -0.3319 -1.3162
14959TIP3   OH266291   3.097   0.925   3.241 -0.7764 -0.3426 -0.3193
14959TIP3    H166292   3.129   0.853   3.187  1.3143  0.8707 -0.8094
14959TIP3    H266293   3.136   1.003   3.202  1.5156  0.5553  3.2752
14960TIP3   OH266294   1.017   5.245   4.590 -0.0756  0.1936  0.1114
14960TIP3    H166295   0.979   5.318   4.542  0.5395  0.3185 -0.1927
14960TIP3    H266296   1.027   5.176   4.525  0.6879  0.3369  0.0753
14961TIP3   OH266297   6.471   4.364   3.278  0.0345 -0.0625 -0.3207
14961TIP3    H166298   6.403   4.382   3.213 -0.2665  0.1707  0.0496
14961TIP3    H266299   6.542   4.324   3.228 -0.5124 -0.6325 -0.6556
14962TIP3   OH266300   6.288   4.412   4.537 -0.0820  0.0354 -0.1721
14962TIP3    H166301   6.370   4.459   4.522  0.4190 -0.3793  1.1292
14962TIP3    H266302   6.248   4.457   4.611 -2.2553  1.7481 -2.2457
14963TIP3   OH266303   2.397   2.486   0.511  0.2849 -0.0393  0.7480
14963TIP3    H166304   2.345   2.472   0.432 -0.3951 -1.0563  1.3583
14963TIP3    H266305   2.486   2.501   0.479  0.3593 -2.0792 -0.1616
14964TIP3   OH266306   1.037   1.692  16.704  0.2992 -0.0655  0.1494
14964TIP3    H166307   1.101   1.705  16.774 -0.4811  3.0214  0.4380
14964TIP3    H266308   0.952   1.695  16.749 -0.1522 -1.2150 -0.5816
14965TIP3   OH266309   3.074   4.361  13.232 -0.2617 -0.1615 -0.6282
14965TIP3    H166310   3.002   4.299  13.218 -2.2693  1.5653  1.2915
14965TIP3    H266311   3.039   4.446  13.207  0.6920  0.8917  1.3406
14966TIP3   OH266312   0.222   0.402  14.426 -0.2914  0.3832  0.1487
14966TIP3    H166313   0.176   0.430  14.347 -1.6111  0.7622  1.0200
14966TIP3    H266314   0.161   0.419  14.497  1.1346  0.7122  1.3510
14967TIP3   OH266315   2.362   0.417  14.164  0.7065 -0.3000  0.1753
14967TIP3    H166316   2.392   0.488  14.107 -1.9941  1.1115  0.3231
14967TIP3    H266317   2.438   0.396  14.218  1.7482  2.2226 -0.1707
14968TIP3   OH266318   0.452   1.028  12.639  0.0024  0.1885 -0.0624
14968TIP3    H166319   0.471   1.022  12.545 -2.7080  2.2700 -0.8903
14968TIP3    H266320   0.421   0.940  12.663  0.0711 -0.2016 -1.3160
14969TIP3   OH266321   6.524   1.784  11.030  0.6964  0.6236  0.1090
14969TIP3    H166322   6.585   1.714  11.053  1.2062  1.6471  2.1296
14969TIP3    H266323   6.459   1.784  11.100 -0.1558  1.2133 -0.6567
14970TIP3   OH266324   6.544   1.205  15.691  0.3177 -0.1076 -0.1847
14970TIP3    H166325   6.494   1.228  15.770 -0.0706 -1.1801 -0.1065
14970TIP3    H266326   6.488   1.145  15.644  0.5259  0.5694 -1.3313
14971TIP3   OH266327   1.769   4.832   4.857 -0.7035  0.0484 -0.0865
14971TIP3    H166328   1.777   4.813   4.764  1.9522  1.1456 -0.1424
14971TIP3    H266329   1.774   4.746   4.899  0.5775 -0.2659 -0.8446
14972TIP3   OH266330   3.493   3.619  14.263 -0.2677 -0.1097 -0.1911
14972TIP3    H166331   3.437   3.545  14.288  0.3789 -0.1439  1.3057
14972TIP3    H266332   3.467   3.640  14.174 -0.5728 -2.0463 -0.6104
14973TIP3   OH266333   1.010   3.056  10.488  0.8042 -0.6197 -0.4776
14973TIP3    H166334   0.915   3.070  10.497  1.1267  0.5523  1.7998
14973TIP3    H266335   1.045   3.144  10.471  1.6066 -0.7889  0.2320
14974TIP3   OH266336   1.047   4.490  12.107  0.4810  0.6043 -0.2165
14974TIP3    H166337   1.086   4.403  12.107  0.3049  0.5213  0.5959
14974TIP3    H266338   1.086   4.534  12.031 -1.7265 -1.2055 -2.5901
14975TIP3   OH266339   2.227   6.030   1.873  0.8385  0.1745  0.1089
14975TIP3    H166340   2.221   5.953   1.929 -0.7160 -0.4863 -0.9082
14975TIP3    H266341   2.206   5.998   1.786  1.7255  1.4726 -0.6228
14976TIP3   OH266342   1.191   0.576   1.510 -0.1968  0.4831 -0.5805
14976TIP3    H166343   1.280   0.600   1.537 -0.3295  0.6525 -0.2882
14976TIP3    H266344   1.203   0.519   1.434  0.2274 -0.9452  0.5097
14977TIP3   OH266345   6.139   6.432  12.119 -0.2287 -0.1160 -0.2370
14977TIP3    H166346   6.105   6.521  12.122  0.1527  0.0107  1.4827
14977TIP3    H266347   6.096   6.392  12.044  1.4896  2.2420 -2.6692
14978TIP3   OH266348   2.688   4.550   4.274 -0.5340 -0.4859 -0.2943
14978TIP3    H166349   2.671   4.489   4.202 -2.4999 -0.6529  0.2567
14978TIP3    H266350   2.675   4.498   4.353  1.1301 -0.1783  0.2282
14979TIP3   OH266351   3.711   4.473   3.757  0.1596 -0.4628  0.2128
14979TIP3    H166352   3.657   4.404   3.719  0.7297 -0.6434 -0.2899
14979TIP3    H266353   3.725   4.534   3.685 -0.8304  0.4998  0.8013
14980TIP3   OH266354   6.555   0.703  14.996 -0.4050  0.0127 -0.6096
14980TIP3    H166355   6.611   0.747  15.060 -1.1982 -0.0664  0.1585
14980TIP3    H266356   6.504   0.774  14.956 -0.7383 -0.0639 -0.3211
14981TIP3   OH266357   5.048   5.526  12.118  0.5929  0.5477 -0.3823
14981TIP3    H166358   5.050   5.435  12.090  0.5267  0.5656 -0.4449
14981TIP3    H266359   4.961   5.538  12.157 -0.5506  1.3594 -2.9707
14982TIP3   OH266360   0.473   3.066  15.872  0.5439  0.9309 -0.2500
14982TIP3    H166361   0.487   3.027  15.959  0.7030 -0.0970 -0.7203
14982TIP3    H266362   0.474   2.991  15.812 -1.5907  1.3835 -0.9292
14983TIP3   OH266363   0.227   5.012   4.392  0.1704 -0.3476 -0.1629
14983TIP3    H166364   0.320   5.006   4.414  0.3889 -0.7529 -1.1452
14983TIP3    H266365   0.191   5.075   4.456  1.0661 -0.3512  0.3568
14984TIP3   OH266366   1.032   6.554   4.093 -0.5310 -0.2175 -0.4296
14984TIP3    H166367   0.966   6.609   4.052  0.3205 -0.3385 -2.0363
14984TIP3    H266368   1.073   6.507   4.021  0.0927 -1.5030  0.7080
14985TIP3   OH266369   3.421   2.775   5.224  0.1198 -0.0848 -0.2041
14985TIP3    H166370   3.473   2.764   5.144  0.5717 -0.2862  0.1165
14985TIP3    H266371   3.480   2.820   5.285 -0.5283  0.9136 -0.2905
14986TIP3   OH266372   6.699   3.917   1.630 -0.4919  0.1536  0.2981
14986TIP3    H166373   6.615   3.923   1.586 -1.8863  0.5335  2.7974
14986TIP3    H266374   6.680   3.941   1.721  2.4061  0.6740  0.8741
14987TIP3   OH266375   4.665   6.284  16.955 -0.1735  0.0200 -0.5187
14987TIP3    H166376   4.667   6.369  16.913 -1.0834 -0.5715 -1.8177
14987TIP3    H266377   4.672   6.221  16.883  1.7185 -1.0331  0.4773
14988TIP3   OH266378   4.713   4.993  13.827 -0.0277 -0.3003 -0.6149
14988TIP3    H166379   4.709   4.912  13.777  1.3250  0.0723 -1.3864
14988TIP3    H266380   4.732   5.061  13.762 -1.4881  0.7101 -0.0406
14989TIP3   OH266381   6.650   2.372  13.017 -0.6977 -0.3874 -0.4337
14989TIP3    H166382   6.593   2.352  13.091 -0.8879  0.2266 -0.4092
14989TIP3    H266383   6.738   2.374  13.054 -0.4979 -2.4707 -0.6785
14990TIP3   OH266384   3.807   4.610   0.931 -0.7114  0.2085  0.5839
14990TIP3    H166385   3.713   4.628   0.939 -0.7396  1.9214 -2.1787
14990TIP3    H266386   3.812   4.515   0.924 -2.2579  0.0849  0.6986
14991TIP3   OH266387   0.806   3.984   0.166 -0.1513  1.1375 -0.5423
14991TIP3    H166388   0.814   4.012   0.075  0.0829 -0.2748 -0.9759
14991TIP3    H266389   0.781   4.063   0.214 -0.5811  1.8251 -1.8745
14992TIP3   OH266390   4.824   4.890  11.022  0.1561  0.4959 -0.5703
14992TIP3    H166391   4.830   4.978  10.985 -2.5086  1.2260  0.4780
14992TIP3    H266392   4.845   4.901  11.115 -1.8540  0.4474 -0.0523
14993TIP3   OH266393   2.938   4.850   0.995  0.6188  0.2469 -0.1280
14993TIP3    H166394   2.887   4.913   1.045  0.7077  0.2469 -0.0361
14993TIP3    H266395   2.877   4.814   0.931  0.2260 -0.5083  0.6511
14994TIP3   OH266396   1.282   6.406   5.140  0.5130  0.7123  0.0107
14994TIP3    H166397   1.189   6.429   5.151 -0.1496 -1.3380 -0.7066
14994TIP3    H266398   1.329   6.488   5.153 -1.4760  2.0261 -0.6083
14995TIP3   OH266399   1.126   2.023  11.279 -0.3251 -0.3790  0.3039
14995TIP3    H166400   1.219   2.034  11.297 -0.4377  0.2885  0.4854
14995TIP3    H266401   1.092   2.112  11.266 -0.3431 -0.7094 -2.8102
14996TIP3   OH266402   0.889   3.497   2.940 -0.0360 -0.0434  0.1341
14996TIP3    H166403   0.814   3.510   2.882 -0.5838 -0.5890  0.6989
14996TIP3    H266404   0.900   3.402   2.945  0.7711  0.0347 -0.0314
14997TIP3   OH266405   4.179   3.481   3.451 -0.1087 -0.1205  0.7561
14997TIP3    H166406   4.090   3.500   3.424  0.1596  1.3197  0.8351
14997TIP3    H266407   4.170   3.434   3.534 -0.8017 -0.7674  0.3245
14998TIP3   OH266408   6.651   6.730   1.326 -0.1588 -0.1579  0.1123
14998TIP3    H166409   6.655   6.759   1.235 -0.1479 -0.5185 -0.0030
14998TIP3    H266410   6.680   6.806   1.377 -0.1683  0.0447 -0.1840
14999TIP3   OH266411   2.796   0.180  12.212  0.4815 -0.0801  0.9103
14999TIP3    H166412   2.709   0.149  12.189 -0.5688  2.5899  0.9175
14999TIP3    H266413   2.793   0.190  12.308  1.3282 -1.3604  1.0928
15000TIP3   OH266414   2.830   6.381   4.139  0.5667  0.7118 -0.5998
15000TIP3    H166415   2.831   6.295   4.097  2.4026  1.2820 -1.8289
15000TIP3    H266416   2.829   6.362   4.233  2.3269 -0.6782 -0.8173
15001TIP3   OH266417   5.429   6.092   3.268  0.3309 -0.2892 -0.7114
15001TIP3    H166418   5.387   6.168   3.227 -0.2520  0.0196  0.4280
15001TIP3    H266419   5.369   6.019   3.250  0.9247 -0.5320 -1.8665
15002TIP3   OH266420   6.312   0.206   3.329 -0.4405  0.0373 -0.3050
15002TIP3    H166421   6.218   0.205   3.313 -0.6118 -1.7908  0.6880
15002TIP3    H266422   6.321   0.191   3.423  0.8759 -1.6831 -0.6695
15003TIP3   OH266423   1.316   4.955   1.408  0.1815 -0.8255 -0.4291
15003TIP3    H166424   1.367   5.036   1.414 -2.1336  0.6159  1.2793
15003TIP3    H266425   1.362   4.894   1.466 -0.0836  0.5020  1.2380
15004TIP3   OH266426   5.058   1.149   1.606 -0.2274 -0.4976  0.0703
15004TIP3    H166427   4.988   1.200   1.646 -0.1856 -0.2781 -0.1292
15004TIP3    H266428   5.138   1.197   1.629 -0.2018 -0.3801 -0.2531
15005TIP3   OH266429   2.019   2.614  13.414 -0.2522 -0.4481 -0.7595
15005TIP3    H166430   2.008   2.530  13.369 -0.9720  0.0444 -1.5299
15005TIP3    H266431   1.966   2.675  13.364  0.5587  0.5598 -0.4199
15006TIP3   OH266432   3.544   4.784  14.383  0.0062 -0.1676  0.3417
15006TIP3    H166433   3.479   4.850  14.359 -1.8858 -1.6149  1.1930
15006TIP3    H266434   3.619   4.834  14.413  0.1026  1.6085 -2.5067
15007TIP3   OH266435   2.446   0.190  15.874  0.0174 -0.3623 -0.2263
15007TIP3    H166436   2.538   0.216  15.870  0.5186 -1.6803  1.3803
15007TIP3    H266437   2.428   0.181  15.967 -1.1757 -2.0335 -0.5786
15008TIP3   OH266438   3.897   0.962   4.597  0.9292  0.3589 -0.2589
15008TIP3    H166439   3.833   0.960   4.669  1.2511 -0.2855  0.0177
15008TIP3    H266440   3.965   1.023   4.626  2.1559 -1.4910  0.9598
15009TIP3   OH266441   3.174   6.069  11.943 -0.3711  0.4826 -0.2283
15009TIP3    H166442   3.225   6.046  11.865  0.1802 -0.5477  0.4164
15009TIP3    H266443   3.234   6.119  11.998  0.4034 -1.7026  1.0514
15010TIP3   OH266444   0.950   4.693  11.156 -0.1762  0.1961 -0.7030
15010TIP3    H166445   0.967   4.679  11.250  0.4502 -0.8198 -0.9489
15010TIP3    H266446   0.988   4.779  11.137 -2.9531  1.8517  0.5909
15011TIP3   OH266447   3.791   6.410  14.097  0.3680 -0.4095 -0.1010
15011TIP3    H166448   3.777   6.344  14.165  1.2707  0.6037  1.1173
15011TIP3    H266449   3.823   6.487  14.144  1.2214  0.2620 -1.6974
15012TIP3   OH266450   1.064   5.342  17.095  0.5109  0.0046  0.0704
15012TIP3    H166451   1.007   5.310  17.165 -2.7812  2.5182 -1.1463
15012TIP3    H266452   1.028   5.302  17.015 -0.0364  2.0451 -0.7849
15013TIP3   OH266453   4.782   0.614  16.761 -0.5971 -0.1910 -0.3045
15013TIP3    H166454   4.878   0.615  16.758 -0.4694  0.2554  1.9867
15013TIP3    H266455   4.756   0.680  16.696  0.9331  3.6534  2.5490
15014TIP3   OH266456   1.849   2.277   1.526  0.7403  0.4315 -0.2761
15014TIP3    H166457   1.822   2.320   1.445  1.0448 -0.4590 -0.8699
15014TIP3    H266458   1.929   2.321   1.553 -0.1506  1.7117  0.3592
15015TIP3   OH266459   6.112   3.295  11.592 -0.1746 -0.4761  0.1928
15015TIP3    H166460   6.051   3.369  11.596  0.4543  0.0052  1.8239
15015TIP3    H266461   6.088   3.248  11.512 -2.4582 -0.1157  0.5953
15016TIP3   OH266462   4.586   2.866  15.068  0.1668 -0.3246 -0.0935
15016TIP3    H166463   4.493   2.846  15.078 -0.0281  0.0386 -1.0676
15016TIP3    H266464   4.588   2.956  15.034  0.7781 -0.9650 -1.8577
15017TIP3   OH266465   1.837   5.963  16.654  0.3998  0.1805 -0.0011
15017TIP3    H166466   1.835   6.011  16.737  1.0089 -0.4534  0.3875
15017TIP3    H266467   1.786   6.017  16.594  0.9567  1.2457  0.4590
15018TIP3   OH266468   2.807   0.764   5.595  0.4888 -0.2026  0.6602
15018TIP3    H166469   2.787   0.852   5.564  0.7950  0.5211  2.4300
15018TIP3    H266470   2.840   0.718   5.517  2.4839  1.9146  0.1472
15019TIP3   OH266471   3.602   3.163   0.428 -0.1415  0.1642  0.1487
15019TIP3    H166472   3.653   3.192   0.504 -2.7902  1.0455  1.7177
15019TIP3    H266473   3.567   3.078   0.454  1.1625 -0.8436 -1.2648
15020TIP3   OH266474   4.114   5.296   4.291 -0.7310  0.0768  0.1446
15020TIP3    H166475   4.097   5.336   4.376  0.1677  1.0844 -0.1215
15020TIP3    H266476   4.049   5.335   4.232 -0.5113  0.3720  0.0976
15021TIP3   OH266477   0.816   0.061  13.640 -0.5182 -0.1584 -0.3474
15021TIP3    H166478   0.886   0.126  13.642 -1.5134  0.9524  1.7348
15021TIP3    H266479   0.827   0.011  13.722 -1.3587 -0.8588 -0.6444
15022TIP3   OH266480   2.710   3.320   2.728 -0.2393 -0.6005  0.2130
15022TIP3    H166481   2.662   3.237   2.721  1.3101 -1.4235 -1.3808
15022TIP3    H266482   2.802   3.295   2.720  0.3153  1.2260  0.4319
15023TIP3   OH266483   3.269   5.189  15.008 -0.5204 -0.1132 -0.3687
15023TIP3    H166484   3.179   5.159  15.017  0.0013 -1.4197  0.8583
15023TIP3    H266485   3.287   5.237  15.089 -0.0136 -0.1058 -0.4818
15024TIP3   OH266486   5.024   2.064   0.288 -0.0729 -0.1443  0.0204
15024TIP3    H166487   4.950   2.092   0.341  1.8816 -0.5699  3.3072
15024TIP3    H266488   5.088   2.136   0.297  2.0206 -2.0702  2.1954
15025TIP3   OH266489   2.526   3.793   2.842 -0.0635  0.0218  0.4390
15025TIP3    H166490   2.547   3.700   2.848  1.7525  0.4404  1.5165
15025TIP3    H266491   2.455   3.805   2.905 -0.4640 -0.6732  0.1259
15026TIP3   OH266492   4.527   6.031  10.504 -0.0463 -0.1273 -0.3398
15026TIP3    H166493   4.502   5.954  10.555 -0.2426  1.6039  2.3857
15026TIP3    H266494   4.608   6.005  10.460  0.2735 -1.6759  1.0394
15027TIP3   OH266495   2.795   3.039   4.288 -0.0717  0.3854 -0.0966
15027TIP3    H166496   2.708   3.065   4.320  0.1035 -1.0135  1.7052
15027TIP3    H266497   2.779   2.965   4.230 -0.1081  0.1919  0.1568
15028TIP3   OH266498   5.247   4.118   4.819 -0.2112  0.3659  0.4530
15028TIP3    H166499   5.203   4.085   4.740  2.5107 -0.7151 -0.7384
15028TIP3    H266500   5.244   4.213   4.810 -0.9848  0.2856 -0.3120
15029TIP3   OH266501   0.157   0.988   4.216 -0.2220 -0.1268 -0.1118
15029TIP3    H166502   0.076   0.998   4.167  0.6494  0.9469 -1.4059
15029TIP3    H266503   0.154   0.899   4.250 -1.8063 -0.1889 -0.3624
15030TIP3   OH266504   4.892   2.187   2.388 -0.4614 -0.1313  0.0315
15030TIP3    H166505   4.935   2.245   2.325  0.1083 -1.8077 -1.2020
15030TIP3    H266506   4.817   2.237   2.420  0.7882  1.8033  0.1030
15031TIP3   OH266507   3.246   5.724  11.103 -0.4203 -0.5408  0.0671
15031TIP3    H166508   3.175   5.749  11.044  0.4067  1.1408 -0.2790
15031TIP3    H266509   3.326   5.746  11.055  0.2823  0.6051  1.6750
15032TIP3   OH266510   4.448   4.856   2.538  0.1696 -0.7005  0.2896
15032TIP3    H166511   4.494   4.822   2.615  0.4938 -0.5204  0.1782
15032TIP3    H266512   4.408   4.938   2.568  1.7796  0.2913 -0.1950
15033TIP3   OH266513   4.566   3.430  15.454 -0.0013 -0.1575 -0.1448
15033TIP3    H166514   4.538   3.353  15.404 -0.8849 -0.7581  1.2109
15033TIP3    H266515   4.632   3.396  15.515 -1.2169 -0.1177  1.2450
15034TIP3   OH266516   3.838   6.727  16.466 -0.6925  0.8878 -0.3264
15034TIP3    H166517   3.838   6.660  16.398 -0.4163  0.5806 -0.0301
15034TIP3    H266518   3.886   6.800  16.428  2.2954 -0.4176  0.5987
15035TIP3   OH266519   0.026   4.425   2.624 -0.0430 -0.5898 -0.1384
15035TIP3    H166520   0.041   4.504   2.572  0.9625 -1.6214 -1.4883
15035TIP3    H266521   0.012   4.457   2.713 -1.9704  1.2366 -1.0347
15036TIP3   OH266522   1.950   2.344  12.025  0.1363 -0.0893  0.0846
15036TIP3    H166523   1.973   2.417  11.967  0.6470  1.3890  2.0103
15036TIP3    H266524   1.855   2.349  12.033  0.1860  0.5736  0.3964
15037TIP3   OH266525   2.272   0.580  10.851 -0.0778 -0.2162 -0.4893
15037TIP3    H166526   2.197   0.581  10.910  1.6861 -2.9376  2.0591
15037TIP3    H266527   2.324   0.504  10.878  2.6857  0.4281 -3.3194
15038TIP3   OH266528   6.317   1.667  13.522  0.6525  0.0884 -0.0836
15038TIP3    H166529   6.266   1.587  13.510  1.2589 -0.3681  0.2530
15038TIP3    H266530   6.263   1.737  13.485 -0.5683 -0.2512  0.9838
15039TIP3   OH266531   6.206   6.629  10.466  0.4948  0.5436  0.1559
15039TIP3    H166532   6.146   6.643  10.539 -1.5467 -2.1611 -0.8379
15039TIP3    H266533   6.226   6.535  10.469  2.1558  0.8018 -1.4365
15040TIP3   OH266534   6.179   5.032  10.676 -0.6115 -0.9263  0.3748
15040TIP3    H166535   6.211   5.117  10.705 -1.7653 -0.5019  0.4507
15040TIP3    H266536   6.085   5.036  10.689 -0.7900 -1.8803 -0.5023
15041TIP3   OH266537   5.562   1.482   5.012  0.0172  0.3654 -0.0901
15041TIP3    H166538   5.504   1.449   5.081 -2.3459 -2.1060 -3.0015
15041TIP3    H266539   5.644   1.434   5.025 -1.7122 -3.2323 -1.2227
15042TIP3   OH266540   4.450   5.118  16.690 -0.3593  0.4369 -0.6917
15042TIP3    H166541   4.388   5.064  16.640  1.1324 -2.0172 -0.0811
15042TIP3    H266542   4.527   5.123  16.635  0.4631 -0.3264  0.3465
15043TIP3   OH266543   0.815   5.069   4.809  0.6430  0.2928 -0.2985
15043TIP3    H166544   0.827   5.090   4.902 -0.1356  1.8083 -0.5035
15043TIP3    H266545   0.852   5.144   4.763 -1.4655  0.9143 -1.1119
15044TIP3   OH266546   0.298   2.270  12.188 -0.1466  0.7237 -0.0365
15044TIP3    H166547   0.292   2.261  12.093  1.9131 -0.1074 -0.1544
15044TIP3    H266548   0.331   2.359  12.202 -1.2605  1.1470 -0.0320
15045TIP3   OH266549   0.466   6.223   0.150 -0.4220 -0.6940  0.0227
15045TIP3    H166550   0.501   6.292   0.094  2.0168 -1.4287  0.5447
15045TIP3    H266551   0.384   6.259   0.185  0.6941  1.8692  0.1736
15046TIP3   OH266552   3.663   3.869   0.302 -0.3676  0.5178 -0.4476
15046TIP3    H166553   3.601   3.842   0.234 -3.6409  1.2742  2.0082
15046TIP3    H266554   3.688   3.958   0.277 -1.0932  0.5855 -0.9752
15047TIP3   OH266555   5.859   5.700  15.947 -0.9384 -0.6805  0.2056
15047TIP3    H166556   5.767   5.675  15.955 -0.9564 -0.3137  1.3812
15047TIP3    H266557   5.864   5.787  15.987 -0.1168 -0.6270 -0.0003
15048TIP3   OH266558   1.936   4.339   4.898  0.4758  0.5946  0.0475
15048TIP3    H166559   1.938   4.435   4.895  1.1410  0.6454  1.3728
15048TIP3    H266560   1.849   4.316   4.867  0.7125  1.5477 -1.4641
15049TIP3   OH266561   6.120   5.471   0.115 -0.1630 -0.2193  0.1520
15049TIP3    H166562   6.039   5.502   0.073  0.3726 -0.9042 -1.4418
15049TIP3    H266563   6.157   5.549   0.156 -0.9012  0.3992 -0.3299
15050TIP3   OH266564   2.049   2.702   1.048  0.5701  0.6931  0.0377
15050TIP3    H166565   1.967   2.673   1.087  1.0784  0.4955  0.9835
15050TIP3    H266566   2.047   2.798   1.055  0.3512  0.6970 -0.0837
15051TIP3   OH266567   6.776   5.624   0.491  0.5575 -0.7799 -0.0214
15051TIP3    H166568   6.749   5.566   0.419  0.7973 -2.1305  0.9498
15051TIP3    H266569   6.871   5.623   0.489  0.5775  0.2446 -0.4879
15052TIP3   OH266570   5.997   1.382   2.687 -0.3995 -0.2175  0.1803
15052TIP3    H166571   6.056   1.337   2.626  0.1732  1.4005 -0.5198
15052TIP3    H266572   5.926   1.415   2.632 -2.1953 -2.3910  1.0517
15053TIP3   OH266573   5.502   3.389   1.559  0.1758  0.1668 -0.4637
15053TIP3    H166574   5.583   3.394   1.509  0.5499 -0.7626  0.0219
15053TIP3    H266575   5.482   3.295   1.562 -1.7742  0.4591 -1.9162
15054TIP3   OH266576   1.317   5.450  13.582  0.0256  0.2725  0.0319
15054TIP3    H166577   1.335   5.518  13.648 -1.5070  0.5935  0.1481
15054TIP3    H266578   1.399   5.400  13.577  0.1972  0.2357  2.1760
15055TIP3   OH266579   0.277   3.800   3.030  0.4967 -0.0004 -0.1296
15055TIP3    H166580   0.364   3.839   3.028  0.3589  0.2794 -0.8923
15055TIP3    H266581   0.260   3.773   2.940  0.0441 -0.6184  0.1277
15056TIP3   OH266582   1.107   1.726   2.476  0.4161  0.2261  0.0163
15056TIP3    H166583   1.171   1.655   2.468  1.3163  1.1286 -1.2170
15056TIP3    H266584   1.133   1.789   2.409  0.0019  1.9995  1.4507
15057TIP3   OH266585   2.555   1.669   6.609 -0.7906 -0.5129 -0.3323
15057TIP3    H166586   2.507   1.672   6.691 -0.8011 -0.2238 -0.3506
15057TIP3    H266587   2.509   1.603   6.557 -1.5280  0.1774 -0.5766
15058TIP3   OH266588   0.906   2.236  12.984  0.1517  0.2771 -0.0840
15058TIP3    H166589   0.990   2.208  12.948  0.0165 -2.6485  1.5599
15058TIP3    H266590   0.845   2.231  12.911  0.4091 -2.8103 -0.2021
15059TIP3   OH266591   6.657   2.155   4.205  1.0279  0.3692 -0.1516
15059TIP3    H166592   6.603   2.170   4.127 -1.7367  2.6861  1.9884
15059TIP3    H266593   6.604   2.096   4.259  1.8373  0.6058  0.9198
15060TIP3   OH266594   5.721   5.560  16.884  0.4996  0.4689  0.2889
15060TIP3    H166595   5.625   5.551  16.886  0.5340  0.0421 -0.0502
15060TIP3    H266596   5.753   5.496  16.947  0.5371  1.0780  0.9125
15061TIP3   OH266597   5.946   4.635  16.527  0.0113 -0.0186 -0.7646
15061TIP3    H166598   5.871   4.692  16.548 -0.3347 -0.1343 -1.6439
15061TIP3    H266599   5.908   4.564  16.476  0.5067 -0.8453 -0.0104
15062TIP3   OH266600   2.117   0.091   0.519 -0.2105 -0.2061  0.0373
15062TIP3    H166601   2.024   0.071   0.517 -0.6957  1.7683  0.4721
15062TIP3    H266602   2.130   0.153   0.447  0.8405 -0.7283 -0.2441
15063TIP3   OH266603   6.516   2.880   6.179  0.3104 -0.0328 -0.1793
15063TIP3    H166604   6.471   2.931   6.112 -1.6352 -1.1820  0.1658
15063TIP3    H266605   6.445   2.847   6.235  1.6448 -1.5503  0.6905
15064TIP3   OH266606   3.604   4.503  14.726  0.1067 -0.1896 -0.2944
15064TIP3    H166607   3.570   4.502  14.636 -1.2922 -0.9365  0.2214
15064TIP3    H266608   3.610   4.411  14.750 -2.3100 -0.0174  1.3487
15065TIP3   OH266609   1.971   6.447  11.381  0.3348 -0.9746  0.1624
15065TIP3    H166610   2.059   6.448  11.344  0.6929  1.5098  0.8464
15065TIP3    H266611   1.923   6.511  11.328  0.3579  1.2991  2.6712
15066TIP3   OH266612   2.432   6.069  13.108 -0.4872 -0.3765  0.4806
15066TIP3    H166613   2.409   5.989  13.061  0.4587 -1.3830  1.6778
15066TIP3    H266614   2.419   6.047  13.201  0.9777  0.4313  0.9114
15067TIP3   OH266615   6.617   4.074   3.655  0.1056 -0.2374  0.0917
15067TIP3    H166616   6.625   4.152   3.601 -1.8734 -0.6157 -0.8291
15067TIP3    H266617   6.629   4.001   3.593  0.2833 -0.6723  0.6280
15068TIP3   OH266618   3.034   1.390  12.493 -0.2665 -0.5389  0.6233
15068TIP3    H166619   3.090   1.314  12.480 -0.6343 -0.9724  1.4671
15068TIP3    H266620   3.087   1.465  12.465 -0.2595 -1.1809 -1.1564
15069TIP3   OH266621   6.142   5.210   0.383 -0.3828  0.3020  0.2529
15069TIP3    H166622   6.162   5.172   0.298  0.9961  1.7713 -0.1334
15069TIP3    H266623   6.087   5.286   0.363 -0.3881  0.4222  0.7121
15070TIP3   OH266624   3.408   5.896  16.236 -0.1044  0.2220  0.0057
15070TIP3    H166625   3.357   5.826  16.276  0.7610 -0.8004 -0.6212
15070TIP3    H266626   3.376   5.901  16.146  0.8524 -0.4379 -0.3974
15071TIP3   OH266627   3.340   0.631   2.385  0.0725 -0.3588 -0.1744
15071TIP3    H166628   3.318   0.695   2.317 -0.8287  0.3349  0.7396
15071TIP3    H266629   3.303   0.549   2.353 -1.5640  0.2462  0.0716
15072TIP3   OH266630   4.619   2.458   3.261  0.2433  0.4356 -0.1026
15072TIP3    H166631   4.571   2.498   3.189  2.9825  2.0318 -1.1766
15072TIP3    H266632   4.709   2.451   3.230  0.7639 -2.8127  1.6416
15073TIP3   OH266633   6.380   3.972   2.642 -0.1484 -0.2144 -0.6062
15073TIP3    H166634   6.394   3.967   2.547  0.9710 -1.5305 -0.4065
15073TIP3    H266635   6.464   4.002   2.677  0.0511 -1.5080  0.0904
15074TIP3   OH266636   1.774   2.333   6.787 -0.2086  0.1893 -0.2781
15074TIP3    H166637   1.759   2.256   6.731  0.8155 -0.6347  0.5482
15074TIP3    H266638   1.750   2.304   6.875  3.2697 -0.3448  0.6590
15075TIP3   OH266639   4.359   1.899  11.218 -0.0488  0.2328  0.8746
15075TIP3    H166640   4.280   1.844  11.215  0.1388 -0.0471  1.0067
15075TIP3    H266641   4.371   1.929  11.128 -0.6027  0.7028  0.9516
15076TIP3   OH266642   5.507   3.602   6.330  0.1323 -0.1394  0.1937
15076TIP3    H166643   5.568   3.582   6.402  0.5186 -0.3502 -0.1908
15076TIP3    H266644   5.452   3.523   6.324 -0.7724  0.3910  1.1226
15077TIP3   OH266645   1.294   2.555  13.610  0.2648  0.0731 -0.3755
15077TIP3    H166646   1.262   2.594  13.692  0.7275 -1.1783  0.4222
15077TIP3    H266647   1.319   2.631  13.556  0.4322  0.9094  0.8328
15078TIP3   OH266648   0.420   0.969  14.953  0.1511 -0.0641 -0.3039
15078TIP3    H166649   0.347   0.915  14.985  0.1438 -1.2164 -2.0929
15078TIP3    H266650   0.378   1.050  14.923 -0.6375 -1.1394 -2.3263
15079TIP3   OH266651   3.733   3.805  13.204  0.2350  0.7185 -0.4807
15079TIP3    H166652   3.804   3.847  13.155  1.0607 -1.6986 -1.4656
15079TIP3    H266653   3.764   3.808  13.295  1.3185  0.2629 -0.8150
15080TIP3   OH266654   1.207   5.214   1.050 -0.5905 -0.1069  0.1759
15080TIP3    H166655   1.177   5.256   1.130  2.2651  1.3774  0.5829
15080TIP3    H266656   1.283   5.162   1.077  0.4641  0.4660 -1.5345
15081TIP3   OH266657   2.056   4.540  12.984  0.0091 -0.0717 -0.0774
15081TIP3    H166658   2.012   4.461  12.952  2.1049 -1.6413  0.6577
15081TIP3    H266659   2.107   4.572  12.910 -0.2540  0.1484 -0.1636
15082TIP3   OH266660   1.079   0.471   4.796  0.3142 -0.0137  0.3658
15082TIP3    H166661   1.030   0.546   4.830  1.0843 -0.4351  2.5868
15082TIP3    H266662   1.157   0.466   4.851  1.8086 -0.6554 -1.7024
15083TIP3   OH266663   1.140   4.101  14.045  0.1955 -0.1822  0.8777
15083TIP3    H166664   1.052   4.138  14.037  0.6615  0.8974  0.3843
15083TIP3    H266665   1.197   4.178  14.046  1.1823 -0.8928  0.4046
15084TIP3   OH266666   5.170   1.636   2.852  0.0296 -0.1789 -0.1758
15084TIP3    H166667   5.125   1.611   2.771  0.0628 -0.5595 -0.0775
15084TIP3    H266668   5.135   1.576   2.918 -2.2921  2.0393  0.7836
15085TIP3   OH266669   0.766   5.024   4.085  0.4132 -0.8600  0.3364
15085TIP3    H166670   0.729   4.975   4.159 -1.2324 -1.2517 -0.6975
15085TIP3    H266671   0.815   5.095   4.126  1.0131 -2.0735  1.8269
15086TIP3   OH266672   1.500   3.300  15.383  0.2611 -0.0411  0.5095
15086TIP3    H166673   1.567   3.244  15.423 -0.1249 -3.2301 -2.7575
15086TIP3    H266674   1.418   3.275  15.426  0.3732 -0.5684  0.4198
15087TIP3   OH266675   0.452   1.944   2.784  0.1090 -0.2164  0.0255
15087TIP3    H166676   0.359   1.940   2.809  0.0644  0.2870 -0.0469
15087TIP3    H266677   0.455   2.012   2.717  0.6217  0.1504  0.4206
15088TIP3   OH266678   4.751   3.948  11.550 -0.4899 -0.1184  0.1500
15088TIP3    H166679   4.790   3.992  11.625  1.2777 -1.8120  0.2983
15088TIP3    H266680   4.820   3.948  11.483 -0.0615 -3.2804  0.4421
15089TIP3   OH266681   5.241   4.390   4.808 -0.5705  0.5074 -0.1618
15089TIP3    H166682   5.292   4.460   4.849 -1.6738  1.1495  0.1789
15089TIP3    H266683   5.150   4.417   4.821 -1.0093 -0.8211 -0.3558
15090TIP3   OH266684   0.626   5.564  16.743  0.6324  0.6176 -0.2166
15090TIP3    H166685   0.660   5.584  16.656  1.8481 -0.8293 -0.1247
15090TIP3    H266686   0.697   5.516  16.786  0.4995  2.1890  1.9741
15091TIP3   OH266687   6.258   2.499   1.404 -0.5148  0.0749  0.0139
15091TIP3    H166688   6.256   2.490   1.309 -1.1608  1.4150 -0.1127
15091TIP3    H266689   6.220   2.585   1.422  1.3705  0.6982  1.3730
15092TIP3   OH266690   0.641   2.871  13.921  0.4885  0.7293  0.9922
15092TIP3    H166691   0.624   2.946  13.864 -0.8431  1.4231  2.2398
15092TIP3    H266692   0.556   2.828  13.930  1.6037 -2.5242 -1.7100
15093TIP3   OH266693   2.816   2.978   3.189 -0.0688  0.2339  0.5150
15093TIP3    H166694   2.729   2.977   3.229 -0.1700 -0.9376  0.2973
15093TIP3    H266695   2.853   2.892   3.208  0.3710  0.0915 -0.8289
15094TIP3   OH266696   3.093   2.204  11.524  0.2509 -0.4713  0.6463
15094TIP3    H166697   3.098   2.176  11.433 -2.8086 -0.2129  0.3008
15094TIP3    H266698   3.003   2.235  11.535  0.8013  0.4196  3.5116
15095TIP3   OH266699   3.535   0.071   3.445 -0.3649 -0.3724 -0.8257
15095TIP3    H166700   3.615   0.024   3.424 -0.3004 -0.4762 -0.3727
15095TIP3    H266701   3.550   0.160   3.414  1.1826  0.4583  1.9713
15096TIP3   OH266702   0.817   4.097  11.187  0.3964  0.4814 -1.0173
15096TIP3    H166703   0.807   4.038  11.262 -1.3726  1.5427 -0.3354
15096TIP3    H266704   0.818   4.039  11.111  1.6516 -0.5869 -0.2273
15097TIP3   OH266705   5.778   0.563  14.313 -0.6275 -0.1004  0.4136
15097TIP3    H166706   5.687   0.568  14.284 -0.8719 -0.4725  1.1032
15097TIP3    H266707   5.774   0.522  14.399  0.0570  1.1441  1.0783
15098TIP3   OH266708   1.089   4.646   1.967  0.7147  0.0618 -0.4861
15098TIP3    H166709   1.000   4.680   1.960  1.8508  3.1683 -1.7836
15098TIP3    H266710   1.125   4.653   1.879  2.2050 -1.3040 -0.0335
15099TIP3   OH266711   5.814   5.921   0.828 -0.4203 -0.1607  0.2122
15099TIP3    H166712   5.896   5.888   0.863 -0.1222  0.3753  0.0223
15099TIP3    H266713   5.781   5.851   0.772 -0.2990 -0.5364  0.6095
15100TIP3   OH266714   6.353   0.975   2.722 -0.8352  0.2225  0.3238
15100TIP3    H166715   6.367   0.969   2.627 -1.1982  0.4427  0.2522
15100TIP3    H266716   6.406   0.905   2.759 -0.1704  0.5533  0.0063
15101TIP3   OH266717   1.233   5.530  11.393 -0.5729  0.3521  0.0375
15101TIP3    H166718   1.206   5.538  11.301  1.6218 -0.1821 -0.7159
15101TIP3    H266719   1.186   5.455  11.426 -1.7002  0.7923 -0.5232
15102TIP3   OH266720   1.862   4.879  12.371 -0.1088 -0.0500  0.1532
15102TIP3    H166721   1.886   4.788  12.387 -1.4897 -0.5254 -0.3363
15102TIP3    H266722   1.783   4.893  12.424  0.2183  0.9433  0.4067
15103TIP3   OH266723   2.718   6.206   0.138  0.1211  0.1289  0.2994
15103TIP3    H166724   2.743   6.153   0.062  2.1270  0.9172  0.3322
15103TIP3    H266725   2.663   6.149   0.191  2.2840 -2.0228  0.3967
15104TIP3   OH266726   1.616   4.769   5.847 -0.3436  0.2798  0.0326
15104TIP3    H166727   1.544   4.796   5.790 -0.5278  1.9603  0.9944
15104TIP3    H266728   1.574   4.752   5.932 -0.0003 -1.6848 -0.1339
15105TIP3   OH266729   1.462   6.600  13.168 -0.7107 -0.1030 -0.0554
15105TIP3    H166730   1.546   6.559  13.147 -0.2714 -0.3967  2.0783
15105TIP3    H266731   1.409   6.588  13.089  0.0065 -3.1807 -0.1897
15106TIP3   OH266732   2.927   5.379  13.452  0.0593 -0.6333 -0.4350
15106TIP3    H166733   2.968   5.455  13.492 -1.4187  0.1710 -0.3734
15106TIP3    H266734   2.997   5.313  13.449  0.6478 -0.2489  2.0708
15107TIP3   OH266735   4.706   6.737  12.081 -0.0302 -0.4874  0.2362
15107TIP3    H166736   4.775   6.733  12.015  0.9304  0.1787  1.1736
15107TIP3    H266737   4.629   6.701  12.037  1.2586 -2.7090 -0.3784
15108TIP3   OH266738   5.718   1.390  11.475  0.1957  0.0420  0.0060
15108TIP3    H166739   5.658   1.436  11.417  0.2298  1.9417  1.3880
15108TIP3    H266740   5.674   1.307  11.495 -0.2933 -0.1735 -1.8247
15109TIP3   OH266741   5.873   4.934  14.785 -0.7851  0.0307 -0.0452
15109TIP3    H166742   5.936   4.890  14.729 -1.2582  0.7973 -1.2285
15109TIP3    H266743   5.875   5.025  14.756 -1.8188  0.2340  0.4752
15110TIP3   OH266744   5.490   6.045  15.652  0.0404 -0.1359  0.1557
15110TIP3    H166745   5.497   5.990  15.574  0.4338  0.8836 -0.5506
15110TIP3    H266746   5.402   6.082  15.647  0.3717  0.6206 -0.2988
15111TIP3   OH266747   5.220   3.631  16.970 -0.5485 -0.1463  0.0504
15111TIP3    H166748   5.159   3.669  16.907 -0.7837 -1.2602 -0.4077
15111TIP3    H266749   5.304   3.672  16.950 -1.4055  3.0290  2.0103
15112TIP3   OH266750   2.290   1.646  11.782 -0.5013  0.1910  0.3964
15112TIP3    H166751   2.364   1.596  11.747 -1.0574 -0.1457 -0.3239
15112TIP3    H266752   2.310   1.655  11.876  0.4503  0.1118  0.2197
15113TIP3   OH266753   1.026   4.011  17.025  0.2701 -0.5805  0.4543
15113TIP3    H166754   1.021   3.916  17.037  1.4751 -0.6743  0.3051
15113TIP3    H266755   1.090   4.024  16.955 -1.2607  0.2903 -0.8519
15114TIP3   OH266756   1.926   2.000   2.739 -0.3361 -0.4423  0.5428
15114TIP3    H166757   1.924   1.987   2.644 -0.5875 -0.8348  0.5994
15114TIP3    H266758   1.874   2.079   2.753  0.7590  0.3428  0.2447
15115TIP3   OH266759   6.731   2.680   1.338  0.3975 -0.5202  0.2142
15115TIP3    H166760   6.669   2.669   1.411  0.2601  0.0438  0.1875
15115TIP3    H266761   6.676   2.703   1.263  0.6669  0.5180  0.3088
15116TIP3   OH266762   0.554   3.877   2.655 -0.6579 -0.3925 -0.2345
15116TIP3    H166763   0.524   3.956   2.612  0.0368 -0.6249 -1.1879
15116TIP3    H266764   0.618   3.907   2.719 -0.3669 -0.1847 -0.6212
15117TIP3   OH266765   6.073   0.466  14.297  0.5319 -0.1174  0.4132
15117TIP3    H166766   6.134   0.537  14.315  0.7942 -0.4980  1.0420
15117TIP3    H266767   5.997   0.486  14.352  0.9209 -0.7348  1.1857
15118TIP3   OH266768   2.829   3.027  16.212  0.1452  0.1171 -0.1868
15118TIP3    H166769   2.803   3.050  16.301  2.3848  0.2201  0.4991
15118TIP3    H266770   2.906   3.081  16.194  0.6438 -0.9839 -1.6197
15119TIP3   OH266771   3.380   4.227  14.716 -0.3153  0.4488  0.1062
15119TIP3    H166772   3.317   4.155  14.716  0.3618 -0.2356  2.4754
15119TIP3    H266773   3.387   4.252  14.808  1.8475  1.4259 -0.2724
15120TIP3   OH266774   3.489   1.198   1.384 -0.1248 -0.3531  0.1435
15120TIP3    H166775   3.514   1.124   1.440 -1.9029 -1.1751 -0.0612
15120TIP3    H266776   3.520   1.173   1.297  1.4183  0.2892  0.4846
15121TIP3   OH266777   2.957   5.389  13.156 -0.1622  0.0460  0.0692
15121TIP3    H166778   2.933   5.396  13.248  2.2187  1.0175  0.6777
15121TIP3    H266779   2.978   5.478  13.130  0.5843 -0.4289 -1.0156
15122TIP3   OH266780   5.879   5.171   1.999 -0.3930 -0.1641  0.4153
15122TIP3    H166781   5.875   5.084   2.040 -1.0855 -0.0832  0.5378
15122TIP3    H266782   5.831   5.161   1.917  0.9850 -0.3243 -0.4058
15123TIP3   OH266783   4.623   1.089  12.215 -0.0817  0.5254  0.1661
15123TIP3    H166784   4.638   1.102  12.121  2.0557  0.6313  0.4689
15123TIP3    H266785   4.551   1.148  12.236  1.5247  3.0368 -0.8400
15124TIP3   OH266786   2.153   1.347   6.135 -0.4318  0.3428  0.0078
15124TIP3    H166787   2.118   1.265   6.170  1.0147 -0.6212 -0.7078
15124TIP3    H266788   2.197   1.389   6.209  2.1257 -1.4139 -0.3929
15125TIP3   OH266789   0.273   2.597   1.780  0.2431 -0.5277  0.0375
15125TIP3    H166790   0.184   2.631   1.783  1.2655  2.5155  0.3571
15125TIP3    H266791   0.319   2.658   1.722  2.8082  0.0265  2.4430
15126TIP3   OH266792   2.192   0.723   0.207  0.1943  0.2766  0.1919
15126TIP3    H166793   2.236   0.766   0.134  0.3342  0.5282  0.4213
15126TIP3    H266794   2.260   0.669   0.248 -0.3102 -1.2553 -0.9195
15127TIP3   OH266795   2.606   4.665  15.623 -0.1835  0.2866  0.3885
15127TIP3    H166796   2.663   4.728  15.666 -0.4313  1.7949 -1.3490
15127TIP3    H266797   2.660   4.587  15.612  0.7997  0.8891  0.8113
15128TIP3   OH266798   0.889   0.454   2.836  0.6508 -0.5019 -0.1505
15128TIP3    H166799   0.826   0.431   2.767  1.2260  0.4719 -1.0343
15128TIP3    H266800   0.969   0.478   2.788  1.9153 -2.2193  0.9504
15129TIP3   OH266801   4.819   3.133   4.501  0.4145 -0.5321 -0.0570
15129TIP3    H166802   4.810   3.201   4.434  0.2998 -2.3720 -2.0268
15129TIP3    H266803   4.913   3.123   4.514  0.5033 -1.0138 -0.9393
15130TIP3   OH266804   1.694   0.912  11.819 -0.2004  0.3217  0.2237
15130TIP3    H166805   1.602   0.927  11.797 -0.2116  0.8323  0.5971
15130TIP3    H266806   1.693   0.833  11.873 -0.3286 -0.1123 -0.3991
15131TIP3   OH266807   0.489   3.608   2.027 -0.3239 -0.0306 -0.4627
15131TIP3    H166808   0.561   3.552   1.998 -0.4437 -0.7896  0.6564
15131TIP3    H266809   0.521   3.697   2.012  0.8979 -0.3554  0.1180
15132TIP3   OH266810   6.631   2.957  12.564  0.3621 -0.0917  0.0034
15132TIP3    H166811   6.726   2.950  12.576  0.3576 -0.2877 -0.0669
15132TIP3    H266812   6.598   2.981  12.651  0.5932  1.2457 -0.2554
15133TIP3   OH266813   0.955   3.723   1.738  0.0947 -0.2466  0.2205
15133TIP3    H166814   0.991   3.698   1.823  0.0535 -2.1185 -0.2587
15133TIP3    H266815   0.982   3.814   1.726  0.5385 -0.0981  1.9933
15134TIP3   OH266816   0.690   5.570  15.699 -0.0857 -0.4524 -0.0941
15134TIP3    H166817   0.777   5.546  15.668 -0.3411  0.8567 -2.0203
15134TIP3    H266818   0.651   5.620  15.627 -2.7503 -1.6223  0.3821
15135TIP3   OH266819   1.505   6.275  16.571 -0.2794 -0.6466  0.1938
15135TIP3    H166820   1.554   6.318  16.641  1.4066 -0.6518 -0.9283
15135TIP3    H266821   1.436   6.338  16.548  0.2811  0.1480  0.6354
15136TIP3   OH266822   1.055   1.948  10.816 -0.1878  0.2561  0.1803
15136TIP3    H166823   1.068   2.039  10.789 -0.8194  0.5787  0.9337
15136TIP3    H266824   1.140   1.906  10.801  0.3017  1.1282  0.4541
15137TIP3   OH266825   0.936   6.045   0.776 -0.1593  0.5487 -0.4186
15137TIP3    H166826   1.017   6.064   0.823  0.4843 -0.3159 -1.1701
15137TIP3    H266827   0.964   6.016   0.690 -1.2920  0.8154 -0.8918
15138TIP3   OH266828   2.151   2.152  13.798  0.0506 -0.1190 -0.1664
15138TIP3    H166829   2.233   2.192  13.770  0.3036 -0.8316 -0.4471
15138TIP3    H266830   2.156   2.061  13.768  1.1556 -1.5259  3.7570
15139TIP3   OH266831   2.838   0.181  12.483 -0.1249  0.8155 -0.5048
15139TIP3    H166832   2.867   0.270  12.463 -0.8273  1.5982  1.7050
15139TIP3    H266833   2.888   0.155  12.560 -1.1311 -0.0390 -0.1108
15140TIP3   OH266834   0.573   2.764  12.363  0.3338  0.2853  0.1199
15140TIP3    H166835   0.499   2.821  12.384 -0.0061  0.2019 -0.8124
15140TIP3    H266836   0.650   2.820  12.376  0.1279  0.3147  1.2751
15141TIP3   OH266837   3.113   3.495  15.723  0.3779 -0.2442  0.3904
15141TIP3    H166838   3.107   3.427  15.656  2.3441 -1.6636  1.5842
15141TIP3    H266839   3.206   3.517  15.727 -0.0596  1.7706  0.8224
15142TIP3   OH266840   6.097   2.535  17.085 -0.3776  0.3222  0.3110
15142TIP3    H166841   6.165   2.586  17.128 -1.6536  2.2287  0.1610
15142TIP3    H266842   6.084   2.459  17.142  1.1147  0.4741  0.8787
15143TIP3   OH266843   2.278   6.336  14.420  0.6360 -0.3252  0.1837
15143TIP3    H166844   2.301   6.244  14.409  1.9076  0.0712 -0.9318
15143TIP3    H266845   2.347   6.371  14.476  0.3355  0.0178  0.3422
15144TIP3   OH266846   3.123   2.817   5.020 -0.4944 -0.1862  0.8035
15144TIP3    H166847   3.137   2.735   5.066 -2.2605  0.5029  2.7109
15144TIP3    H266848   3.209   2.859   5.019  0.1881 -1.5344  0.7847
15145TIP3   OH266849   1.263   5.575  13.353  0.4308 -0.2149 -0.0602
15145TIP3    H166850   1.295   5.504  13.298  0.6372 -1.2328  1.3047
15145TIP3    H266851   1.274   5.542  13.443  2.2064  2.2414  0.7152
15146TIP3   OH266852   5.216   6.474   3.395 -0.1828  0.2692 -0.4514
15146TIP3    H166853   5.240   6.445   3.483 -1.7653 -1.0006 -0.3869
15146TIP3    H266854   5.154   6.407   3.364 -0.7087  1.4140 -1.9941
15147TIP3   OH266855   0.412   4.183  14.266  0.0818  0.2423 -0.4504
15147TIP3    H166856   0.335   4.168  14.320  0.2965 -0.9569 -0.4457
15147TIP3    H266857   0.382   4.242  14.197 -0.7761 -0.0094 -0.3015
15148TIP3   OH266858   1.259   3.228   0.856 -0.7101 -0.2418 -0.4982
15148TIP3    H166859   1.333   3.192   0.807  0.3998  0.5869  0.5035
15148TIP3    H266860   1.250   3.318   0.824 -1.3665 -0.3818 -0.7081
15149TIP3   OH266861   3.300   2.579  16.579 -0.3471 -0.1542  0.0561
15149TIP3    H166862   3.297   2.665  16.620  0.8217  1.0394 -2.1545
15149TIP3    H266863   3.209   2.561  16.555 -0.3756  1.4267 -1.2024
15150TIP3   OH266864   6.150   1.727   3.764 -0.0764  0.6682  0.4082
15150TIP3    H166865   6.058   1.726   3.792 -0.6505  1.2466 -1.3142
15150TIP3    H266866   6.198   1.689   3.837 -1.8446 -0.9196  0.8123
15151TIP3   OH266867   5.321   2.841   0.140  0.0373  0.6784  0.1838
15151TIP3    H166868   5.356   2.754   0.120 -0.3288  0.1711  1.6574
15151TIP3    H266869   5.390   2.884   0.190  0.5421  1.5691 -1.2101
15152TIP3   OH266870   3.470   2.405   0.420  0.2230 -0.3922 -0.7231
15152TIP3    H166871   3.476   2.389   0.514 -0.0060  0.1497 -0.6118
15152TIP3    H266872   3.380   2.379   0.398  0.3738 -0.8037 -0.8474
15153TIP3   OH266873   1.371   2.926   2.020  0.6287 -0.6565 -0.2907
15153TIP3    H166874   1.450   2.874   2.006  0.0359 -1.4256 -0.8927
15153TIP3    H266875   1.392   3.012   1.983  0.6070 -1.3741 -2.0668
15154TIP3   OH266876   4.447   2.709   0.475  0.3893 -0.9869  0.3350
15154TIP3    H166877   4.440   2.717   0.380 -1.3355 -1.8647  0.3482
15154TIP3    H266878   4.482   2.793   0.504 -0.3709 -0.1900 -0.9687
15155TIP3   OH266879   0.756   5.017  13.658  0.5507  0.4689  0.2342
15155TIP3    H166880   0.764   4.949  13.725 -2.7105 -0.2455  0.0667
15155TIP3    H266881   0.807   4.983  13.584 -1.4457 -2.2335 -0.0725
15156TIP3   OH266882   5.877   5.708  14.426 -0.4405 -0.3464  0.4905
15156TIP3    H166883   5.785   5.698  14.451 -1.0339  1.6091 -0.7380
15156TIP3    H266884   5.912   5.771  14.489 -0.1350 -0.4965  0.4729
15157TIP3   OH266885   3.718   1.060  14.170 -0.1659 -0.2933  0.0831
15157TIP3    H166886   3.749   1.094  14.254  1.0854 -1.2387  0.0297
15157TIP3    H266887   3.760   0.975  14.161 -0.7796 -0.4899 -1.2198
15158TIP3   OH266888   4.284   2.040  13.461  0.0340  0.3927 -0.1070
15158TIP3    H166889   4.327   1.974  13.406  0.1752  0.3888  0.0052
15158TIP3    H266890   4.191   2.024  13.449  0.0341  1.3523 -1.4878
15159TIP3   OH266891   5.233   0.047   4.790 -0.9494  0.0482  0.4712
15159TIP3    H166892   5.268   0.103   4.859 -1.1937  0.8585 -0.0486
15159TIP3    H266893   5.290   0.062   4.714 -1.9608  0.8336 -0.1613
15160TIP3   OH266894   2.331   6.182  13.673  0.1038  0.2405  0.2548
15160TIP3    H166895   2.332   6.102  13.726  2.4040  1.5334  2.4513
15160TIP3    H266896   2.402   6.170  13.610  0.4061  0.4940  0.5410
15161TIP3   OH266897   3.656   5.707  15.704 -0.2633  0.2448 -0.1538
15161TIP3    H166898   3.615   5.701  15.790  0.3030  2.2138  0.3053
15161TIP3    H266899   3.747   5.732  15.722  0.2464 -0.6592 -1.2950
15162TIP3   OH266900   1.388   3.074  14.700 -0.3106  0.2431  0.4525
15162TIP3    H166901   1.324   3.068  14.771 -0.5101 -0.1889  0.2335
15162TIP3    H266902   1.399   2.985  14.669 -2.3699  0.7056 -1.9720
15163TIP3   OH266903   6.360   1.025   2.175  0.1934  0.1510 -0.2174
15163TIP3    H166904   6.411   1.066   2.245  0.5031 -0.5104 -0.0424
15163TIP3    H266905   6.425   1.008   2.107  0.6756 -2.5019  0.7831
15164TIP3   OH266906   3.274   5.167  16.875 -0.3865 -0.1401  0.6261
15164TIP3    H166907   3.270   5.073  16.891 -0.7748 -0.5393 -1.5251
15164TIP3    H266908   3.184   5.197  16.884 -0.7351 -0.4950 -1.2320
15165TIP3   OH266909   4.051   2.231   1.949 -0.6716  0.1990  0.2512
15165TIP3    H166910   4.124   2.177   1.981  0.1011  1.0100 -0.1000
15165TIP3    H266911   3.973   2.180   1.969 -0.2363  0.5449  3.1740
15166TIP3   OH266912   3.954   3.408   4.531  0.1132 -0.3562  0.1705
15166TIP3    H166913   3.956   3.500   4.558 -0.0506 -0.5629  0.9055
15166TIP3    H266914   3.973   3.411   4.437  0.4499  0.4012  0.2477
15167TIP3   OH266915   2.673   5.793   1.112 -1.0233  0.3364  0.1404
15167TIP3    H166916   2.579   5.788   1.124 -1.1854  1.9480 -0.1663
15167TIP3    H266917   2.685   5.821   1.021 -0.3377  1.5978  0.5859
15168TIP3   OH266918   6.553   1.059   4.994 -0.0039  0.4696  0.1035
15168TIP3    H166919   6.486   0.990   4.990 -0.2574  0.7461 -0.9006
15168TIP3    H266920   6.508   1.133   5.034  0.5792 -0.2498  2.1954
15169TIP3   OH266921   2.752   1.600   5.930  0.0896 -0.3993  0.0243
15169TIP3    H166922   2.794   1.667   5.984 -1.0309  1.3423 -1.1461
15169TIP3    H266923   2.817   1.530   5.922  0.5224 -0.4494  3.0426
15170TIP3   OH266924   3.439   1.826  16.323  0.6065 -0.2115  0.6174
15170TIP3    H166925   3.406   1.738  16.339  1.1728 -0.3922  0.8006
15170TIP3    H266926   3.514   1.835  16.382  0.4447  0.4571  0.7347
15171TIP3   OH266927   0.532   2.468  15.505 -0.0184 -0.0996 -0.5734
15171TIP3    H166928   0.518   2.497  15.415  0.7093 -0.1629 -0.7111
15171TIP3    H266929   0.445   2.440  15.535 -0.2456 -0.1557 -1.2788
15172TIP3   OH266930   4.366   2.307  11.392 -0.1849 -0.2842 -0.6403
15172TIP3    H166931   4.387   2.367  11.321 -0.5957  1.4083  0.6244
15172TIP3    H266932   4.295   2.252  11.356  0.0409  0.1171 -1.7318
15173TIP3   OH266933   6.437   5.986   2.621  0.3701 -0.9689 -0.0442
15173TIP3    H166934   6.368   5.920   2.634 -0.6754  0.3402  1.4471
15173TIP3    H266935   6.390   6.065   2.596  1.2946 -0.0465  1.0133
15174TIP3   OH266936   4.500   6.274   5.547 -0.1730 -0.3272 -0.2028
15174TIP3    H166937   4.494   6.183   5.576  2.7204 -1.6622 -3.1438
15174TIP3    H266938   4.526   6.323   5.625  2.6224 -2.8595  0.6290
15175TIP3   OH266939   1.314   6.083   2.018 -0.0226  0.4558  0.2188
15175TIP3    H166940   1.270   6.003   2.046  1.3129  0.1003  1.4245
15175TIP3    H266941   1.373   6.055   1.948  1.3738  0.1029  1.4901
15176TIP3   OH266942   3.542   5.211   0.946  0.0999  0.2776 -0.9157
15176TIP3    H166943   3.587   5.159   1.013  0.2247  1.0004 -0.4332
15176TIP3    H266944   3.581   5.298   0.952 -0.2169  0.4748 -1.6140
15177TIP3   OH266945   0.647   0.822   4.933 -0.2567 -0.1339 -0.0711
15177TIP3    H166946   0.569   0.869   4.904 -0.7600 -0.8082  0.1544
15177TIP3    H266947   0.632   0.804   5.026  1.2268  1.7920  0.6022
15178TIP3   OH266948   1.428   2.652   2.909  0.2285 -0.1889 -0.3184
15178TIP3    H166949   1.463   2.739   2.926 -1.2623  0.4835 -0.5661
15178TIP3    H266950   1.370   2.634   2.982  0.1177 -0.7631 -0.5359
15179TIP3   OH266951   1.531   6.402  10.563  0.8838  0.2676 -0.1056
15179TIP3    H166952   1.542   6.491  10.598  0.9948  1.4131 -2.7697
15179TIP3    H266953   1.475   6.414  10.486  0.6999 -2.0445 -0.4036
15180TIP3   OH266954   0.042   3.254   1.198  0.0080 -0.0895 -0.1691
15180TIP3    H166955   0.089   3.221   1.121 -1.0611  1.5999 -1.6331
15180TIP3    H266956   0.108   3.256   1.267  0.9160 -2.0274 -0.9093
15181TIP3   OH266957   4.786   1.201  16.961  0.7192  0.0129  0.6158
15181TIP3    H166958   4.762   1.240  17.044 -0.0384  0.5296  0.1656
15181TIP3    H266959   4.780   1.106  16.976 -0.6332  0.1155  0.8109
15182TIP3   OH266960   0.516   5.140   1.490 -0.4219  0.3580  0.0499
15182TIP3    H166961   0.511   5.112   1.398 -0.3222  0.8805 -0.1168
15182TIP3    H266962   0.511   5.235   1.486  1.3574  0.5118  0.4352
15183TIP3   OH266963   0.016   5.082  16.586  0.3015  0.1914 -0.7943
15183TIP3    H166964   0.111   5.079  16.592  0.2559 -0.0375  0.0935
15183TIP3    H266965  -0.008   5.006  16.534  0.6061  0.2367 -0.9983
15184TIP3   OH266966   4.856   0.306  14.683 -0.1632  0.2380  0.0063
15184TIP3    H166967   4.800   0.229  14.681 -0.9685  0.8110 -0.2203
15184TIP3    H266968   4.945   0.272  14.682 -0.5016 -0.6774 -1.2650
15185TIP3   OH266969   2.470   0.672  12.651  0.3311  0.4572 -0.3515
15185TIP3    H166970   2.473   0.612  12.725  0.7008  0.5134 -0.3197
15185TIP3    H266971   2.478   0.616  12.574 -3.0114  0.0427 -0.5460
15186TIP3   OH266972   0.504   4.987   3.845  0.0712  0.0625 -0.0544
15186TIP3    H166973   0.565   5.057   3.867 -0.4630  1.6830 -3.0666
15186TIP3    H266974   0.551   4.934   3.779 -0.7106 -0.4445 -0.2232
15187TIP3   OH266975   4.405   2.763  15.372 -0.2793 -0.4116 -0.1059
15187TIP3    H166976   4.413   2.845  15.422 -1.1905 -0.4405  0.1054
15187TIP3    H266977   4.494   2.730  15.366 -0.0530 -0.0187  0.8741
15188TIP3   OH266978   3.108   4.352   4.181 -0.3686  0.1178 -0.6124
15188TIP3    H166979   3.078   4.443   4.183  1.2952  0.6839  1.1520
15188TIP3    H266980   3.088   4.318   4.268  1.7182 -0.2535 -0.2448
15189TIP3   OH266981   0.008   3.504   6.071  0.4323  0.0327  0.2988
15189TIP3    H166982  -0.039   3.509   6.154  0.0823  0.4987  0.0771
15189TIP3    H266983   0.100   3.511   6.095  0.2717  1.7137  0.5484
15190TIP3   OH266984   3.644   3.698   0.524  0.3947  0.0092  0.2536
15190TIP3    H166985   3.659   3.607   0.497  1.6072  0.3081 -0.1955
15190TIP3    H266986   3.663   3.749   0.445  1.9281  0.7745  1.0600
15191TIP3   OH266987   0.553   3.066  14.680  0.3857  0.6331 -0.5252
15191TIP3    H166988   0.514   3.116  14.752 -0.9239 -4.0528  2.4534
15191TIP3    H266989   0.642   3.046  14.711  0.2143 -0.4572 -0.7013
15192TIP3   OH266990   6.461   3.958   0.071 -0.1075  0.0003 -0.9406
15192TIP3    H166991   6.445   3.864   0.083  0.0782  0.2349  1.8388
15192TIP3    H266992   6.386   4.000   0.114  1.7672  1.0586  1.5159
15193TIP3   OH266993   2.643   4.896   2.435  0.4526  0.1935 -0.1831
15193TIP3    H166994   2.705   4.958   2.473  0.2679 -0.0001  0.4567
15193TIP3    H266995   2.590   4.948   2.375  1.9392  0.1444 -1.5982
15194TIP3   OH266996   5.594   3.960  13.619  0.0156  1.1641  0.1316
15194TIP3    H166997   5.521   3.963  13.557 -0.8861 -2.7417  0.7600
15194TIP3    H266998   5.661   3.909  13.575 -0.0363 -0.3512  1.7061
15195TIP3   OH266999   4.922   3.336   2.290 -0.6015 -0.1518 -0.4381
15195TIP3    H167000   4.864   3.260   2.297 -0.4297 -0.3607 -1.2121
15195TIP3    H267001   4.982   3.314   2.218 -0.0763  0.4015 -0.1719
15196TIP3   OH267002   3.816   2.973  12.384 -0.0869  0.1052  0.1432
15196TIP3    H167003   3.761   2.959  12.461 -0.1730 -0.2339  0.0209
15196TIP3    H267004   3.755   2.985  12.312 -0.0088  0.7146  0.1732
15197TIP3   OH267005   4.822   1.270  13.624 -0.1881  0.7375 -0.5786
15197TIP3    H167006   4.832   1.361  13.596  1.3376  1.7945  2.8562
15197TIP3    H267007   4.897   1.224  13.586  0.0610  1.3419 -0.8295
15198TIP3   OH267008   0.406   6.103  14.364 -0.0628  0.0178  0.3354
15198TIP3    H167009   0.404   6.015  14.326 -0.8757  0.5965 -1.0469
15198TIP3    H267010   0.493   6.136  14.340 -0.1105 -0.0661  0.0397
15199TIP3   OH267011   5.878   0.434   3.553 -0.2159  0.0342  0.0396
15199TIP3    H167012   5.862   0.364   3.617  2.7645 -1.3616 -0.5726
15199TIP3    H267013   5.896   0.511   3.607 -1.1701 -0.2265  0.7716
15200TIP3   OH267014   0.829   1.008   5.013  0.0680  0.4909  0.3202
15200TIP3    H167015   0.880   1.029   4.935 -0.4276  0.0899 -0.1163
15200TIP3    H267016   0.779   0.930   4.990  1.1107 -0.6036  1.5772
15201TIP3   OH267017   4.234   3.746   4.379  0.0471  0.2408 -0.7476
15201TIP3    H167018   4.275   3.662   4.398 -1.3849 -0.2398  0.4077
15201TIP3    H267019   4.212   3.742   4.286  1.2774 -0.0460 -1.0513
15202TIP3   OH267020   0.871   1.907   1.646  0.2419 -0.1448 -0.2023
15202TIP3    H167021   0.877   1.913   1.742  1.3437 -0.8114 -0.2103
15202TIP3    H267022   0.961   1.891   1.618  0.1893  1.6068 -1.4879
15203TIP3   OH267023   3.350   1.727   1.069  0.8503  0.5453 -0.4035
15203TIP3    H167024   3.309   1.641   1.057 -2.7860  2.1126 -0.7184
15203TIP3    H267025   3.355   1.737   1.164 -0.1414  0.5475 -0.3413
15204TIP3   OH267026   1.609   0.702  15.270 -0.3562 -0.1437 -0.0224
15204TIP3    H167027   1.617   0.618  15.225 -1.0187 -0.2396  0.0321
15204TIP3    H267028   1.515   0.713  15.284 -0.1783 -0.0323  1.1898
15205TIP3   OH267029   2.664   4.861  13.751 -0.1290  0.4733 -0.2130
15205TIP3    H167030   2.661   4.929  13.819  1.1461  0.5274 -0.1869
15205TIP3    H267031   2.572   4.839  13.736 -0.5312  1.6455  0.3393
15206TIP3   OH267032   0.455   1.993   1.351 -0.0369 -0.1923 -0.1990
15206TIP3    H167033   0.513   1.995   1.275  0.6224 -0.4654  0.2938
15206TIP3    H267034   0.380   2.046   1.324 -0.1190 -0.8138 -1.2802
15207TIP3   OH267035   5.199   5.807  14.301  0.3686 -0.1099  0.0363
15207TIP3    H167036   5.293   5.825  14.311  0.2497  0.4568  0.1935
15207TIP3    H267037   5.162   5.891  14.271 -0.2051 -0.1010  0.7434
15208TIP3   OH267038   3.921   6.163   3.761 -0.0932 -0.2510  0.3900
15208TIP3    H167039   3.885   6.219   3.692 -0.1643  0.3016  0.8679
15208TIP3    H267040   3.985   6.108   3.716 -0.2993 -0.0547 -0.1564
15209TIP3   OH267041   1.139   2.762   1.953 -0.6184 -0.0641  0.8175
15209TIP3    H167042   1.150   2.847   1.910 -0.2588 -0.1588  0.7212
15209TIP3    H267043   1.221   2.748   2.000 -0.2600 -0.8441 -0.0188
15210TIP3   OH267044   4.913   4.690   2.661 -0.0127  0.1457  0.4315
15210TIP3    H167045   4.842   4.738   2.617 -0.4491 -0.3404  0.5959
15210TIP3    H267046   4.924   4.610   2.610 -2.8844 -2.1612  2.9938
15211TIP3   OH267047   4.792   1.041  11.053 -0.0845 -0.5093 -0.2068
15211TIP3    H167048   4.885   1.061  11.064 -0.3398  0.8173 -0.2579
15211TIP3    H267049   4.775   0.971  11.116  0.8773 -0.5490  0.0237
15212TIP3   OH267050   3.087   3.278  13.963 -0.1373 -0.1063 -0.0632
15212TIP3    H167051   3.065   3.272  13.870  0.2167  0.3985 -0.1833
15212TIP3    H267052   3.183   3.284  13.965 -0.2019  1.1035  0.2560
15213TIP3   OH267053   4.510   6.309  16.197 -0.9755 -0.1277  0.6903
15213TIP3    H167054   4.578   6.270  16.143  0.3781 -1.0520  2.9105
15213TIP3    H267055   4.556   6.338  16.276 -2.8472  1.0584  1.3988
15214TIP3   OH267056   0.397   4.585  14.118 -0.2166  0.5795  0.0896
15214TIP3    H167057   0.422   4.635  14.041 -0.8271 -0.3339 -0.7370
15214TIP3    H267058   0.454   4.616  14.188  0.8211  0.9451 -0.9017
15215TIP3   OH267059   2.913   3.546  15.220  0.3482 -0.0250 -0.1307
15215TIP3    H167060   2.979   3.478  15.212  0.7900  0.3411  0.3397
15215TIP3    H267061   2.940   3.614  15.157 -0.1949 -0.3580 -0.7367
15216TIP3   OH267062   5.741   4.834  12.381  0.2070 -0.2028  0.5236
15216TIP3    H167063   5.793   4.843  12.460  3.7090  0.6987 -1.6337
15216TIP3    H267064   5.775   4.902  12.322 -2.1649 -0.8374 -1.7842
15217TIP3   OH267065   1.045   4.134   4.825  0.4404 -0.2555 -0.2045
15217TIP3    H167066   1.070   4.202   4.887 -1.7689  0.4065  0.0336
15217TIP3    H267067   1.097   4.058   4.851  1.2832  0.6669  0.9413
15218TIP3   OH267068   1.932   0.381   0.585 -0.2406  0.2397 -0.1245
15218TIP3    H167069   1.849   0.414   0.551  0.1087 -2.0867 -3.7323
15218TIP3    H267070   1.999   0.423   0.531  0.4383 -2.6539 -1.7193
15219TIP3   OH267071   3.602   1.783  13.749 -0.0833 -0.3269  0.2992
15219TIP3    H167072   3.689   1.794  13.710  0.2940  0.3688  1.2993
15219TIP3    H267073   3.575   1.694  13.723  1.6869 -1.2474  1.4360
15220TIP3   OH267074   0.248   1.453   3.409 -0.1258 -0.7106 -0.0482
15220TIP3    H167075   0.302   1.377   3.387  0.2971  0.2457 -2.7336
15220TIP3    H267076   0.252   1.508   3.331 -1.0020  1.7462  1.5179
15221TIP3   OH267077   1.746   3.250   1.751  0.1444  0.3022  0.6121
15221TIP3    H167078   1.703   3.194   1.686 -1.0060  1.4091  0.3825
15221TIP3    H267079   1.838   3.225   1.746 -0.1150 -0.5282 -0.5440
15222TIP3   OH267080   5.317   5.281   2.604  0.2933 -0.0816  0.0821
15222TIP3    H167081   5.334   5.266   2.511  1.8245 -1.2659  0.5183
15222TIP3    H267082   5.342   5.372   2.619 -1.5893  0.6638 -0.9837
15223TIP3   OH267083   1.498   0.233  16.485 -0.1875  0.2605  0.1336
15223TIP3    H167084   1.563   0.218  16.554  1.6545 -0.0139 -1.5763
15223TIP3    H267085   1.535   0.191  16.408 -1.6870  1.4454 -1.2977
15224TIP3   OH267086   5.568   6.521  16.698  0.1475 -0.3833  0.0977
15224TIP3    H167087   5.531   6.465  16.766  1.1351 -0.7313  0.3633
15224TIP3    H267088   5.654   6.483  16.681  0.7992  1.0171  0.2138
15225TIP3   OH267089   6.445   5.023   1.168 -0.4271  0.6058 -0.0220
15225TIP3    H167090   6.513   5.084   1.196 -1.1446  0.4012  2.4903
15225TIP3    H267091   6.423   4.975   1.248 -3.5744  0.7322 -0.6911
15226TIP3   OH267092   4.935   1.742  15.468  0.0600 -0.2004 -0.5183
15226TIP3    H167093   4.973   1.819  15.425  0.2190  0.1691  0.2686
15226TIP3    H267094   5.007   1.679  15.471  0.5354  0.3690  0.6504
15227TIP3   OH267095   6.165   4.277   1.669  0.0496 -0.5607 -0.6756
15227TIP3    H167096   6.230   4.253   1.735 -0.0716 -1.0544 -0.7302
15227TIP3    H267097   6.111   4.343   1.712 -0.8537 -1.8239  0.2097
15228TIP3   OH267098   2.585   1.549   2.705 -0.1450  0.3437 -0.3316
15228TIP3    H167099   2.664   1.559   2.651  0.6819  0.9562  0.9477
15228TIP3    H267100   2.566   1.455   2.701  1.4484 -0.0501  0.3857
15229TIP3   OH267101   4.477   3.624   3.692  0.0612  0.5468 -0.0726
15229TIP3    H167102   4.529   3.582   3.623 -1.4777  1.2005 -1.7033
15229TIP3    H267103   4.486   3.566   3.767  2.1819  0.0511 -0.6461
15230TIP3   OH267104   2.597   4.776  15.142 -0.7007 -0.1038 -0.0891
15230TIP3    H167105   2.580   4.753  15.233  1.2095 -1.1651  0.0559
15230TIP3    H267106   2.675   4.830  15.145  0.0180 -1.0379 -1.1527
15231TIP3   OH267107   4.078   2.315   2.244 -0.2270  0.7500 -0.0494
15231TIP3    H167108   4.133   2.256   2.192 -0.0357 -0.9365  1.9462
15231TIP3    H267109   4.004   2.260   2.272 -1.0131  1.9787  0.3459
15232TIP3   OH267110   1.648   0.659  11.901  0.0213 -0.0126 -0.5528
15232TIP3    H167111   1.574   0.599  11.895  0.9484 -1.1781 -0.6681
15232TIP3    H267112   1.717   0.617  11.850  0.2076  1.9409 -2.0436
15233TIP3   OH267113   6.741   1.465  12.229 -0.9237 -0.3264 -0.0568
15233TIP3    H167114   6.830   1.449  12.196 -0.9711  0.1358 -0.4384
15233TIP3    H267115   6.748   1.457  12.324 -0.6608 -1.1573 -0.1430
15234TIP3   OH267116   6.413   2.391   6.630 -0.7891 -0.2742 -0.4679
15234TIP3    H167117   6.373   2.347   6.706 -1.1283 -0.0069 -0.4902
15234TIP3    H267118   6.347   2.454   6.602 -1.1465 -1.1546 -1.6982
15235TIP3   OH267119   1.711   0.227   3.416  0.1986  0.2239 -0.6910
15235TIP3    H167120   1.710   0.255   3.325 -0.4245 -0.9132 -1.0605
15235TIP3    H267121   1.708   0.308   3.467 -0.0411  0.8513 -1.6853
15236TIP3   OH267122   5.017   1.084   5.937 -0.7070  0.0180 -0.8812
15236TIP3    H167123   5.112   1.076   5.950 -0.5087 -1.3783 -2.6631
15236TIP3    H267124   4.979   1.028   6.004 -0.1933 -0.3918 -0.9203
15237TIP3   OH267125   3.535   4.333  17.160 -0.3900 -0.3222  0.2178
15237TIP3    H167126   3.501   4.411  17.204 -0.5472 -0.9928  1.3107
15237TIP3    H267127   3.541   4.358  17.068  3.6122  2.4578  0.9728
15238TIP3   OH267128   0.751   3.739   0.314 -0.2763 -0.5316  0.1912
15238TIP3    H167129   0.732   3.664   0.257 -1.6922 -0.1737  0.1451
15238TIP3    H267130   0.794   3.802   0.256  0.4801 -1.1015  0.1142
15239TIP3   OH267131   2.903   0.804   2.204  0.1731 -0.2809 -0.4807
15239TIP3    H167132   2.937   0.755   2.279 -1.7038 -2.8933 -1.1861
15239TIP3    H267133   2.819   0.839   2.235  1.2221  2.1844 -0.1739
15240TIP3   OH267134   3.484   2.418  12.717 -0.5064  0.1012  0.0541
15240TIP3    H167135   3.516   2.425  12.627 -0.3377 -0.6019  0.0531
15240TIP3    H267136   3.501   2.327  12.742  2.1153  0.9487  1.7992
15241TIP3   OH267137   0.786   3.734   6.378  0.3669  0.0634 -0.0779
15241TIP3    H167138   0.880   3.726   6.361  0.5405 -1.9131  1.4285
15241TIP3    H267139   0.760   3.647   6.409 -2.3283  0.0690 -2.0333
15242TIP3   OH267140   1.618   3.230  14.831 -0.2799 -0.2070 -0.6436
15242TIP3    H167141   1.548   3.175  14.796  1.1139 -2.3513 -0.2302
15242TIP3    H267142   1.573   3.307  14.866 -2.3811 -1.3514 -0.6929
15243TIP3   OH267143   6.699   5.864  14.766  0.2514  0.2649 -0.4862
15243TIP3    H167144   6.723   5.830  14.851  0.9589  1.8017 -0.0410
15243TIP3    H267145   6.604   5.880  14.772  0.5734  2.0178  0.6671
15244TIP3   OH267146   1.653   5.263   4.395 -0.2550 -0.3927 -0.6770
15244TIP3    H167147   1.599   5.342   4.389  0.6803  0.3393  0.1148
15244TIP3    H267148   1.594   5.196   4.430 -1.0725 -0.0615 -1.3903
15245TIP3   OH267149   5.327   5.702   1.474 -0.5157 -0.2084 -0.1881
15245TIP3    H167150   5.299   5.611   1.485  0.9495 -0.6910 -0.2528
15245TIP3    H267151   5.310   5.722   1.382  1.3886 -1.2472 -0.8104
15246TIP3   OH267152   5.389   6.094  14.679  0.7616  0.2918 -0.2483
15246TIP3    H167153   5.366   6.180  14.644  1.5310  0.5924 -0.0232
15246TIP3    H267154   5.304   6.051  14.694  0.3707  1.0260 -0.3168
15247TIP3   OH267155   0.877   1.031  16.874  0.3376 -0.2272  0.1129
15247TIP3    H167156   0.886   1.119  16.839  1.0568 -0.5934 -0.6421
15247TIP3    H267157   0.805   0.993  16.824 -0.4630  0.1595  0.9386
15248TIP3   OH267158   2.492   2.187  11.667 -0.0431 -0.2508  0.4820
15248TIP3    H167159   2.501   2.153  11.579 -1.0086  0.3279  0.1458
15248TIP3    H267160   2.514   2.280  11.660 -1.5442  0.1257  0.5500
15249TIP3   OH267161   4.310   2.632  14.523  0.4446 -0.0981  0.4065
15249TIP3    H167162   4.305   2.652  14.616 -1.7228 -0.6513  0.4479
15249TIP3    H267163   4.319   2.536  14.519 -0.1644 -0.1432  0.0406
15250TIP3   OH267164   1.053   1.378   3.115  0.2758 -0.1842 -0.1091
15250TIP3    H167165   1.095   1.456   3.079  0.7258 -0.1585  0.4446
15250TIP3    H267166   0.985   1.412   3.174 -1.1805 -0.2233 -1.6927
15251TIP3   OH267167   6.502   0.129   5.941  0.1757 -0.2520 -0.1987
15251TIP3    H167168   6.425   0.144   5.885  1.2907  1.3327 -1.4027
15251TIP3    H267169   6.550   0.059   5.897  1.2110  1.1982 -1.5309
15252TIP3   OH267170   0.819   1.792  11.436  0.3148 -0.1095 -0.2268
15252TIP3    H167171   0.850   1.799  11.345 -1.2554 -0.6214 -0.8299
15252TIP3    H267172   0.779   1.876  11.454  1.1931  0.2198  0.2300
15253TIP3   OH267173   5.707   4.609   2.528 -0.7852 -0.5858 -0.2050
15253TIP3    H167174   5.642   4.588   2.595 -0.9436 -0.6664 -0.3845
15253TIP3    H267175   5.774   4.658   2.575 -1.4865  0.4284 -0.2236
15254TIP3   OH267176   4.549   0.667   3.646 -0.1145 -0.1136 -0.2575
15254TIP3    H167177   4.467   0.668   3.596  0.9581 -2.3183 -2.2309
15254TIP3    H267178   4.550   0.582   3.690  1.2676 -0.2869 -0.5798
15255TIP3   OH267179   3.950   3.269   1.338  0.0188 -0.5521  0.0987
15255TIP3    H167180   3.913   3.337   1.394 -2.2197 -1.9037  0.3718
15255TIP3    H267181   4.039   3.256   1.373 -0.4934  0.2764  1.8486
15256TIP3   OH267182   4.981   6.308   3.639 -0.3865 -0.4100  0.4775
15256TIP3    H167183   4.942   6.374   3.696 -0.8851 -1.2903  1.1792
15256TIP3    H267184   4.936   6.318   3.556 -0.4914  0.0876  0.5881
15257TIP3   OH267185   0.691   4.670   3.003  0.0736  0.2753  0.7018
15257TIP3    H167186   0.718   4.759   2.984  0.3053  0.6949  2.8354
15257TIP3    H267187   0.772   4.620   3.006  0.0327  0.2000  0.5791
15258TIP3   OH267188   3.573   4.835   3.282 -0.4671  0.2805  0.1408
15258TIP3    H167189   3.665   4.836   3.307 -0.8059 -1.5288  1.6888
15258TIP3    H267190   3.525   4.831   3.365 -1.9166  0.5292 -0.6493
15259TIP3   OH267191   1.176   1.866  16.933 -0.0511 -0.5451  0.2196
15259TIP3    H167192   1.166   1.777  16.966 -1.2340 -0.7160 -0.5336
15259TIP3    H267193   1.185   1.920  17.011  1.0464 -1.3371  0.6818
15260TIP3   OH267194   5.774   3.059   0.372  0.1478 -0.7956  0.4087
15260TIP3    H167195   5.713   3.118   0.415  1.5784  0.3231  0.9950
15260TIP3    H267196   5.773   2.980   0.427 -0.1363 -0.4636  0.8860
15261TIP3   OH267197   0.507   5.498   3.282  0.7895  0.0627 -0.6419
15261TIP3    H167198   0.449   5.431   3.317 -0.8459  0.5045 -2.3332
15261TIP3    H267199   0.558   5.528   3.358 -0.5067 -1.0276  0.7184
15262TIP3   OH267200   6.160   0.838   2.456 -0.1734 -0.4396 -0.7159
15262TIP3    H167201   6.096   0.907   2.474 -0.3977 -0.5363 -1.1246
15262TIP3    H267202   6.111   0.757   2.470  0.3568 -0.5353  0.7310
15263TIP3   OH267203   0.178   4.249  14.652 -0.5359 -0.6373 -0.0066
15263TIP3    H167204   0.149   4.284  14.568  1.1665 -4.0436 -2.2227
15263TIP3    H267205   0.107   4.190  14.679  0.1770 -1.7845 -0.5987
15264TIP3   OH267206   4.687   1.453  12.386 -0.1704  0.7938  0.1315
15264TIP3    H167207   4.656   1.390  12.451 -4.2282  0.2078 -2.0670
15264TIP3    H267208   4.722   1.400  12.314  0.2216  1.2565 -0.0319
15265TIP3   OH267209   2.928   2.118   2.095  0.1877 -0.1706 -0.0386
15265TIP3    H167210   2.895   2.122   2.185  1.7230  0.9133  0.5267
15265TIP3    H267211   3.023   2.130   2.104  0.4070 -0.3445 -1.7930
15266TIP3   OH267212   5.024   1.114  10.791  0.2856  0.1781 -0.3369
15266TIP3    H167213   5.099   1.055  10.804  1.2268  1.4563  0.2193
15266TIP3    H267214   4.949   1.061  10.818  1.2312 -0.4047  1.3809
15267TIP3   OH267215   5.101   5.676  14.996  0.0955  0.0743 -0.8260
15267TIP3    H167216   5.074   5.766  14.980 -1.5073 -0.3546 -0.8044
15267TIP3    H267217   5.040   5.624  14.942  1.1493 -0.9793 -1.0276
15268TIP3   OH267218   4.305   5.180  12.058  0.1350 -0.3285  0.2410
15268TIP3    H167219   4.311   5.251  12.122 -0.0415 -1.2055  1.2582
15268TIP3    H267220   4.383   5.190  12.004  0.5747  0.1029  0.9372
15269TIP3   OH267221   0.880   3.189   5.314  0.2584  0.1210 -0.5103
15269TIP3    H167222   0.807   3.243   5.283  0.3456 -0.4714 -1.8387
15269TIP3    H267223   0.934   3.249   5.366 -1.8758  0.2326  1.7533
15270TIP3   OH267224   2.926   1.326   1.677 -0.3467 -0.0051 -0.0905
15270TIP3    H167225   2.859   1.312   1.610 -0.7638  0.4841  0.2171
15270TIP3    H267226   2.987   1.389   1.638 -0.5555  0.2316 -0.0351
15271TIP3   OH267227   4.085   3.220  13.273  0.3213 -0.3878 -0.1505
15271TIP3    H167228   4.071   3.130  13.245  2.4782 -0.1884 -2.1554
15271TIP3    H267229   4.021   3.234  13.343  0.1006 -3.5073  0.3777
15272TIP3   OH267230   4.537   1.688  15.191 -0.5041  0.2130 -0.0438
15272TIP3    H167231   4.484   1.616  15.225  0.1436 -0.7424 -0.9868
15272TIP3    H267232   4.623   1.677  15.231  0.2277 -0.8471 -1.7725
15273TIP3   OH267233   1.160   4.796   2.965 -0.0018  0.1510  0.2998
15273TIP3    H167234   1.151   4.854   2.890  1.0654 -0.6435 -0.4911
15273TIP3    H267235   1.185   4.712   2.926  1.0394 -0.1518  1.5691
15274TIP3   OH267236   1.173   0.239  13.406  0.2598  0.3724 -0.4369
15274TIP3    H167237   1.187   0.208  13.316 -0.5589 -1.0353 -0.1176
15274TIP3    H267238   1.259   0.231  13.448  0.4472  0.1689 -0.8512
15275TIP3   OH267239   1.578   3.820   6.078 -0.0232 -0.4789  0.7130
15275TIP3    H167240   1.511   3.781   6.022  0.7402 -0.1425 -0.4699
15275TIP3    H267241   1.643   3.751   6.090  0.2592 -0.2719  0.4144
15276TIP3   OH267242   3.215   4.411  12.109 -0.2865  0.2236  0.4815
15276TIP3    H167243   3.187   4.353  12.038 -0.3347 -1.2629  1.6627
15276TIP3    H267244   3.296   4.452  12.076  0.2125 -1.1568 -0.0848
15277TIP3   OH267245   1.652   1.537   1.918  0.0994 -0.1162 -0.1923
15277TIP3    H167246   1.723   1.525   1.981 -0.7514 -1.2105  0.5946
15277TIP3    H267247   1.587   1.589   1.965 -0.6882 -1.2242 -0.0178
15278TIP3   OH267248   1.481   4.291   1.664 -0.3676 -0.2040 -0.5827
15278TIP3    H167249   1.423   4.365   1.649 -0.4126 -0.2300 -0.5353
15278TIP3    H267250   1.556   4.328   1.710  0.4994  0.1856 -2.2167
15279TIP3   OH267251   4.219   3.340   2.275  0.2246 -0.0091  0.1876
15279TIP3    H167252   4.198   3.278   2.344 -0.8971 -1.1670 -1.1401
15279TIP3    H267253   4.269   3.409   2.319  0.1370 -1.0458  1.9961
15280TIP3   OH267254   4.870   5.657   5.122  0.4153 -0.6049 -0.0758
15280TIP3    H167255   4.836   5.636   5.209 -3.2629  1.4824 -0.8055
15280TIP3    H267256   4.917   5.740   5.134 -0.9069  0.1843 -0.1523
15281TIP3   OH267257   2.902   3.546   2.579 -0.2737 -0.2308  0.0974
15281TIP3    H167258   2.977   3.539   2.638  0.4338  1.6611 -0.5199
15281TIP3    H267259   2.886   3.640   2.570 -2.4256 -0.5642 -0.1836
15282TIP3   OH267260   3.899   3.732  17.194 -0.0420  0.4135 -0.7475
15282TIP3    H167261   3.875   3.816  17.232  0.0743 -0.1216  0.5710
15282TIP3    H267262   3.816   3.685  17.184  0.1016 -0.2331  0.8431
15283TIP3   OH267263   0.949   1.277  16.745 -0.4373 -0.3804 -0.3272
15283TIP3    H167264   0.951   1.372  16.737  0.8743 -0.2213  1.2182
15283TIP3    H267265   1.024   1.246  16.694 -1.1512 -0.6572 -1.2428
15284TIP3   OH267266   6.260   5.121   2.637  0.8460 -0.2733  0.1886
15284TIP3    H167267   6.259   5.160   2.724  0.4784  0.8576 -0.3034
15284TIP3    H267268   6.215   5.185   2.581 -2.2443 -2.5388 -0.1901
15285TIP3   OH267269   6.032   6.214   2.454 -0.7712  0.3169 -0.5172
15285TIP3    H167270   6.017   6.279   2.522  0.2293  1.0052 -0.9388
15285TIP3    H267271   6.117   6.175   2.476 -2.1382 -2.2262  0.8002
15286TIP3   OH267272   5.655   4.901   0.928  0.3225  0.3528 -0.7377
15286TIP3    H167273   5.643   4.806   0.926  0.8598  0.2878 -1.0696
15286TIP3    H267274   5.750   4.913   0.931  0.2716  0.8871 -1.1374
15287TIP3   OH267275   6.219   4.652  15.557 -0.1226  0.0808  0.9528
15287TIP3    H167276   6.137   4.677  15.514  0.1582  0.9897  0.9218
15287TIP3    H267277   6.218   4.557  15.556 -1.1568  0.0744  0.9107
15288TIP3   OH267278   2.231   5.595   1.979 -0.4591  0.5389 -0.4267
15288TIP3    H167279   2.182   5.531   2.030  1.5217 -0.3120  0.5041
15288TIP3    H267280   2.200   5.582   1.889 -1.3776 -0.4673  0.0134
15289TIP3   OH267281   2.817   1.182  12.487  0.0669 -0.1232  0.4149
15289TIP3    H167282   2.747   1.168  12.551  1.7317 -0.4405  2.2890
15289TIP3    H267283   2.875   1.246  12.529  1.8081 -1.2072 -0.2317
15290TIP3   OH267284   1.642   0.057   4.832 -0.4514 -0.0282 -0.9679
15290TIP3    H167285   1.599   0.137   4.804  0.0257 -0.1872 -2.2092
15290TIP3    H267286   1.626  -0.005   4.761 -1.5443 -1.3183  0.3506
15291TIP3   OH267287   3.611   2.395   6.133 -0.2623 -0.0649  0.1292
15291TIP3    H167288   3.697   2.361   6.108  0.8289  1.7493  1.1445
15291TIP3    H267289   3.557   2.317   6.147  1.3910 -1.2768  0.0326
15292TIP3   OH267290   0.587   1.852   1.606 -0.3410 -0.0009 -0.1032
15292TIP3    H167291   0.566   1.801   1.684 -0.6708 -1.0472 -0.8559
15292TIP3    H267292   0.683   1.862   1.609 -0.4913  1.2323  1.1785
15293TIP3   OH267293   4.219   5.446   6.328  0.0824  0.1993 -0.3717
15293TIP3    H167294   4.188   5.374   6.382  0.8971 -0.4226 -0.7047
15293TIP3    H267295   4.143   5.503   6.317 -0.4444 -0.3662  0.2881
15294TIP3   OH267296   2.762   0.864  10.799  0.8173  0.0219  0.4538
15294TIP3    H167297   2.737   0.939  10.852  1.2483 -0.2462  1.0551
15294TIP3    H267298   2.756   0.789  10.859 -2.7246 -0.9914 -0.9055
15295TIP3   OH267299   3.212   4.791  12.639  0.1724  0.7911 -0.4686
15295TIP3    H167300   3.292   4.829  12.605  1.1828 -0.8560 -0.0416
15295TIP3    H267301   3.238   4.706  12.674 -1.1978  1.3930  2.3597
15296TIP3   OH267302   3.625   4.298   4.066 -0.2348  0.8112  0.4144
15296TIP3    H167303   3.660   4.387   4.068 -0.4415  0.9198 -0.4863
15296TIP3    H267304   3.679   4.250   4.128  0.8805  1.2094 -0.2124
15297TIP3   OH267305   0.243   4.900  12.949  0.2760 -0.4209  0.3957
15297TIP3    H167306   0.152   4.893  12.978 -0.3339 -1.2689 -1.5010
15297TIP3    H267307   0.242   4.973  12.886 -0.0076 -2.6636 -2.4204
15298TIP3   OH267308   2.247   1.951  15.704 -0.3500  0.3442 -0.0523
15298TIP3    H167309   2.250   1.870  15.755  0.5733 -0.8244 -1.8568
15298TIP3    H267310   2.319   2.003  15.739  0.1785 -0.3778 -0.0319
15299TIP3   OH267311   2.964   1.430   3.434 -0.3652 -0.1853 -0.1528
15299TIP3    H167312   2.907   1.422   3.510 -1.7837 -1.1971 -1.2355
15299TIP3    H267313   2.964   1.342   3.396  2.2438 -0.2976 -0.0187
15300TIP3   OH267314   5.993   5.323  14.258  0.6750  0.7056 -1.0891
15300TIP3    H167315   5.968   5.381  14.330  1.8720  0.4722 -0.4641
15300TIP3    H267316   6.087   5.333  14.251  0.8190 -0.6828 -1.3912
15301TIP3   OH267317   2.028   1.766   0.230 -0.1981 -0.6665 -0.1575
15301TIP3    H167318   2.105   1.769   0.174 -0.4003  0.5517 -0.3852
15301TIP3    H267319   2.049   1.699   0.295  0.3361 -1.5697 -1.2367
15302TIP3   OH267320   2.043   2.343   0.116  0.0989 -0.2334  0.3632
15302TIP3    H167321   1.979   2.357   0.186  0.5669 -0.0447  0.7613
15302TIP3    H267322   2.019   2.406   0.048 -0.0476 -0.0607  0.5765
15303TIP3   OH267323   0.368   1.943   0.759 -0.4258 -0.1025 -0.1269
15303TIP3    H167324   0.345   1.872   0.699  0.1827 -0.3647 -0.0566
15303TIP3    H267325   0.452   1.916   0.796  1.4529  2.0837 -2.4344
15304TIP3   OH267326   0.504   2.985   0.228  0.1492  0.5096 -0.5657
15304TIP3    H167327   0.547   2.949   0.305  0.4677  0.5039 -0.7466
15304TIP3    H267328   0.493   3.078   0.248  1.7004  0.8494 -1.1704
15305TIP3   OH267329   0.718   0.943  10.826 -0.1399 -0.0392 -0.1266
15305TIP3    H167330   0.705   1.036  10.842  0.4701 -0.3302  2.4639
15305TIP3    H267331   0.813   0.932  10.828 -0.2412 -0.9179  1.2123
15306TIP3   OH267332   1.638   1.248   0.726 -0.0653 -0.8032  0.3061
15306TIP3    H167333   1.578   1.232   0.799  0.8218 -2.2762  0.7604
15306TIP3    H267334   1.721   1.209   0.755  0.1041 -2.1701 -1.8139
15307TIP3   OH267335   6.655   3.195   4.485  0.0825  0.2678  0.2478
15307TIP3    H167336   6.572   3.160   4.517 -1.3916  3.0128 -0.2405
15307TIP3    H267337   6.645   3.198   4.390  1.2032 -0.3867  0.0931
15308TIP3   OH267338   4.798   3.422   4.592 -0.1737  0.0433  0.4450
15308TIP3    H167339   4.851   3.359   4.543 -0.7740  1.2797 -1.9668
15308TIP3    H267340   4.714   3.423   4.546 -0.6078  1.6463  1.2160
15309TIP3   OH267341   2.800   5.624  14.096 -0.8496  0.3535  0.0293
15309TIP3    H167342   2.768   5.709  14.063 -0.6412  1.5262  2.5768
15309TIP3    H267343   2.742   5.604  14.170  0.3474 -0.7299  0.7085
15310TIP3   OH267344   3.797   6.267  14.340  0.0043  0.0249 -0.1134
15310TIP3    H167345   3.881   6.293  14.375  1.1077 -1.9416 -1.1031
15310TIP3    H267346   3.808   6.175  14.317 -2.2041 -0.1076 -0.9276
15311TIP3   OH267347   4.663   5.635  14.840  0.4915  0.2549  0.3283
15311TIP3    H167348   4.622   5.676  14.916  1.2698 -0.7382  1.3181
15311TIP3    H267349   4.593   5.629  14.775 -0.6371 -0.3657  1.5636
15312TIP3   OH267350   2.752   5.587  15.783  0.7013  0.6834 -0.0707
15312TIP3    H167351   2.760   5.584  15.878  2.9996 -1.5688 -0.2254
15312TIP3    H267352   2.841   5.571  15.751 -0.5334 -2.2577 -2.5254
15313TIP3   OH267353   1.456   4.820  11.871 -0.2389  0.8166 -0.4469
15313TIP3    H167354   1.489   4.760  11.938 -0.4991  1.0380 -0.1223
15313TIP3    H267355   1.450   4.904  11.915  1.7205  1.4865 -1.3463
15314TIP3   OH267356   0.479   4.488  13.434  0.6369  0.2230 -0.3349
15314TIP3    H167357   0.390   4.452  13.431  0.9276 -0.7995  1.6452
15314TIP3    H267358   0.533   4.421  13.392  0.4558  1.1027 -2.0737
15315TIP3   OH267359   1.609   0.449  15.188 -0.4746  0.0097  0.1659
15315TIP3    H167360   1.625   0.411  15.102 -0.8226 -3.4412  1.4852
15315TIP3    H267361   1.514   0.442  15.200 -0.6108  1.7152  0.3648
15316TIP3   OH267362   2.903   0.051   2.932  0.9485  0.2968 -0.2990
15316TIP3    H167363   2.813   0.081   2.945  0.8894 -0.1278  0.3158
15316TIP3    H267364   2.911   0.039   2.837  0.6958  1.3658 -0.4686
15317TIP3   OH267365   0.152   6.470   3.680 -0.1928  0.3136 -0.0876
15317TIP3    H167366   0.168   6.383   3.717  1.5948  1.1109  1.1557
15317TIP3    H267367   0.201   6.471   3.598  0.1556  0.2897  0.1193
15318TIP3   OH267368   3.961   3.612  16.962 -0.7737  0.0057 -0.3184
15318TIP3    H167369   3.972   3.643  17.051  2.9154 -0.2163 -0.5444
15318TIP3    H267370   3.897   3.542  16.969 -0.9896  0.3585  2.0573
15319TIP3   OH267371   6.134   1.403  11.881 -0.3631  0.0279  0.5547
15319TIP3    H167372   6.050   1.398  11.835 -0.3948 -0.1434  0.6327
15319TIP3    H267373   6.124   1.478  11.940 -0.1647  0.5363 -0.0371
15320TIP3   OH267374   5.649   2.554  16.636  0.3117  0.2316  0.3643
15320TIP3    H167375   5.661   2.643  16.604  0.4033  0.4008  0.8710
15320TIP3    H267376   5.555   2.546  16.650  0.4556  0.7370  1.7244
15321TIP3   OH267377   2.867   6.521  15.553  0.2083 -0.1843 -0.2597
15321TIP3    H167378   2.947   6.501  15.505  0.7793 -1.6690  1.2070
15321TIP3    H267379   2.827   6.435  15.570 -1.6686  0.5207 -0.8988
15322TIP3   OH267380   5.352   2.620  13.450 -0.3929  0.0041 -0.3194
15322TIP3    H167381   5.336   2.585  13.538 -0.8532 -1.7449 -1.0479
15322TIP3    H267382   5.409   2.555  13.409 -0.0496  0.8817 -1.2698
15323TIP3   OH267383   1.729   3.281   6.351 -0.1240 -0.2900  0.0985
15323TIP3    H167384   1.810   3.276   6.401 -0.8120  0.0575  1.2955
15323TIP3    H267385   1.675   3.210   6.386 -0.8915  0.4131  0.3896
15324TIP3   OH267386   0.524   5.885  13.948 -0.1016  0.3619 -0.3205
15324TIP3    H167387   0.447   5.831  13.966 -0.1821  0.5339 -0.1452
15324TIP3    H267388   0.584   5.866  14.019  0.4092 -0.4924 -0.9722
15325TIP3   OH267389   6.135   2.520  16.479 -0.0758 -0.0906  0.2791
15325TIP3    H167390   6.182   2.573  16.414  1.1683 -2.2012 -0.6325
15325TIP3    H267391   6.070   2.580  16.516  0.7276  1.8302 -1.2524
15326TIP3   OH267392   3.098   5.394   4.042  0.1518  0.5723 -0.5531
15326TIP3    H167393   3.067   5.482   4.063  1.0100  0.6529  0.4511
15326TIP3    H267394   3.183   5.407   4.000  0.3352  0.2225 -0.2974
15327TIP3   OH267395   1.542   0.108  17.132 -0.2536 -0.0081 -0.1237
15327TIP3    H167396   1.583   0.193  17.141 -0.7000  0.1826  0.1691
15327TIP3    H267397   1.614   0.045  17.132 -0.0392  0.1180  2.7548
15328TIP3   OH267398   4.097   5.106  15.537 -0.3468  0.3959  0.0060
15328TIP3    H167399   4.174   5.068  15.495  0.9357  1.6644  1.1141
15328TIP3    H267400   4.057   5.161  15.470  0.5974  0.9200 -0.1466
15329TIP3   OH267401   2.786   3.274  11.530 -0.7915  0.0641  0.1797
15329TIP3    H167402   2.834   3.231  11.459  0.2314  1.2341  0.1378
15329TIP3    H267403   2.715   3.322  11.485 -0.7291  0.0291  0.0428
15330TIP3   OH267404   5.701   3.882   4.339 -0.6686 -0.1516  0.5675
15330TIP3    H167405   5.733   3.916   4.256 -1.6151 -0.2190  0.1555
15330TIP3    H267406   5.633   3.944   4.366 -0.0192  0.1554  1.5596
15331TIP3   OH267407   2.120   4.593   4.324  0.1015  0.2543 -0.1236
15331TIP3    H167408   2.119   4.519   4.385  1.4896 -0.0603 -0.4423
15331TIP3    H267409   2.051   4.573   4.261  0.5708 -0.8908 -0.3101
15332TIP3   OH267410   6.076   1.172  15.542 -0.3856  0.2825  0.2522
15332TIP3    H167411   6.015   1.225  15.491  1.4843  1.8769 -0.4826
15332TIP3    H267412   6.155   1.226  15.548  0.1666 -0.6385  3.2484
15333TIP3   OH267413   0.188   2.746  11.798  0.7038 -0.2534 -0.3443
15333TIP3    H167414   0.266   2.703  11.834  1.6808  1.8692  0.2240
15333TIP3    H267415   0.189   2.721  11.705  0.9353 -1.8046  0.0370
15334TIP3   OH267416   1.470   2.815   3.778  0.1508 -0.1818 -0.5364
15334TIP3    H167417   1.499   2.792   3.866 -0.2323  2.4907  0.3654
15334TIP3    H267418   1.381   2.781   3.772  0.4590 -1.0833 -0.2333
15335TIP3   OH267419   1.223   4.178  16.903 -0.0038  0.5651  0.5208
15335TIP3    H167420   1.240   4.195  16.996 -1.1826  1.4880  0.5872
15335TIP3    H267421   1.242   4.261  16.860  0.8699  0.0440 -0.1332
15336TIP3   OH267422   4.797   2.143   3.254 -0.1557  0.2354  0.0862
15336TIP3    H167423   4.794   2.228   3.210 -1.4142 -1.0236 -2.4790
15336TIP3    H267424   4.889   2.115   3.248  0.1396  1.1074  0.4011
15337TIP3   OH267425   0.700   6.710  12.392  0.2724 -0.1074 -0.2194
15337TIP3    H167426   0.740   6.797  12.388 -0.5245  0.2253 -1.5304
15337TIP3    H267427   0.698   6.689  12.486 -1.9211  2.4519  0.4418
15338TIP3   OH267428   1.062   1.890  11.512  0.2110  0.5952 -0.1804
15338TIP3    H167429   0.968   1.873  11.519  0.2927  0.8887  2.2925
15338TIP3    H267430   1.070   1.937  11.429 -1.1391 -3.3262 -2.8228
15339TIP3   OH267431   1.752   0.355  11.352  0.2492  0.0278 -0.1187
15339TIP3    H167432   1.831   0.408  11.362  1.1788 -1.1734 -0.7150
15339TIP3    H267433   1.756   0.293  11.424  0.3202 -0.5777 -0.6291
15340TIP3   OH267434   5.329   0.665   5.838  0.2618 -0.2195 -0.2331
15340TIP3    H167435   5.268   0.698   5.904 -0.1087 -0.1371 -0.6136
15340TIP3    H267436   5.410   0.713   5.856  0.3531 -0.6417  0.5428
15341TIP3   OH267437   2.884   4.285  11.717  0.3700  0.0228  0.4389
15341TIP3    H167438   2.801   4.255  11.681  0.8161 -0.1317 -0.4827
15341TIP3    H267439   2.905   4.222  11.786  0.2582 -0.5551 -0.0541
15342TIP3   OH267440   5.038   5.611  12.991  0.0423 -0.1081 -0.5789
15342TIP3    H167441   5.088   5.554  12.932  0.3247  0.0844 -0.5244
15342TIP3    H267442   5.100   5.635  13.060  0.1696  0.9536 -1.0471
15343TIP3   OH267443   2.572   1.835  15.780 -0.1456  0.3236 -0.0967
15343TIP3    H167444   2.656   1.872  15.805  0.6885 -1.2574 -0.4062
15343TIP3    H267445   2.523   1.829  15.862  1.3124 -1.7590  0.7070
15344TIP3   OH267446   3.095   1.565   0.522 -0.0697  0.1006 -0.2390
15344TIP3    H167447   3.022   1.586   0.581 -0.9906 -1.6428 -0.6931
15344TIP3    H267448   3.055   1.514   0.452  1.6460 -1.3059 -0.2649
15345TIP3   OH267449   5.517   3.805  11.172 -0.4944  0.1300 -0.3791
15345TIP3    H167450   5.551   3.739  11.233 -0.7883  0.7179  0.4460
15345TIP3    H267451   5.484   3.755  11.098 -2.0490 -0.7891  0.8617
15346TIP3   OH267452   0.762   0.647  16.949  0.2732 -0.0542  0.0834
15346TIP3    H167453   0.764   0.589  17.025  1.5347 -0.6975 -0.4152
15346TIP3    H267454   0.673   0.683  16.949  0.2962  0.1051  1.9643
15347TIP3   OH267455   5.665   3.119  14.913  0.1538  0.6697 -0.1488
15347TIP3    H167456   5.608   3.117  14.990 -0.2169 -3.1832 -0.3262
15347TIP3    H267457   5.753   3.127  14.949 -0.1090  0.3555  0.5895
15348TIP3   OH267458   2.298   4.658  12.113  0.5824  0.4901 -0.5766
15348TIP3    H167459   2.384   4.667  12.156  0.8942  1.5808 -1.3918
15348TIP3    H267460   2.317   4.611  12.032  0.1923 -0.3831 -0.1815
15349TIP3   OH267461   1.912   0.649   5.244 -0.6906  0.6713 -0.1898
15349TIP3    H167462   1.837   0.702   5.269 -0.1462  1.4986 -0.2560
15349TIP3    H267463   1.884   0.602   5.166 -1.1286  0.9991 -0.2331
15350TIP3   OH267464   4.423   3.865  16.585  0.2353  0.0586  0.0671
15350TIP3    H167465   4.479   3.787  16.593 -0.8413 -0.7588 -0.0320
15350TIP3    H267466   4.387   3.876  16.673  0.7998  0.7818  0.2117
15351TIP3   OH267467   1.929   3.272  13.018 -0.1807  0.6130 -0.4631
15351TIP3    H167468   1.857   3.311  13.068  0.5093  0.7643  0.4314
15351TIP3    H267469   1.997   3.255  13.083 -0.0452 -1.1137 -1.0099
15352TIP3   OH267470   0.836   0.131   1.350 -0.2037  0.1327  0.3163
15352TIP3    H167471   0.800   0.045   1.370 -0.2389  0.0836  0.0417
15352TIP3    H267472   0.915   0.137   1.404 -1.8324  1.1846  2.7750
15353TIP3   OH267473   0.392   0.789  11.174  0.4941 -0.4733 -0.7803
15353TIP3    H167474   0.410   0.871  11.128  0.7408  1.0597  1.8684
15353TIP3    H267475   0.478   0.746  11.182  0.5685 -0.3730 -1.0330
15354TIP3   OH267476   1.218   3.533  10.682 -0.2003 -0.0266 -0.4035
15354TIP3    H167477   1.152   3.512  10.616  0.3674 -1.1923 -0.6268
15354TIP3    H267478   1.171   3.585  10.748 -0.7290  1.3497 -1.7957
15355TIP3   OH267479   0.706   1.566  14.481  0.1942  0.1409  0.1282
15355TIP3    H167480   0.747   1.647  14.510  0.3572  0.6550 -1.4350
15355TIP3    H267481   0.613   1.586  14.476  0.2538  0.3107 -0.4322
15356TIP3   OH267482   4.063   5.611   1.300 -0.0219 -0.3141  0.4183
15356TIP3    H167483   4.130   5.585   1.237 -2.2238 -4.7565 -0.5121
15356TIP3    H267484   4.089   5.567   1.381 -1.0255 -0.8844  0.4419
15357TIP3   OH267485   5.450   1.260   2.711 -0.0911  0.5577 -0.2181
15357TIP3    H167486   5.435   1.289   2.801 -0.7223  2.4334 -0.8759
15357TIP3    H267487   5.546   1.257   2.703  0.0278 -1.8740  1.1283
15358TIP3   OH267488   2.350   3.037   3.469  0.3260  0.0613  0.5987
15358TIP3    H167489   2.424   3.055   3.411 -0.1993 -0.8476 -0.3783
15358TIP3    H267490   2.334   2.943   3.461 -0.7659  0.1895  0.9960
15359TIP3   OH267491   0.624   0.949   2.400  0.2738 -0.2918 -0.1390
15359TIP3    H167492   0.588   1.016   2.342  0.4662  0.4423  0.5701
15359TIP3    H267493   0.547   0.903   2.433  0.0012  0.7938  0.8060
15360TIP3   OH267494   1.323   4.345  11.843 -0.3557 -0.0122  0.1642
15360TIP3    H167495   1.387   4.320  11.910 -0.1891  0.5747  0.2328
15360TIP3    H267496   1.376   4.372  11.768 -0.5002  1.0450  0.4297
15361TIP3   OH267497   6.017   4.711  10.423 -0.1873 -0.0971 -0.5243
15361TIP3    H167498   5.979   4.700  10.510 -0.4529  0.3772 -0.5720
15361TIP3    H267499   5.961   4.777  10.381 -0.6968 -1.0806 -1.4362
15362TIP3   OH267500   2.533   6.371  13.064  0.0861  0.2421 -0.0391
15362TIP3    H167501   2.516   6.277  13.058  0.2246  0.3005 -2.1918
15362TIP3    H267502   2.450   6.409  13.092  0.0816 -0.5268  1.0394
15363TIP3   OH267503   4.651   1.314  17.199 -0.1901  0.4099  0.3375
15363TIP3    H167504   4.579   1.294  17.139  0.0503 -0.5088  0.3343
15363TIP3    H267505   4.614   1.301  17.286 -0.5769  1.8711  0.4172
15364TIP3   OH267506   3.288   0.128  13.147  0.4688 -0.1604 -0.5751
15364TIP3    H167507   3.233   0.132  13.225  1.8235 -1.1247  0.4947
15364TIP3    H267508   3.281   0.037  13.118  1.8659 -0.4514 -0.0912
15365TIP3   OH267509   1.101   4.989   2.746 -0.0882 -0.1628  0.1619
15365TIP3    H167510   1.055   4.915   2.705  0.9780 -0.8315  0.1204
15365TIP3    H267511   1.038   5.060   2.745 -0.9127 -0.8784 -0.4370
15366TIP3   OH267512   5.143   3.907  11.723 -0.1432  0.7765  0.1694
15366TIP3    H167513   5.237   3.891  11.734 -0.2004 -0.2448 -0.7071
15366TIP3    H267514   5.109   3.827  11.684 -1.6193  0.6531  1.5833
15367TIP3   OH267515   0.939   4.594   2.735 -0.0210  0.1083  0.4445
15367TIP3    H167516   0.936   4.678   2.690  1.5253  0.4332  0.8838
15367TIP3    H267517   0.961   4.531   2.665 -1.3762 -0.0020  0.0782
15368TIP3   OH267518   0.578   0.239  12.788 -0.4427  0.9534  0.3054
15368TIP3    H167519   0.604   0.219  12.878  1.7590 -2.1118 -0.8420
15368TIP3    H267520   0.488   0.207  12.781  0.0311 -0.6026  0.9581
15369TIP3   OH267521   3.896   5.618  15.475  0.7850 -0.0140  1.1738
15369TIP3    H167522   3.891   5.659  15.562  0.8223  0.2749  1.0418
15369TIP3    H267523   3.957   5.674  15.426  0.1449  0.2846  0.7090
15370TIP3   OH267524   0.697   0.473  10.852  0.6546 -0.2345  0.0700
15370TIP3    H167525   0.761   0.404  10.872 -0.6287 -1.5077 -0.0808
15370TIP3    H267526   0.641   0.478  10.929 -0.0534 -0.2729 -0.4298
15371TIP3   OH267527   2.254   1.508   4.541 -0.7723 -0.1751 -0.1171
15371TIP3    H167528   2.268   1.498   4.447 -0.9664  0.4383 -0.2178
15371TIP3    H267529   2.217   1.424   4.569  1.1436 -1.0979 -0.2136
15372TIP3   OH267530   0.114   0.622  16.496  0.6486  0.3588 -0.2442
15372TIP3    H167531   0.115   0.616  16.591  0.4488 -1.9499 -0.3289
15372TIP3    H267532   0.196   0.581  16.468  0.6141  0.8244 -1.0694
15373TIP3   OH267533   6.217   4.623  13.015  0.7033 -0.1844  0.1286
15373TIP3    H167534   6.233   4.692  12.951 -1.3417 -0.7374 -1.0882
15373TIP3    H267535   6.122   4.615  13.018  0.8486 -2.2771  0.9708
15374TIP3   OH267536   3.009   3.329   1.281 -0.0808 -0.3561  0.3374
15374TIP3    H167537   2.918   3.327   1.310 -0.7556  1.4302 -1.3727
15374TIP3    H267538   3.048   3.401   1.329 -0.4702  0.8628 -1.0804
15375TIP3   OH267539   2.094   1.553   0.405  0.3180 -0.1939  0.3758
15375TIP3    H167540   2.156   1.574   0.475  0.5748 -1.3369  0.5074
15375TIP3    H267541   2.081   1.458   0.412  1.5370 -0.6255 -2.0648
15376TIP3   OH267542   1.855   0.061  11.030  0.0953 -0.5091 -0.3638
15376TIP3    H167543   1.823   0.151  11.018  1.0791  0.0753  1.1159
15376TIP3    H267544   1.907   0.044  10.951  0.7085  0.6085 -0.2222
15377TIP3   OH267545   4.501   0.658   2.418 -0.6392  0.5493  0.4874
15377TIP3    H167546   4.445   0.648   2.495 -1.2054  0.0694  0.0236
15377TIP3    H267547   4.554   0.578   2.416 -0.7537  0.4780  0.2808
15378TIP3   OH267548   5.894   5.358   4.154 -0.1381  0.1075 -0.1920
15378TIP3    H167549   5.880   5.298   4.227 -2.4182  1.9463  1.0202
15378TIP3    H267550   5.941   5.432   4.193  1.8265 -0.4131 -1.4541
15379TIP3   OH267551   4.118   2.910  16.234  0.5113  0.4794  0.2163
15379TIP3    H167552   4.082   2.917  16.146 -1.1884 -0.3164  0.8111
15379TIP3    H267553   4.054   2.956  16.290  1.1463  0.2722  1.1395
15380TIP3   OH267554   6.774   1.905   2.112  0.3465  0.0181  0.2742
15380TIP3    H167555   6.834   1.897   2.186 -0.1575  1.1160  0.8202
15380TIP3    H267556   6.713   1.833   2.122  0.4154  0.0319  0.7958
15381TIP3   OH267557   3.547   0.863   3.445  0.5458  0.2130 -0.5160
15381TIP3    H167558   3.580   0.849   3.356  1.9555  0.6092 -0.0883
15381TIP3    H267559   3.462   0.904   3.433 -0.4194 -2.0048 -1.6899
15382TIP3   OH267560   2.261   1.647   3.996 -0.5880 -0.1360 -1.1578
15382TIP3    H167561   2.236   1.734   3.965 -0.4835  0.0506 -0.7223
15382TIP3    H267562   2.334   1.622   3.939  0.7433  0.9256  0.0020
15383TIP3   OH267563   1.763   6.350  11.179 -0.1647 -0.2282  0.1186
15383TIP3    H167564   1.726   6.326  11.264 -0.1230 -0.7729 -0.0117
15383TIP3    H267565   1.776   6.445  11.184 -1.9588  0.0559  0.0251
15384TIP3   OH267566   4.950   6.227  12.957  0.4593  0.4626 -0.1664
15384TIP3    H167567   4.921   6.275  12.880 -2.3038  0.8164  0.9640
15384TIP3    H267568   4.988   6.294  13.014 -0.6259  0.8141  0.1615
15385TIP3   OH267569   5.376   5.289   2.334  0.1759  0.0313 -0.2321
15385TIP3    H167570   5.439   5.219   2.316 -0.3442 -0.7788  0.9509
15385TIP3    H267571   5.313   5.285   2.261  0.9151  0.1924 -0.8899
15386TIP3   OH267572   0.214   5.682  14.768  0.1535 -0.3383  0.5567
15386TIP3    H167573   0.238   5.707  14.678 -3.1427  1.5872  0.0462
15386TIP3    H267574   0.237   5.759  14.821 -2.8145  0.8234  0.3324
15387TIP3   OH267575   5.259   2.052   2.044  0.3026 -0.6312  0.5184
15387TIP3    H167576   5.265   1.977   1.984 -2.0690 -0.1087 -0.5101
15387TIP3    H267577   5.211   2.017   2.120 -1.4880 -0.0508 -0.2906
15388TIP3   OH267578   6.680   5.576   4.583  0.2512 -0.0945 -0.1570
15388TIP3    H167579   6.705   5.657   4.630 -0.2358 -0.3194  0.5075
15388TIP3    H267580   6.594   5.595   4.547  0.4843 -0.0404 -0.6946
15389TIP3   OH267581   1.730   0.866   0.515 -0.1159  0.4610  0.2041
15389TIP3    H167582   1.676   0.790   0.496 -0.1936  0.2393  1.2725
15389TIP3    H267583   1.689   0.937   0.465 -1.1250  0.1981  0.6263
15390TIP3   OH267584   4.690   4.353   6.060 -0.1924 -0.6101 -0.0074
15390TIP3    H167585   4.726   4.264   6.061 -0.0957 -0.5695  0.4975
15390TIP3    H267586   4.700   4.384   6.150 -0.7481 -0.2969 -0.0487
15391TIP3   OH267587   1.376   1.690   2.828  0.0592 -0.5872 -0.3902
15391TIP3    H167588   1.388   1.772   2.877  1.9532 -1.7973  1.3233
15391TIP3    H267589   1.294   1.654   2.862  0.1110 -0.2318  0.1181
15392TIP3   OH267590   4.273   2.432   1.897 -0.4587 -0.0444 -0.3219
15392TIP3    H167591   4.237   2.365   1.956  1.3990 -0.1230  0.7860
15392TIP3    H267592   4.220   2.510   1.915 -0.9424 -0.5040  0.3065
15393TIP3   OH267593   0.715   0.570   2.096  0.0060 -0.2816  0.1277
15393TIP3    H167594   0.720   0.625   2.018 -0.5306 -1.4525 -0.7475
15393TIP3    H267595   0.770   0.494   2.077 -0.1484 -0.5989  0.8796
15394TIP3   OH267596   0.014   1.928  17.063 -0.2554  0.4251 -0.1459
15394TIP3    H167597  -0.009   2.021  17.060 -3.3186 -0.1986  0.1475
15394TIP3    H267598  -0.004   1.901  17.153  0.3976 -0.4789 -0.2731
15395TIP3   OH267599   0.074   2.998  11.924  0.1172 -0.1590 -0.6855
15395TIP3    H167600   0.092   2.924  11.867 -1.0849 -0.7925 -0.2836
15395TIP3    H267601   0.140   2.991  11.994  0.6405 -0.2507 -1.1824
15396TIP3   OH267602   0.907   1.863  11.172 -0.5524 -0.1176 -0.2084
15396TIP3    H167603   0.989   1.912  11.179 -1.2442  1.4122 -2.0543
15396TIP3    H267604   0.933   1.774  11.150  0.6166  0.5585 -1.7028
15397TIP3   OH267605   5.713   1.800   2.311 -0.0574 -0.2418  0.8569
15397TIP3    H167606   5.708   1.726   2.251 -0.2701 -0.0858  0.6803
15397TIP3    H267607   5.807   1.820   2.317 -0.0084 -0.4714  0.8388
15398TIP3   OH267608   2.117   5.923  14.318 -0.4000  0.2554 -0.2340
15398TIP3    H167609   2.202   5.964  14.304  0.0253 -0.4483  0.2461
15398TIP3    H267610   2.137   5.834  14.346 -1.2922  0.0987 -0.0561
15399TIP3   OH267611   3.174   2.887  16.500  0.0072  0.5274 -0.0337
15399TIP3    H167612   3.126   2.851  16.574 -0.0844  1.7510  0.5177
15399TIP3    H267613   3.131   2.849  16.423  0.5230 -1.2732  0.5242
15400TIP3   OH267614   3.881   3.463   3.495  0.1453 -0.3257 -0.4046
15400TIP3    H167615   3.876   3.549   3.537 -2.2868  0.0478 -1.3112
15400TIP3    H267616   3.820   3.409   3.545  1.0368 -1.3069 -0.3578
15401TIP3   OH267617   2.675   4.815  16.280 -0.0931 -0.1300  0.4050
15401TIP3    H167618   2.627   4.895  16.299  0.5091  0.3668 -0.1006
15401TIP3    H267619   2.636   4.783  16.198 -0.1882 -0.2295  0.4898
15402TIP3   OH267620   1.200   6.630  16.397  0.3402  0.7711 -0.2844
15402TIP3    H167621   1.199   6.711  16.447  1.4096  1.1992 -0.9454
15402TIP3    H267622   1.291   6.617  16.371  0.2176 -0.7154 -0.0787
15403TIP3   OH267623   6.550   1.039   4.649  0.6241  0.2519  0.3436
15403TIP3    H167624   6.624   1.067   4.595  1.2816 -0.1684  1.0215
15403TIP3    H267625   6.536   1.112   4.710 -0.6588  1.1024 -0.8878
15404TIP3   OH267626   6.433   2.337  11.820  0.9527 -0.3182  0.3158
15404TIP3    H167627   6.482   2.416  11.799  1.3792 -0.6142  0.1832
15404TIP3    H267628   6.495   2.282  11.869  0.5111 -0.3713  0.8267
15405TIP3   OH267629   5.846   3.314  15.777  0.1372 -0.0858  0.5535
15405TIP3    H167630   5.896   3.249  15.827 -0.3096 -0.9641 -0.1022
15405TIP3    H267631   5.911   3.357  15.722  0.6355  0.8987  1.8518
15406TIP3   OH267632   5.001   3.783  11.996 -0.2528  0.0502  0.3217
15406TIP3    H167633   4.994   3.871  11.960 -0.8578 -0.6927 -1.4832
15406TIP3    H267634   4.916   3.743  11.978 -0.3050 -0.6283  1.9352
15407TIP3   OH267635   1.748   1.323   5.593 -0.5993 -0.3719  1.3838
15407TIP3    H167636   1.701   1.406   5.606 -2.8899 -1.4056  0.2620
15407TIP3    H267637   1.832   1.349   5.556 -0.8294  1.5012  2.0444
15408TIP3   OH267638   2.610   4.125   0.887 -0.3494 -0.5546 -0.6795
15408TIP3    H167639   2.667   4.179   0.943  0.1612 -0.4768 -1.2650
15408TIP3    H267640   2.644   4.036   0.896 -0.9399 -0.7233 -0.0320
15409TIP3   OH267641   5.926   3.292   5.359  0.6575  0.3346  0.4504
15409TIP3    H167642   5.885   3.373   5.388 -0.6316  0.0130 -0.4241
15409TIP3    H267643   5.873   3.223   5.399  1.6768 -0.1077  1.0966
15410TIP3   OH267644   0.848   0.460   0.884  0.0795 -0.0720 -0.1379
15410TIP3    H167645   0.905   0.390   0.917  0.4626  0.5350  0.5242
15410TIP3    H267646   0.759   0.428   0.899  0.2525 -0.4176  0.1574
15411TIP3   OH267647   0.076   5.408   3.680  0.4954 -0.1802 -0.1575
15411TIP3    H167648   0.046   5.471   3.746 -1.8137 -1.5311  0.1708
15411TIP3    H267649   0.149   5.453   3.636  0.3805  1.8083  1.5163
15412TIP3   OH267650   0.358   4.901   2.386  0.3957  0.0402  0.2678
15412TIP3    H167651   0.332   4.810   2.396 -2.7882  0.8774  0.6373
15412TIP3    H267652   0.427   4.914   2.451 -0.6877 -1.5553  1.8050
15413TIP3   OH267653   3.808   5.646   5.955 -0.1696 -0.6048 -0.1231
15413TIP3    H167654   3.870   5.583   5.919  0.6326  0.5032 -0.7430
15413TIP3    H267655   3.753   5.594   6.014  1.2133 -1.6699  0.3025
15414TIP3   OH267656   4.035   5.016   1.962 -0.1198  0.6812  0.1988
15414TIP3    H167657   3.967   5.080   1.984 -1.6567  0.2159 -2.6696
15414TIP3    H267658   4.084   5.057   1.891  0.3731 -0.3761 -0.0924
15415TIP3   OH267659   0.491   1.981  11.945 -0.1127 -0.6223  0.2331
15415TIP3    H167660   0.509   1.986  12.039 -1.3253 -1.0941  0.5011
15415TIP3    H267661   0.515   2.067  11.912  1.9201 -0.9757  0.6667
15416TIP3   OH267662   0.364   2.333  13.267 -0.0384 -0.5241  0.3523
15416TIP3    H167663   0.393   2.255  13.219  3.3595  0.1323  1.1000
15416TIP3    H267664   0.419   2.404  13.233 -1.1824  1.0195  1.5812
15417TIP3   OH267665   1.305   5.777  16.528 -0.4162 -0.4273  0.3566
15417TIP3    H167666   1.296   5.810  16.438  0.5584 -0.4801  0.2186
15417TIP3    H267667   1.323   5.855  16.580  1.7361 -0.6602  0.0547
15418TIP3   OH267668   5.847   5.838  17.084 -0.2527 -0.2552 -0.6390
15418TIP3    H167669   5.775   5.858  17.024 -0.6005  1.4658  0.2978
15418TIP3    H267670   5.925   5.869  17.038 -0.4217  0.2831 -0.5755
15419TIP3   OH267671   0.447   2.586   0.713 -0.1276 -0.0802  0.5347
15419TIP3    H167672   0.371   2.596   0.771 -1.1475  0.0295 -0.7745
15419TIP3    H267673   0.422   2.632   0.633  0.8092 -1.1646 -0.4073
15420TIP3   OH267674   4.850   0.676   1.651  0.2611  0.2322 -0.5353
15420TIP3    H167675   4.841   0.612   1.722  0.5001  1.6084  0.7947
15420TIP3    H267676   4.773   0.732   1.660  1.7022  2.1899  0.5496
15421TIP3   OH267677   3.965   3.765   3.271  0.8193 -0.1802  0.1230
15421TIP3    H167678   3.966   3.771   3.367 -0.4416 -2.5345  0.3559
15421TIP3    H267679   3.872   3.756   3.249  1.2117 -1.3527 -1.1692
15422TIP3   OH267680   1.953   1.838   2.965  0.4129  0.1461 -0.3630
15422TIP3    H167681   2.034   1.788   2.952  0.4658  0.5943 -1.8478
15422TIP3    H267682   1.942   1.889   2.885 -1.2440  0.2446 -0.1155
15423TIP3   OH267683   1.157   4.407  16.512  0.6270  0.2636 -0.1200
15423TIP3    H167684   1.091   4.338  16.503  0.8485  0.2356 -1.8042
15423TIP3    H267685   1.238   4.361  16.531  0.5346  0.1496 -0.0036
15424TIP3   OH267686   1.827   5.463  12.110  0.2684  0.1490  0.1344
15424TIP3    H167687   1.751   5.405  12.107 -0.8149  1.3687  1.9535
15424TIP3    H267688   1.829   5.503  12.023  0.1213 -1.4332 -0.6365
15425TIP3   OH267689   5.093   4.441  15.033  0.2720 -0.2607  0.5253
15425TIP3    H167690   5.178   4.414  15.067  0.5397 -1.7143 -1.1809
15425TIP3    H267691   5.029   4.394  15.086  0.4897  0.7806  1.7643
15426TIP3   OH267692   0.998   0.724  14.948  0.2872  0.3757 -0.3458
15426TIP3    H167693   0.952   0.801  14.913  1.0331  0.9868 -0.0181
15426TIP3    H267694   0.948   0.649  14.916 -0.8250  1.0144 -0.1722
15427TIP3   OH267695   2.415   4.983  13.381  0.2534  0.2216 -0.0696
15427TIP3    H167696   2.460   5.059  13.344  1.7869 -0.6046  0.0404
15427TIP3    H267697   2.483   4.934  13.426 -0.4180 -1.9385 -1.2821
15428TIP3   OH267698   4.513   1.004   5.693  0.0255 -0.0789  0.0274
15428TIP3    H167699   4.509   0.946   5.617 -0.7836 -1.4754  1.0865
15428TIP3    H267700   4.473   0.953   5.764  3.1215  0.0837  2.0708
15429TIP3   OH267701   0.616   5.432   0.976  0.0924 -0.0953 -0.0248
15429TIP3    H167702   0.665   5.382   0.911  1.8304  0.5514  0.7295
15429TIP3    H267703   0.651   5.520   0.970 -1.6718  0.6446 -0.0860
15430TIP3   OH267704   4.381   3.013   4.973  0.5067  0.2510 -0.1219
15430TIP3    H167705   4.371   3.108   4.980 -2.0720  0.1784 -1.5101
15430TIP3    H267706   4.356   2.979   5.059  0.9240  0.7987  0.2163
15431TIP3   OH267707   0.572   5.074  11.714  0.3137 -0.5385  0.4873
15431TIP3    H167708   0.484   5.068  11.750 -0.3542  0.6215 -0.8534
15431TIP3    H267709   0.560   5.069  11.619  1.6486 -0.0594  0.2643
15432TIP3   OH267710   6.698   2.357   3.203  0.6562  0.2236  1.0433
15432TIP3    H167711   6.615   2.404   3.199  1.3188  1.3778 -1.3669
15432TIP3    H267712   6.675   2.269   3.234 -0.7047  1.8361  5.1889
15433TIP3   OH267713   4.566   0.845  12.547 -0.2581 -0.2360 -0.4138
15433TIP3    H167714   4.507   0.919  12.532  0.8257  0.4429 -1.4309
15433TIP3    H267715   4.571   0.801  12.462  1.2865  0.1573 -0.5454
15434TIP3   OH267716   4.378   5.108  14.209 -0.0571  0.2053 -0.5383
15434TIP3    H167717   4.422   5.183  14.249  0.5323  0.7331 -2.0985
15434TIP3    H267718   4.288   5.114  14.240  0.0237  1.4637 -0.5131
15435TIP3   OH267719   0.739   4.076  12.491 -0.4586  0.1982  0.2638
15435TIP3    H167720   0.682   4.028  12.431 -1.9671  0.4690  1.4006
15435TIP3    H267721   0.749   4.162  12.451  0.8178 -0.4742 -0.9199
15436TIP3   OH267722   2.179   1.428  13.760 -0.5674 -0.2281 -0.4890
15436TIP3    H167723   2.102   1.483  13.775 -1.1163 -1.2072  0.5377
15436TIP3    H267724   2.142   1.343  13.735  0.2547 -0.1443 -2.0557
15437TIP3   OH267725   3.674   0.627   6.403  0.1505  0.4850  0.0874
15437TIP3    H167726   3.730   0.677   6.463  1.4395 -0.8828  0.0551
15437TIP3    H267727   3.645   0.552   6.454 -0.9925  0.7236 -0.1754
15438TIP3   OH267728   6.131   3.665   4.718  0.1834 -0.4199 -0.1687
15438TIP3    H167729   6.101   3.624   4.800 -0.3890 -0.2865 -0.3091
15438TIP3    H267730   6.212   3.709   4.742 -0.4188  0.3369  0.5356
15439TIP3   OH267731   4.612   0.188  12.872  0.3592  0.3995 -0.0028
15439TIP3    H167732   4.706   0.195  12.855  0.2014 -0.5738 -1.4802
15439TIP3    H267733   4.582   0.279  12.880  1.3490  0.7285  0.0347
15440TIP3   OH267734   5.961   3.863   5.087 -0.0431  0.3231 -0.1195
15440TIP3    H167735   6.026   3.914   5.134  0.9915 -1.3065  0.3102
15440TIP3    H267736   5.930   3.920   5.017 -1.8132  2.9391  2.5823
15441TIP3   OH267737   4.797   5.345   2.582 -0.3618  0.5852  0.0986
15441TIP3    H167738   4.860   5.415   2.600 -0.0694  0.4004 -0.1834
15441TIP3    H267739   4.786   5.300   2.666 -1.0402  1.3566  0.4341
15442TIP3   OH267740   6.462   3.431   1.858  0.3187 -0.0204  0.1008
15442TIP3    H167741   6.381   3.471   1.826  0.1355 -0.3857  0.1030
15442TIP3    H267742   6.531   3.488   1.826  0.1216 -0.2238 -0.7167
15443TIP3   OH267743   6.026   1.879  12.561 -0.8659 -0.2170 -0.0005
15443TIP3    H167744   6.017   1.966  12.521 -0.1758 -0.3912 -0.5515
15443TIP3    H267745   5.979   1.886  12.644  0.2622  1.0969  0.5718
15444TIP3   OH267746   5.004   5.632   4.051  0.1972  0.0951 -0.1090
15444TIP3    H167747   4.961   5.592   3.976 -2.0433  0.7105  0.7610
15444TIP3    H267748   5.005   5.563   4.118 -0.4640  0.4065  0.2317
15445TIP3   OH267749   3.772   0.678   1.743  1.0925  0.4816  0.4448
15445TIP3    H167750   3.816   0.595   1.761 -0.5945 -0.0451  2.5631
15445TIP3    H267751   3.694   0.654   1.695  0.0836  0.6736  1.9202
15446TIP3   OH267752   1.070   1.523  13.917 -0.6189  0.3169  0.2297
15446TIP3    H167753   1.028   1.484  13.993  0.0356 -0.4657  0.2030
15446TIP3    H267754   1.054   1.617  13.926 -0.7881  0.2029  1.1789
15447TIP3   OH267755   5.525   4.995   4.403 -0.9173  0.1390 -0.0524
15447TIP3    H167756   5.608   4.949   4.415 -1.3119 -0.5438  0.1555
15447TIP3    H267757   5.492   5.008   4.492 -0.8402  0.7760 -0.1140
15448TIP3   OH267758   5.804   6.149   0.666 -0.5266  0.4696  0.2443
15448TIP3    H167759   5.801   6.076   0.728 -0.6120  0.0625 -0.2308
15448TIP3    H267760   5.754   6.118   0.590 -1.7150  1.5327  0.5656
15449TIP3   OH267761   1.620   1.057  16.674  0.3606 -0.8789  0.0858
15449TIP3    H167762   1.668   1.077  16.594 -1.9785  5.3905 -0.2623
15449TIP3    H267763   1.670   1.099  16.744 -1.4391  0.5119  0.6092
15450TIP3   OH267764   3.727   5.506  12.582 -0.0628  0.3675 -0.1416
15450TIP3    H167765   3.693   5.573  12.523 -0.9277  1.1254  1.1581
15450TIP3    H267766   3.663   5.502  12.653  1.3227  0.0713  1.1590
15451TIP3   OH267767   6.748   0.578   6.158 -0.1701 -0.3432 -0.4420
15451TIP3    H167768   6.751   0.564   6.252 -1.9252  0.3782 -0.2377
15451TIP3    H267769   6.709   0.665   6.147  0.7162 -0.0791 -1.8287
15452TIP3   OH267770   3.071   5.682   0.021 -0.0231 -0.5396  0.1155
15452TIP3    H167771   3.135   5.740   0.061  2.5349 -2.9826 -0.1241
15452TIP3    H267772   3.018   5.651   0.095  1.8029 -1.6235  1.0464
15453TIP3   OH267773   2.397   1.976   5.816  0.2646  0.3665  0.6084
15453TIP3    H167774   2.429   1.974   5.906 -2.2084  0.5874  1.5726
15453TIP3    H267775   2.350   1.894   5.805 -0.8768  1.0666  0.1030
15454TIP3   OH267776   5.875   3.041  15.635  0.0574  0.3269 -0.3771
15454TIP3    H167777   5.795   3.094  15.634 -0.1921  0.1536  2.3377
15454TIP3    H267778   5.911   3.054  15.723  1.1261 -2.3456 -0.3196
15455TIP3   OH267779   0.178   2.965  13.243  0.1263  0.0569  0.1663
15455TIP3    H167780   0.198   3.044  13.193 -0.2013 -0.6648 -1.1607
15455TIP3    H267781   0.260   2.916  13.246  0.3977  0.5516  1.2194
15456TIP3   OH267782   3.040   6.610  14.983 -0.3565  0.2120 -0.2363
15456TIP3    H167783   3.077   6.685  14.937  1.8154 -0.3682  0.4421
15456TIP3    H267784   3.037   6.638  15.075 -3.2167  0.8106 -0.4126
15457TIP3   OH267785   0.575   4.313   3.870  0.5860 -0.0468  0.5114
15457TIP3    H167786   0.586   4.237   3.926  2.0526  0.0034  0.3322
15457TIP3    H267787   0.513   4.369   3.918 -0.8614 -1.5011  0.4355
15458TIP3   OH267788   0.856   0.796  15.247  0.7291 -0.0544  0.0495
15458TIP3    H167789   0.788   0.747  15.293  0.6323  1.6645  1.8639
15458TIP3    H267790   0.812   0.833  15.171  0.4115 -1.4073 -0.4451
15459TIP3   OH267791   6.266   2.067   2.826 -0.5955 -0.0466 -0.5388
15459TIP3    H167792   6.290   2.054   2.734  0.0240 -1.8858 -0.1552
15459TIP3    H267793   6.205   1.997   2.846 -1.3043  0.7731  0.2797
15460TIP3   OH267794   5.541   2.493   2.935  0.5038 -0.0183  0.9925
15460TIP3    H167795   5.471   2.483   2.999  1.5907 -0.8146  2.0887
15460TIP3    H267796   5.596   2.416   2.946  0.4249 -0.4934 -1.3201
15461TIP3   OH267797   5.151   3.374  16.658 -0.1521  0.1211 -0.3799
15461TIP3    H167798   5.150   3.465  16.686 -0.5228  0.4163 -1.2987
15461TIP3    H267799   5.114   3.376  16.569 -1.9776 -1.1705  0.3021
15462TIP3   OH267800   1.008   5.821   4.657 -0.2120  0.4090  0.1838
15462TIP3    H167801   1.005   5.738   4.705  1.9543  1.9271  3.2393
15462TIP3    H267802   1.081   5.811   4.596 -2.0966 -1.0217 -2.0163
15463TIP3   OH267803   4.974   1.554  14.488 -0.5560  0.0133  0.1309
15463TIP3    H167804   4.967   1.571  14.582 -1.3455  0.2340  0.0390
15463TIP3    H267805   4.951   1.638  14.447 -2.3050 -0.6205 -0.2874
15464TIP3   OH267806   1.917   1.273   4.876  0.2283  0.1717  0.0179
15464TIP3    H167807   1.963   1.324   4.943 -0.3363 -0.0411  0.5716
15464TIP3    H267808   1.926   1.182   4.905  4.0843 -0.5574 -2.5903
15465TIP3   OH267809   5.277   0.985   5.730  0.1409  0.5222  0.7696
15465TIP3    H167810   5.202   0.932   5.758  0.0426  1.2181  1.8746
15465TIP3    H267811   5.344   0.970   5.796  0.1987  1.5644  0.9707
15466TIP3   OH267812   3.877   2.654   1.697 -0.2909 -0.3325  0.3500
15466TIP3    H167813   3.789   2.664   1.660 -0.5737 -2.3647  0.3693
15466TIP3    H267814   3.864   2.613   1.782  0.6048  1.0477  1.2115
15467TIP3   OH267815   2.471   5.345   1.331  0.0182 -0.0162  0.1947
15467TIP3    H167816   2.543   5.283   1.321 -1.7465 -1.8286 -3.4717
15467TIP3    H267817   2.414   5.305   1.398  0.1771 -1.0583 -0.2685
15468TIP3   OH267818   5.954   3.024   5.902  0.0960 -0.4584  0.0200
15468TIP3    H167819   6.043   3.053   5.882  0.0209  0.9755  1.5922
15468TIP3    H267820   5.965   2.934   5.934  0.9104 -0.4673 -0.2614
15469TIP3   OH267821   3.460   4.050   3.408  0.7747  1.3949  0.6478
15469TIP3    H167822   3.428   4.018   3.323  0.1739 -0.9847  1.6864
15469TIP3    H267823   3.555   4.044   3.401  0.7382 -2.4575  1.2972
15470TIP3   OH267824   0.929   5.755  13.245 -0.2163 -0.3473  0.2865
15470TIP3    H167825   0.867   5.731  13.314 -2.5654  1.1895 -1.1623
15470TIP3    H267826   0.884   5.823  13.195  1.5167 -1.1148 -2.5354
15471TIP3   OH267827   5.369   3.316   1.143 -0.6473 -0.9028  0.1460
15471TIP3    H167828   5.346   3.277   1.059 -0.6111 -0.3337 -0.1330
15471TIP3    H267829   5.463   3.300   1.153 -0.7148 -1.2476  0.2278
15472TIP3   OH267830   2.810   4.380  16.890  0.0043 -0.2440  0.5354
15472TIP3    H167831   2.884   4.434  16.863  0.3650 -0.2989  1.3826
15472TIP3    H267832   2.798   4.318  16.818  2.3173 -1.8016  1.3995
15473TIP3   OH267833   1.883   6.109   4.718 -0.1181 -0.3727  0.1761
15473TIP3    H167834   1.852   6.040   4.777 -0.8465  0.5978  0.9702
15473TIP3    H267835   1.803   6.148   4.683  0.2958 -0.3490 -0.7836
15474TIP3   OH267836   5.523   4.003   2.442  0.0717  0.3809  0.2749
15474TIP3    H167837   5.596   4.017   2.382  0.7939 -0.0966  1.0120
15474TIP3    H267838   5.540   3.917   2.480 -0.1730  0.8172  1.4096
15475TIP3   OH267839   2.285   6.507  13.124  0.2725 -0.9063 -0.0215
15475TIP3    H167840   2.262   6.591  13.163  0.9664 -0.4796 -0.5069
15475TIP3    H267841   2.201   6.464  13.109 -0.1130 -0.1320 -0.1436
15476TIP3   OH267842   1.018   4.174   3.650 -0.3786 -0.1787  0.4382
15476TIP3    H167843   0.989   4.113   3.718  0.6221 -0.5116  0.5876
15476TIP3    H267844   1.111   4.188   3.669 -0.5576  1.2899  0.3232
15477TIP3   OH267845   0.924   6.637   4.362 -0.3982 -0.1867  0.2427
15477TIP3    H167846   0.952   6.597   4.280  0.3496 -0.9742  0.8668
15477TIP3    H267847   0.989   6.705   4.379 -1.2580  0.8364 -0.4425
15478TIP3   OH267848   6.219   0.853  15.749 -0.3201  0.2064  0.0445
15478TIP3    H167849   6.171   0.934  15.768 -1.0543 -0.3780  0.7230
15478TIP3    H267850   6.174   0.815  15.674 -0.7031 -0.1626  0.4597
15479TIP3   OH267851   4.255   2.976  10.891  0.5310 -0.0573 -0.6303
15479TIP3    H167852   4.239   2.900  10.835 -0.4549 -0.4630  0.1680
15479TIP3    H267853   4.210   2.955  10.973  2.4046  0.2785  0.5344
15480TIP3   OH267854   2.870   1.569   4.118  0.2102  0.1720  0.0798
15480TIP3    H167855   2.965   1.575   4.107  0.3261 -0.7379  0.5128
15480TIP3    H267856   2.844   1.496   4.062  0.2232 -1.6584  2.3085
15481TIP3   OH267857   4.749   3.056   1.396 -0.2460  0.4088 -0.3435
15481TIP3    H167858   4.729   3.070   1.488 -1.2607 -0.1600 -0.4574
15481TIP3    H267859   4.731   2.963   1.381 -0.2252  0.5197 -1.1401
15482TIP3   OH267860   2.790   3.494  12.994 -0.4230 -0.3429  0.1720
15482TIP3    H167861   2.851   3.468  13.063  0.0393  1.2007  0.3914
15482TIP3    H267862   2.825   3.577  12.961 -2.7206  0.9710  0.7481
15483TIP3   OH267863   4.339   6.094  11.279 -0.4697 -0.5669 -0.2163
15483TIP3    H167864   4.244   6.098  11.269 -0.5975 -2.5943 -0.1369
15483TIP3    H267865   4.358   6.002  11.293  1.3448  0.0209  1.6054
15484TIP3   OH267866   0.486   3.524   2.987 -0.1384 -0.3564  0.4820
15484TIP3    H167867   0.459   3.575   2.911 -0.3235 -1.7972 -0.4619
15484TIP3    H267868   0.502   3.589   3.055  0.5682  1.0368 -0.9357
15485TIP3   OH267869   0.431   6.127  14.940  0.2428 -0.0764  0.1234
15485TIP3    H167870   0.355   6.172  14.977  0.1314  0.0386 -0.2460
15485TIP3    H267871   0.504   6.156  14.995  0.1321  0.3513  0.0523
15486TIP3   OH267872   0.137   0.573   1.078 -0.4906  0.3439 -0.0529
15486TIP3    H167873   0.195   0.606   1.009  0.3119  1.7336  1.2235
15486TIP3    H267874   0.054   0.617   1.063 -1.0532 -1.1075 -1.4622
15487TIP3   OH267875   6.192   5.097  11.165 -0.2266 -0.6782 -0.3673
15487TIP3    H167876   6.151   5.131  11.086 -1.0809  0.8591  0.6847
15487TIP3    H267877   6.125   5.040  11.204  0.0782 -1.1869 -0.5693
15488TIP3   OH267878   6.361   2.453   3.549  0.2733 -0.7576 -0.7680
15488TIP3    H167879   6.412   2.517   3.597  0.7994  0.4996 -2.8572
15488TIP3    H267880   6.270   2.474   3.568  0.4231 -1.9724  1.6728
15489TIP3   OH267881   5.964   5.668  12.203  0.3482 -0.0022  0.5208
15489TIP3    H167882   6.007   5.642  12.285  1.6274  0.4174  0.0107
15489TIP3    H267883   6.029   5.722  12.158 -1.0330  1.3425  0.0642
15490TIP3   OH267884   1.694   1.400  14.540 -0.1956 -0.1176  0.5448
15490TIP3    H167885   1.695   1.462  14.468 -2.4792 -0.5247  0.0979
15490TIP3    H267886   1.751   1.329  14.511  0.8389  0.8140  0.2170
15491TIP3   OH267887   2.937   6.612   3.960  0.1507 -0.8886  0.1305
15491TIP3    H167888   2.861   6.634   3.906  1.7215 -1.2533 -2.3802
15491TIP3    H267889   2.907   6.541   4.016 -1.7765  0.0401  0.3595
15492TIP3   OH267890   4.412   1.619   2.458  0.1769  0.4570  0.3322
15492TIP3    H167891   4.447   1.610   2.369 -0.4210 -0.8804  0.2197
15492TIP3    H267892   4.489   1.613   2.515  0.5084  0.8721 -0.0612
15493TIP3   OH267893   3.092   1.489   2.728 -0.4213  0.2432  0.0802
15493TIP3    H167894   3.010   1.492   2.776 -1.3868 -1.5652 -1.3319
15493TIP3    H267895   3.067   1.489   2.636  0.9386 -2.5073 -0.4236
15494TIP3   OH267896   5.016   3.631  16.747 -0.2262 -0.2889  0.2186
15494TIP3    H167897   4.928   3.662  16.770  0.0052  0.4274  0.1833
15494TIP3    H267898   5.039   3.682  16.670  0.6505  0.3315  0.8654
15495TIP3   OH267899   1.374   0.553   3.564  0.3084 -0.5122 -0.2513
15495TIP3    H167900   1.376   0.632   3.510  1.0257  0.6442  1.3670
15495TIP3    H267901   1.403   0.583   3.651 -2.0483 -1.9671  1.1545
15496TIP3   OH267902   4.289   0.410  13.292  0.3143 -0.1749  0.2289
15496TIP3    H167903   4.286   0.470  13.367  0.7697 -1.1435  1.0423
15496TIP3    H267904   4.373   0.429  13.250  0.0566  0.3713 -0.0596
15497TIP3   OH267905   5.040   1.521   1.253 -0.0159 -0.4621  0.3692
15497TIP3    H167906   5.050   1.427   1.265 -0.4643 -0.3437  1.9745
15497TIP3    H267907   4.946   1.533   1.240  0.3396 -0.4860 -3.0082
15498TIP3   OH267908   1.745   4.004  13.467  0.7443  0.1673 -0.6576
15498TIP3    H167909   1.789   3.927  13.432  0.4966 -1.0153  1.4216
15498TIP3    H267910   1.803   4.077  13.444  1.6174 -0.7835 -1.6186
15499TIP3   OH267911   2.120   3.794  15.202 -0.1117 -0.1611  0.3658
15499TIP3    H167912   2.124   3.814  15.296  1.6468  3.1983 -0.2792
15499TIP3    H267913   2.187   3.851  15.163 -2.0778 -0.0380 -3.1593
15500TIP3   OH267914   2.003   5.954   3.065  0.1449  0.3245  0.2714
15500TIP3    H167915   2.077   6.000   3.105  0.0174  0.8746 -0.1112
15500TIP3    H267916   1.957   5.913   3.139  1.3784 -0.8570  0.4217
15501TIP3   OH267917   0.893   0.941  17.154 -0.3866  0.4323  0.0746
15501TIP3    H167918   0.942   0.931  17.236 -0.2195  2.2520  0.2373
15501TIP3    H267919   0.881   0.851  17.122  2.0815 -0.1350  0.5759
15502TIP3   OH267920   5.946   1.795  12.874  0.0875  0.7619 -0.2044
15502TIP3    H167921   5.852   1.786  12.863  0.0925 -0.3134  0.5175
15502TIP3    H267922   5.983   1.716  12.835  0.5758  0.4631  0.8297
15503TIP3   OH267923   4.017   6.648  16.936  0.5174  0.0470  0.6527
15503TIP3    H167924   3.991   6.591  16.864  0.5555  0.7904  0.0454
15503TIP3    H267925   3.990   6.601  17.015 -1.0766 -0.0016  0.1116
15504TIP3   OH267926   6.107   5.938   0.915 -0.6422 -0.0381 -0.2708
15504TIP3    H167927   6.135   6.028   0.900  2.4417 -0.9074 -0.3702
15504TIP3    H267928   6.168   5.884   0.864 -0.7023 -2.2877  1.8201
15505TIP3   OH267929   4.579   2.103   2.022 -0.1659  0.3254  0.1343
15505TIP3    H167930   4.583   2.166   1.951  0.6506 -0.3600 -0.4492
15505TIP3    H267931   4.485   2.096   2.043 -0.5446 -0.2855 -1.6318
15506TIP3   OH267932   2.043   1.434  16.122 -0.0860 -0.4885 -0.3071
15506TIP3    H167933   2.089   1.362  16.078  1.0571  0.2814 -0.4319
15506TIP3    H267934   1.974   1.392  16.173 -1.3377 -1.4437 -2.6598
15507TIP3   OH267935   2.077   0.362   3.297  0.0205 -0.2542 -0.2457
15507TIP3    H167936   2.051   0.436   3.352  0.9005  0.6952 -1.0494
15507TIP3    H267937   2.069   0.286   3.354  0.0965  0.5853  0.9327
15508TIP3   OH267938   3.510   0.268   1.020  0.4074  0.1164  0.8609
15508TIP3    H167939   3.502   0.296   0.929 -1.5694  1.0733  1.2788
15508TIP3    H267940   3.501   0.348   1.071 -0.6720 -0.6546  1.9459
15509TIP3   OH267941   2.842   2.292  14.779 -0.0288 -0.7611  0.0204
15509TIP3    H167942   2.806   2.257  14.697 -0.0879  0.8127 -0.6662
15509TIP3    H267943   2.765   2.312  14.832 -0.2327  1.4280 -0.9540
15510TIP3   OH267944   0.348   0.518  14.907 -0.4083  0.1190 -0.3586
15510TIP3    H167945   0.306   0.580  14.967  0.0455 -0.6361  0.7673
15510TIP3    H267946   0.431   0.560  14.882  0.0789 -0.1946  0.7075
15511TIP3   OH267947   1.733   0.061  12.113  0.0562  0.3042  0.6083
15511TIP3    H167948   1.738  -0.001  12.186  0.4241 -0.0942  0.2512
15511TIP3    H267949   1.690   0.138  12.150 -0.8765 -0.3477  0.9299
15512TIP3   OH267950   6.435   4.606   1.067 -0.4447  0.1481  0.2033
15512TIP3    H167951   6.498   4.592   1.137  0.8639 -0.4143 -1.0448
15512TIP3    H267952   6.477   4.669   1.008 -2.2758  2.0296  0.7977
15513TIP3   OH267953   0.283   3.298  15.337 -0.2252  0.4730  0.2251
15513TIP3    H167954   0.210   3.286  15.276  0.0460 -0.5311  0.0902
15513TIP3    H267955   0.246   3.278  15.422 -0.5447  1.6591  0.3910
15514TIP3   OH267956   2.672   5.008   3.830 -0.7277  0.0891  0.1479
15514TIP3    H167957   2.655   5.013   3.924 -1.8504  1.1124 -0.0828
15514TIP3    H267958   2.638   4.922   3.803 -0.4654 -0.1752  0.6454
15515TIP3   OH267959   6.217   3.227  16.825  0.3076 -0.2525 -0.2330
15515TIP3    H167960   6.194   3.298  16.764  0.2365  0.6394  0.8022
15515TIP3    H267961   6.310   3.240  16.843  0.5936 -1.1584 -0.9424
15516TIP3   OH267962   4.151   5.081  14.606 -0.4596 -0.0233 -0.0624
15516TIP3    H167963   4.122   5.144  14.673 -0.9278 -2.5027  2.2502
15516TIP3    H267964   4.107   4.999  14.630  0.6960 -1.4591 -2.4857
15517TIP3   OH267965   6.635   4.769  12.278  0.6868 -0.4714  0.1164
15517TIP3    H167966   6.690   4.840  12.309  0.8760 -0.4660 -0.2232
15517TIP3    H267967   6.654   4.696  12.337 -0.1340  0.0058  0.9835
15518TIP3   OH267968   5.703   3.681  15.578  0.6217  0.1615 -0.7802
15518TIP3    H167969   5.697   3.776  15.576  4.3546  0.5291 -0.9192
15518TIP3    H267970   5.686   3.657  15.670 -0.1376  0.9691 -0.7052
15519TIP3   OH267971   2.729   3.364   4.479 -0.3455 -0.6851 -0.1017
15519TIP3    H167972   2.779   3.439   4.447 -1.7228  0.4619  0.3295
15519TIP3    H267973   2.699   3.319   4.400  1.3058 -1.4000 -0.3691
15520TIP3   OH267974   2.230   1.842   5.026  0.3087  0.0887  0.5059
15520TIP3    H167975   2.215   1.927   5.067  0.5832  0.6674 -0.5530
15520TIP3    H267976   2.146   1.797   5.031 -1.1496  2.1116 -2.6980
15521TIP3   OH267977   1.143   5.854  15.089 -0.7176  0.6023 -0.5645
15521TIP3    H167978   1.048   5.859  15.104 -0.5529  1.1847  0.4295
15521TIP3    H267979   1.179   5.921  15.147  0.5841 -2.0007  1.8669
15522TIP3   OH267980   2.005   0.141  11.261 -0.2721 -0.3653  0.1972
15522TIP3    H167981   2.076   0.089  11.300 -1.0436 -1.5399  0.0630
15522TIP3    H267982   1.993   0.104  11.174  0.2004  1.0691 -0.5255
15523TIP3   OH267983   2.099   2.474   3.358  0.4319 -0.1427 -1.0245
15523TIP3    H167984   2.133   2.397   3.313 -0.7772 -0.5242 -1.3224
15523TIP3    H267985   2.111   2.546   3.296  0.9006 -0.2220 -1.0289
15524TIP3   OH267986   0.469   4.415   2.635 -0.4398 -0.3888 -0.3536
15524TIP3    H167987   0.425   4.497   2.654 -0.7677  0.2940 -3.4230
15524TIP3    H267988   0.562   4.435   2.642 -0.5411 -0.2240  0.5372
15525TIP3   OH267989   0.593   1.345   1.068  0.2110 -0.1469  0.3404
15525TIP3    H167990   0.593   1.289   0.990 -1.6948  0.0317  0.1717
15525TIP3    H267991   0.578   1.285   1.141  1.8722 -0.2972  0.5953
15526TIP3   OH267992   4.040   5.521  12.217  0.3826  0.4983  0.0932
15526TIP3    H167993   4.114   5.531  12.157 -0.0686  0.9609 -0.3895
15526TIP3    H267994   3.964   5.506  12.160  0.0110  0.5672  0.5596
15527TIP3   OH267995   3.956   4.273   2.526 -0.3145 -0.2702 -0.1447
15527TIP3    H167996   4.047   4.286   2.500 -0.5638  0.7688 -0.5510
15527TIP3    H267997   3.905   4.297   2.448 -1.0751  2.7378  1.1132
15528TIP3   OH267998   4.566   2.171   2.949  0.5284  0.1330  0.2931
15528TIP3    H167999   4.628   2.228   2.905 -1.1361  0.6901 -1.4515
15528TIP3    H268000   4.592   2.083   2.924  2.9717 -0.0034  2.8189
15529TIP3   OH268001   0.867   5.923   0.996 -0.2974  0.2788  0.6607
15529TIP3    H168002   0.868   5.972   0.914  0.4902  0.6088  0.8602
15529TIP3    H268003   0.820   5.980   1.057 -1.1604 -0.1008  0.3744
15530TIP3   OH268004   3.968   3.618  11.500 -0.6580  0.4983 -0.0043
15530TIP3    H168005   3.998   3.539  11.545 -0.1252  0.4812 -0.3883
15530TIP3    H268006   4.019   3.621  11.419 -1.5551  0.5679 -0.5883
15531TIP3   OH268007   1.915   6.065  14.464  0.1388  0.5182  0.0246
15531TIP3    H168008   1.978   6.002  14.431 -0.3029 -0.5805  1.2268
15531TIP3    H268009   1.965   6.121  14.523  0.0979 -0.0560  0.6102
15532TIP3   OH268010   4.644   0.735   2.714  0.9263 -0.3514  0.3644
15532TIP3    H168011   4.738   0.735   2.699  0.6577 -0.4153 -1.6045
15532TIP3    H268012   4.613   0.655   2.670 -0.0263 -0.4506  1.1729
15533TIP3   OH268013   1.277   3.024   1.749 -0.3103 -0.0921 -0.0787
15533TIP3    H168014   1.347   2.960   1.744 -0.6891 -0.5132 -0.0055
15533TIP3    H268015   1.254   3.043   1.658 -2.1230 -2.1896 -0.1388
15534TIP3   OH268016   5.475   0.889   5.900  0.6987 -0.1151 -0.0569
15534TIP3    H168017   5.480   0.933   5.985 -1.3782 -0.8400  0.5102
15534TIP3    H268018   5.566   0.883   5.870  1.3378  1.5681  1.3591
15535TIP3   OH268019   0.622   1.700   3.939  0.1084  0.2447  0.9098
15535TIP3    H168020   0.635   1.695   4.034 -0.3918  0.4686  0.9932
15535TIP3    H268021   0.538   1.743   3.929  0.1956  0.2886  0.3576
15536TIP3   OH268022   2.350   0.207  14.610 -0.0506 -0.1366  0.2619
15536TIP3    H168023   2.267   0.191  14.565  0.6081  0.4366 -1.2289
15536TIP3    H268024   2.364   0.128  14.662 -3.1154  1.0511  3.2556
15537TIP3   OH268025   2.876   0.264  11.971 -0.8413  0.0221 -0.2829
15537TIP3    H168026   2.969   0.265  11.994 -1.1587  0.1250  1.1065
15537TIP3    H268027   2.833   0.226  12.048 -2.0693  1.0733 -0.4217
15538TIP3   OH268028   1.238   5.892   1.132 -0.2458  0.1421 -0.0640
15538TIP3    H168029   1.316   5.851   1.094  0.3844  1.0370  0.2478
15538TIP3    H268030   1.249   5.881   1.227 -0.5936  0.1038 -0.0279
15539TIP3   OH268031   2.147   5.494  15.438  0.2062 -0.4010 -0.0961
15539TIP3    H168032   2.071   5.457  15.483 -1.1229  2.5432  0.3476
15539TIP3    H268033   2.190   5.549  15.503  0.6617  0.7014 -1.2679
15540TIP3   OH268034   4.685   5.786   4.886 -0.4055  0.3114  0.4549
15540TIP3    H168035   4.714   5.708   4.934 -0.6221 -1.1908 -1.6934
15540TIP3    H268036   4.764   5.817   4.841 -0.7656 -0.0680 -0.4799
15541TIP3   OH268037   1.248   1.710   1.122  0.1766 -0.3215 -0.0660
15541TIP3    H168038   1.302   1.659   1.183  1.4320 -0.1673 -1.0089
15541TIP3    H268039   1.312   1.753   1.064 -0.9276  0.8555 -0.4382
15542TIP3   OH268040   4.924   1.076  10.246  0.3388  0.8685 -0.1104
15542TIP3    H168041   4.917   1.152  10.303 -0.7583  1.6539 -1.2365
15542TIP3    H268042   4.954   1.111  10.162  4.6670 -0.6002  0.5968
15543TIP3   OH268043   2.800   5.780  13.092  0.1828  0.3040 -0.4421
15543TIP3    H168044   2.764   5.842  13.155 -1.9377 -0.1821 -1.0883
15543TIP3    H268045   2.812   5.699  13.142 -0.4084  0.2460 -0.3863
15544TIP3   OH268046   5.665   0.774  14.547 -0.4053  0.7434 -0.2762
15544TIP3    H168047   5.748   0.802  14.586 -1.2472  0.4836  1.8301
15544TIP3    H268048   5.691   0.714  14.477  1.1824 -0.9547  1.6361
15545TIP3   OH268049   2.053   3.040  17.035  0.0235 -0.7711 -0.2149
15545TIP3    H168050   2.124   3.076  17.088 -1.0610 -1.4501  1.8068
15545TIP3    H268051   2.096   2.979  16.975  1.1938 -0.8408  0.6605
15546TIP3   OH268052   1.316   2.150   3.896  0.0360  0.1756  0.5211
15546TIP3    H168053   1.407   2.180   3.885  0.0679 -0.1601 -0.2366
15546TIP3    H268054   1.269   2.228   3.924  0.2228  0.8384 -0.8803
15547TIP3   OH268055   0.500   3.237   1.806  0.0627  0.6279  0.8884
15547TIP3    H168056   0.405   3.230   1.796  0.0697 -0.2179  1.2836
15547TIP3    H268057   0.518   3.194   1.889  1.0661 -1.6480 -0.4168
15548TIP3   OH268058   5.899   4.935   0.629  0.7532 -0.2133  0.0471
15548TIP3    H168059   5.965   4.936   0.559  2.1462  1.5974  1.2953
15548TIP3    H268060   5.835   5.001   0.603  2.0885  1.5940  1.1325
15549TIP3   OH268061   4.463   2.827   2.348  0.2437 -0.9288 -0.3002
15549TIP3    H168062   4.492   2.877   2.272 -0.0840 -2.1096 -1.2524
15549TIP3    H268063   4.472   2.887   2.422  0.7886  0.1832 -1.2334
15550TIP3   OH268064   3.307   2.600   1.215  0.0623  0.4503 -0.0105
15550TIP3    H168065   3.388   2.631   1.174 -0.2101  0.0710 -0.8512
15550TIP3    H268066   3.328   2.510   1.242  0.0387  0.4789  0.1013
15551TIP3   OH268067   5.321   0.806  12.255 -0.2461 -0.4223 -0.5111
15551TIP3    H168068   5.316   0.773  12.166  1.3886  1.4518 -1.3817
15551TIP3    H268069   5.404   0.772  12.289 -0.9530 -1.2942  0.4050
15552TIP3   OH268070   5.747   2.680   2.072 -0.0853  0.5897 -0.1692
15552TIP3    H168071   5.756   2.731   1.991  1.2812  2.0180  0.8295
15552TIP3    H268072   5.837   2.668   2.102 -0.3480 -2.3656 -0.2840
15553TIP3   OH268073   3.226   2.519  13.741 -0.0370  0.1958 -0.0132
15553TIP3    H168074   3.164   2.539  13.671 -1.3418 -0.2362  0.9767
15553TIP3    H268075   3.225   2.597  13.798 -1.3280 -0.6271  1.1501
15554TIP3   OH268076   5.311   6.683   0.982  0.0592 -0.4467 -0.2903
15554TIP3    H168077   5.245   6.652   1.045  1.7016 -2.4694  0.5464
15554TIP3    H268078   5.393   6.683   1.031  0.8884  1.0811 -1.5723
15555TIP3   OH268079   2.986   3.215   5.258 -0.4796  0.1896  0.2049
15555TIP3    H168080   2.920   3.282   5.241 -0.7487  0.3622  1.7792
15555TIP3    H268081   2.939   3.146   5.306 -0.3321 -1.4117 -1.8140
15556TIP3   OH268082   0.061   2.775   5.602 -0.5239  0.5339 -0.2856
15556TIP3    H168083   0.102   2.855   5.568  0.7494 -0.0001 -0.0550
15556TIP3    H268084   0.077   2.709   5.534  1.6115 -0.4152  1.0138
15557TIP3   OH268085   4.932   4.670  11.468 -0.1256  0.3727 -0.6022
15557TIP3    H168086   5.017   4.628  11.456 -0.5415 -1.3086  1.6733
15557TIP3    H268087   4.868   4.604  11.442 -0.7717  0.9608 -0.5309
15558TIP3   OH268088   3.815   1.132  13.392  0.2827 -0.2512 -0.3922
15558TIP3    H168089   3.754   1.203  13.411  1.3816  0.5404  0.3552
15558TIP3    H268090   3.777   1.055  13.435  0.0994  0.3566  0.5690
15559TIP3   OH268091   3.171   4.633  13.756 -0.0793 -0.6556  0.2514
15559TIP3    H168092   3.203   4.721  13.775  0.9637 -0.4501 -2.1070
15559TIP3    H268093   3.224   4.576  13.812  1.9737 -0.0220 -0.9414
15560TIP3   OH268094   5.331   3.350   3.460  0.2116  0.1447  0.3075
15560TIP3    H168095   5.356   3.433   3.419  2.4651 -1.1571 -1.1873
15560TIP3    H268096   5.272   3.309   3.396  2.0243 -0.9424 -0.7560
15561TIP3   OH268097   6.635   0.974   3.474  0.1964 -0.2638  0.8585
15561TIP3    H168098   6.729   0.971   3.458 -0.0585  1.1983 -1.4550
15561TIP3    H268099   6.600   0.900   3.425  0.0130  0.2778  0.1454
15562TIP3   OH268100   4.650   2.035  11.281  0.1644  0.3962  0.4143
15562TIP3    H168101   4.648   2.087  11.201  2.9844 -2.0425 -1.4229
15562TIP3    H268102   4.570   1.982  11.277  0.2179  0.3832 -0.7112
15563TIP3   OH268103   4.693   4.822   3.315 -0.2928 -0.4366  0.2668
15563TIP3    H168104   4.662   4.751   3.259  1.6062 -1.1917  0.0772
15563TIP3    H268105   4.708   4.781   3.400 -1.2053  0.2366  0.7628
15564TIP3   OH268106   5.722   1.704   2.853  0.3569 -0.1413  0.0341
15564TIP3    H168107   5.736   1.744   2.767 -0.4097 -1.7359 -0.8861
15564TIP3    H268108   5.630   1.676   2.851 -0.5809  2.3341  2.5177
15565TIP3   OH268109   3.407   5.198   1.447  0.2212  0.2887 -0.1535
15565TIP3    H168110   3.391   5.110   1.479  0.6043 -0.6437 -2.3184
15565TIP3    H268111   3.502   5.211   1.457  0.0936  0.6649  0.6206
15566TIP3   OH268112   5.136   6.569  14.068 -0.5144 -0.3137  0.1124
15566TIP3    H168113   5.135   6.481  14.105 -1.2988  0.0648  1.0460
15566TIP3    H268114   5.043   6.591  14.058 -0.3372 -0.4388 -2.2266
15567TIP3   OH268115   3.281   1.770   5.672  0.0843 -0.2065  0.1234
15567TIP3    H168116   3.365   1.762   5.718 -0.2366 -0.2095  0.7108
15567TIP3    H268117   3.215   1.747   5.737 -0.5160  1.8605  0.2962
15568TIP3   OH268118   4.692   1.511  11.951  0.1642 -0.0562 -0.1600
15568TIP3    H168119   4.627   1.454  11.909  1.8724 -1.3860 -1.1116
15568TIP3    H268120   4.775   1.463  11.942  1.2401  1.4663  1.2529
15569TIP3   OH268121   6.254   0.115   5.783  0.6610 -0.5429 -0.3780
15569TIP3    H168122   6.181   0.069   5.742  0.6371  0.8115 -1.9693
15569TIP3    H268123   6.225   0.134   5.872 -0.7869 -0.3581 -0.8650
15570TIP3   OH268124   4.266   3.523  10.897 -0.3453  0.4255  0.1690
15570TIP3    H168125   4.203   3.501  10.965 -1.4725  0.2900 -0.8977
15570TIP3    H268126   4.265   3.448  10.838  0.2341  0.7617 -0.2818
15571TIP3   OH268127   3.264   4.642   4.515  0.0117 -0.1733 -0.3224
15571TIP3    H168128   3.224   4.671   4.597  1.1590  0.7253 -0.0432
15571TIP3    H268129   3.326   4.712   4.494  1.1049 -1.3057 -0.9544
15572TIP3   OH268130   2.350   4.359  17.102  0.2660 -0.3147  0.0554
15572TIP3    H168131   2.286   4.319  17.161  0.5718  0.8117  1.2132
15572TIP3    H268132   2.411   4.288  17.081 -0.0356 -0.8247  0.8510
15573TIP3   OH268133   0.532   0.425  15.589 -0.0404  0.1738 -0.1820
15573TIP3    H168134   0.553   0.487  15.519  0.2139 -0.4015 -0.6266
15573TIP3    H268135   0.495   0.479  15.659 -3.8129  0.3754 -2.1214
15574TIP3   OH268136   2.646   0.851   3.547 -0.3128 -0.1441  0.2138
15574TIP3    H168137   2.735   0.826   3.571  0.1734  2.0139  0.8057
15574TIP3    H268138   2.599   0.767   3.543  1.2429 -1.1914  1.8963
15575TIP3   OH268139   4.424   3.847  10.774 -0.0938 -0.0702  0.3550
15575TIP3    H168140   4.451   3.806  10.856 -0.4093 -0.9363  0.0458
15575TIP3    H268141   4.358   3.911  10.799 -0.5189 -0.6458  0.7490
15576TIP3   OH268142   5.183   2.900  14.817  0.5495  0.0416 -0.1922
15576TIP3    H168143   5.189   2.816  14.863  2.5134  0.1553 -0.1787
15576TIP3    H268144   5.139   2.958  14.880  0.4760 -0.5893  0.3506
15577TIP3   OH268145   2.747   5.591  15.313  0.1552 -0.0515  0.3491
15577TIP3    H168146   2.699   5.508  15.311  1.3461 -0.7956  0.8796
15577TIP3    H268147   2.724   5.630  15.398 -1.1863  0.6684 -0.3259
15578TIP3   OH268148   3.486   5.712  10.894 -0.0814  0.1576 -0.5176
15578TIP3    H168149   3.512   5.623  10.873 -1.3310 -0.7121  1.3645
15578TIP3    H268150   3.430   5.739  10.821 -1.1450 -1.2958 -0.2884
15579TIP3   OH268151   3.283   4.926  15.161 -0.0391 -0.1897 -0.4435
15579TIP3    H168152   3.216   4.930  15.228  0.3374 -1.4537  0.0265
15579TIP3    H268153   3.254   4.989  15.094  0.2586  2.1146  1.4549
15580TIP3   OH268154   6.420   0.741   2.894 -0.1168  1.0798 -0.8389
15580TIP3    H168155   6.509   0.747   2.929 -0.1806 -0.0756 -0.4409
15580TIP3    H268156   6.365   0.722   2.970 -0.4236 -0.2357 -1.3513
15581TIP3   OH268157   3.648   2.484   0.860  0.4367 -0.3004  0.1150
15581TIP3    H168158   3.612   2.535   0.932 -0.6764 -0.3317 -0.4100
15581TIP3    H268159   3.603   2.400   0.865 -1.0268  0.3122 -1.7065
15582TIP3   OH268160   4.808   4.902  11.960 -0.5177 -0.4039 -0.8662
15582TIP3    H168161   4.894   4.877  11.993 -0.6969  0.5350  0.3384
15582TIP3    H268162   4.818   4.993  11.932 -0.9150 -0.5468 -1.5125
15583TIP3   OH268163   1.088   4.042   2.022  0.4123 -0.2333 -0.0710
15583TIP3    H168164   1.109   4.030   1.930  2.7744 -0.7357  0.4781
15583TIP3    H268165   1.060   3.956   2.053 -2.0366  0.2803 -0.6293
15584TIP3   OH268166   0.266   1.020  16.442  0.0760  0.0807  0.4846
15584TIP3    H168167   0.258   1.100  16.391 -0.9120 -0.2826  0.0378
15584TIP3    H268168   0.182   1.011  16.487  0.2280 -0.6253  0.6495
15585TIP3   OH268169   6.325   2.109  13.143  0.3247  0.6022  0.1588
15585TIP3    H168170   6.363   2.046  13.082  0.4047  0.2231  0.5968
15585TIP3    H268171   6.359   2.194  13.114 -0.4033  0.5506 -0.9171
15586TIP3   OH268172   3.705   1.213  11.919 -0.0108 -0.7223  0.6828
15586TIP3    H168173   3.719   1.140  11.859 -1.9866 -3.2715  3.1152
15586TIP3    H268174   3.623   1.253  11.890 -1.8476 -2.9650  2.4417
15587TIP3   OH268175   0.224   2.473  11.054  0.1011 -0.3850 -0.4641
15587TIP3    H168176   0.228   2.566  11.032 -1.4264 -0.0255  0.5794
15587TIP3    H268177   0.305   2.436  11.020  0.3452  1.1645 -1.6490
15588TIP3   OH268178   3.794   5.569  12.111 -0.6531 -0.1548  0.5811
15588TIP3    H168179   3.756   5.546  12.195 -2.9259 -1.0754 -0.6096
15588TIP3    H268180   3.726   5.548  12.047  0.7924  0.9806 -1.4587
15589TIP3   OH268181   1.882   3.784   2.901  0.0922  0.8494  0.2163
15589TIP3    H168182   1.842   3.815   2.819  1.9032  1.9912 -0.2884
15589TIP3    H268183   1.947   3.850   2.922 -0.8410  0.9690  3.0310
15590TIP3   OH268184   6.128   1.813   6.136  0.0947 -0.1612  0.0100
15590TIP3    H168185   6.198   1.836   6.198 -0.7958  1.3645  0.4983
15590TIP3    H268186   6.050   1.855   6.171 -1.0259 -1.5462 -0.7173
15591TIP3   OH268187   3.018   5.612  10.395 -0.3632  0.4462  0.1241
15591TIP3    H168188   3.020   5.581  10.305 -1.8479 -0.9055  0.5167
15591TIP3    H268189   3.084   5.682  10.397  0.4250 -0.1601 -1.7325
15592TIP3   OH268190   5.853   1.957   1.322 -0.3620 -0.2017  0.0117
15592TIP3    H168191   5.811   2.034   1.283 -0.7973 -0.1816  0.5016
15592TIP3    H268192   5.849   1.973   1.416 -2.5181 -1.8434  0.2804
15593TIP3   OH268193   5.265   2.011  13.610  0.0155  0.1818  0.2242
15593TIP3    H168194   5.207   1.949  13.567 -0.3023  1.0213 -0.5941
15593TIP3    H268195   5.348   2.003  13.564  0.5320 -0.9230  1.3074
15594TIP3   OH268196   1.284   1.416   3.599 -0.8362  0.5749 -0.1963
15594TIP3    H168197   1.306   1.418   3.506  0.1223  0.3019  0.0157
15594TIP3    H268198   1.303   1.504   3.631 -1.5231  0.7787 -0.3274
15595TIP3   OH268199   0.783   4.958   3.820 -0.2502  0.2830 -1.0463
15595TIP3    H168200   0.764   4.957   3.914  0.6777 -2.3754 -0.7957
15595TIP3    H268201   0.796   5.051   3.799  0.4654  0.8888  1.6599
15596TIP3   OH268202   6.452   5.578   0.213 -0.4013 -1.2283 -0.1892
15596TIP3    H168203   6.419   5.533   0.134 -0.9099  0.8945 -1.2544
15596TIP3    H268204   6.485   5.661   0.180 -1.0391 -0.0902  1.9242
15597TIP3   OH268205   4.110   1.912  15.343 -0.5443 -0.5443 -0.0373
15597TIP3    H168206   4.052   1.921  15.268 -0.5299  2.3541  0.1523
15597TIP3    H268207   4.196   1.942  15.311 -0.4119  0.1832  0.9274
15598TIP3   OH268208   6.064   2.250   4.816 -0.2206 -0.0842  0.7793
15598TIP3    H168209   6.012   2.256   4.897 -0.2197 -2.2207  0.9967
15598TIP3    H268210   6.154   2.238   4.846 -0.2286 -0.9530  0.4699
15599TIP3   OH268211   2.850   3.846  14.538  0.2912  0.2400  0.3887
15599TIP3    H168212   2.878   3.785  14.469  0.7423 -0.4481  1.1542
15599TIP3    H268213   2.849   3.932  14.495 -1.3100 -0.4037 -0.9806
15600TIP3   OH268214   0.079   3.487   4.793  0.2307 -0.3536  0.4946
15600TIP3    H168215   0.021   3.552   4.831  0.4472 -0.8144  1.6444
15600TIP3    H268216   0.034   3.404   4.806  0.8450 -0.6420  0.8093
15601TIP3   OH268217   4.983   3.074   3.443 -0.0799 -0.0586  0.1084
15601TIP3    H168218   4.998   3.033   3.357  0.8849  1.1702 -0.3350
15601TIP3    H268219   5.070   3.080   3.482 -0.5149 -0.6234  1.2062
15602TIP3   OH268220   3.164   2.952   5.682 -0.5395  0.1061  0.0175
15602TIP3    H168221   3.097   3.020   5.676 -0.0386  0.5764 -0.2889
15602TIP3    H268222   3.116   2.870   5.670 -0.8861  0.4964 -1.4812
15603TIP3   OH268223   1.564   3.098  12.438  0.3260  0.0233 -0.2542
15603TIP3    H168224   1.563   3.190  12.465  0.0850 -0.4268  1.4200
15603TIP3    H268225   1.657   3.075  12.434  0.4026 -0.4097  2.3010
15604TIP3   OH268226   3.940   1.439  14.246  0.4425  0.0672  0.0277
15604TIP3    H168227   3.936   1.410  14.337  0.7777  0.2112  0.0880
15604TIP3    H268228   4.028   1.417  14.217  0.7358  1.1058  0.0995
15605TIP3   OH268229   6.755   4.757  15.576 -0.3295 -0.0180 -0.7602
15605TIP3    H168230   6.736   4.808  15.654 -0.4374  0.9584 -1.3994
15605TIP3    H268231   6.844   4.724  15.590 -1.1148 -1.6332  0.6779
15606TIP3   OH268232   4.687   2.556  12.385  0.2209  0.1433  0.5932
15606TIP3    H168233   4.741   2.477  12.386  0.4216  0.1944 -1.4000
15606TIP3    H268234   4.597   2.524  12.381  0.3085 -0.0361 -0.4409
15607TIP3   OH268235   6.254   6.632  17.051 -0.2747 -0.2167  0.0988
15607TIP3    H168236   6.349   6.624  17.039 -0.1780  1.0097 -0.1883
15607TIP3    H268237   6.244   6.656  17.143 -0.2806 -0.0767  0.0616
15608TIP3   OH268238   3.668   6.124   5.398 -0.1840  0.2720  0.0603
15608TIP3    H168239   3.657   6.189   5.330 -3.0656  0.1944  0.3341
15608TIP3    H268240   3.606   6.055   5.376  0.7199 -1.0163  1.3406
15609TIP3   OH268241   5.839   5.426  13.482  0.1755  0.1641 -0.2968
15609TIP3    H168242   5.855   5.356  13.419  0.4884  0.2333 -0.2932
15609TIP3    H268243   5.903   5.493  13.461  0.2302  0.2204  0.0460
15610TIP3   OH268244   1.978   5.070   2.544  0.3363 -0.4042 -0.1558
15610TIP3    H168245   2.036   5.073   2.468 -0.6935  1.2365 -0.9230
15610TIP3    H268246   2.023   5.121   2.611  1.2811 -1.9158  0.4218
15611TIP3   OH268247   0.526   4.269  13.993  0.2863 -0.2080 -0.0807
15611TIP3    H168248   0.560   4.295  14.079  0.7770 -0.9427 -0.0393
15611TIP3    H268249   0.469   4.341  13.967  0.8644  0.4625  0.4458
15612TIP3   OH268250   2.672   3.698  11.862  0.2129 -0.1656  0.0231
15612TIP3    H168251   2.690   3.780  11.908 -0.3300  0.0660 -0.1607
15612TIP3    H268252   2.746   3.687  11.802  0.1463  0.3410 -0.1549
15613TIP3   OH268253   3.353   1.139   2.117 -0.3448 -0.0776  0.0341
15613TIP3    H168254   3.316   1.193   2.047  1.5092  0.6986 -0.4064
15613TIP3    H268255   3.444   1.127   2.092  0.2547 -0.1620  2.1021
15614TIP3   OH268256   6.582   4.782  17.118 -0.0157 -0.0318  0.1052
15614TIP3    H168257   6.504   4.736  17.149  0.6920  1.3767  4.8026
15614TIP3    H268258   6.552   4.870  17.097  0.0882  0.2241  0.9729
15615TIP3   OH268259   5.277   2.134  14.970  0.8796  0.3741 -0.4739
15615TIP3    H168260   5.327   2.165  14.895 -0.3048 -0.8029 -1.7953
15615TIP3    H268261   5.186   2.137  14.942  0.4345 -0.4355  0.7914
15616TIP3   OH268262   0.522   6.375   2.788  0.4747 -0.1530  0.1835
15616TIP3    H168263   0.560   6.337   2.709  1.4936  0.5144  0.3317
15616TIP3    H268264   0.597   6.399   2.842 -0.2082 -1.5044  1.8152
15617TIP3   OH268265   3.014   0.410  13.923  0.7449 -0.1489 -0.4406
15617TIP3    H168266   3.097   0.454  13.907  1.0872 -0.7477 -0.3489
15617TIP3    H268267   2.950   0.481  13.927  1.1826  0.2827 -0.9330
15618TIP3   OH268268   4.061   2.413  15.025  0.0840  0.1227 -0.2943
15618TIP3    H168269   4.028   2.441  15.110  0.9352 -0.5636  0.2830
15618TIP3    H268270   4.146   2.456  15.017 -0.0856  0.3541 -0.8992
15619TIP3   OH268271   0.465   3.356  15.567 -0.0779 -0.0770  0.4453
15619TIP3    H168272   0.462   3.260  15.566  0.3981 -0.0926 -0.3873
15619TIP3    H268273   0.490   3.380  15.478  0.3743  0.8047  0.7995
15620TIP3   OH268274   1.191   0.731  11.633 -0.2338  0.0742  0.2014
15620TIP3    H168275   1.232   0.669  11.694  0.6882  0.7676  0.3036
15620TIP3    H268276   1.158   0.801  11.689 -0.9176 -0.1190  0.0482
15621TIP3   OH268277   0.030   6.539  14.875 -0.2677  0.3853  0.1042
15621TIP3    H168278   0.043   6.606  14.943 -1.1323 -0.3924  1.0578
15621TIP3    H268279   0.045   6.586  14.793 -1.0271  1.8039  0.7330
15622TIP3   OH268280   5.389   2.901  14.326  0.7764 -0.5298  0.1055
15622TIP3    H168281   5.413   2.812  14.350  0.8105 -0.5849 -0.1290
15622TIP3    H268282   5.390   2.901  14.230  1.8846  0.0152  0.0936
15623TIP3   OH268283   1.198   2.295   3.221  0.0451  0.3621  0.1850
15623TIP3    H168284   1.159   2.349   3.151  1.7813  1.2039 -0.1956
15623TIP3    H268285   1.167   2.336   3.302  0.7837  1.5370 -0.1010
15624TIP3   OH268286   6.070   4.843  11.577  0.2041  0.1239  0.2707
15624TIP3    H168287   6.000   4.851  11.512  2.5899  0.8387 -2.4647
15624TIP3    H268288   6.138   4.792  11.533  0.6591 -2.4196  3.5708
15625TIP3   OH268289   0.625   1.501   5.695 -0.2428  0.2824  0.1842
15625TIP3    H168290   0.712   1.464   5.677 -0.6392  0.1737 -1.8181
15625TIP3    H268291   0.583   1.437   5.752  1.1267  0.5724  1.5920
15626TIP3   OH268292   6.084   2.509  12.688  0.3760  0.1263 -0.2316
15626TIP3    H168293   6.130   2.427  12.703  1.1936  0.2151 -2.0228
15626TIP3    H268294   6.153   2.576  12.687 -0.2229  0.7984  0.6756
15627TIP3   OH268295   5.177   2.315  13.410 -0.9881 -0.2566  0.6775
15627TIP3    H168296   5.211   2.365  13.335  0.5786  1.4272  2.3935
15627TIP3    H268297   5.247   2.253  13.430 -1.3124 -0.5575  0.8862
15628TIP3   OH268298   1.564   0.570   5.192  0.3130 -0.3855 -0.3766
15628TIP3    H168299   1.581   0.584   5.285  0.5607 -0.7792 -0.3597
15628TIP3    H268300   1.484   0.517   5.190  0.4413 -0.5832 -0.3752
15629TIP3   OH268301   3.320   2.086  14.939  0.2697  0.4607 -0.3044
15629TIP3    H168302   3.362   2.036  14.868  0.3010 -1.1584  0.8118
15629TIP3    H268303   3.239   2.119  14.900 -1.5152 -3.3504 -0.2473
15630TIP3   OH268304   5.026   3.444  15.018 -0.6397 -0.4921 -0.5666
15630TIP3    H168305   4.950   3.500  15.032  0.0791  0.8268 -1.7186
15630TIP3    H268306   5.093   3.502  14.982  0.4809 -1.8923 -0.8528
15631TIP3   OH268307   5.578   5.105   2.065 -0.4629 -0.6409 -0.0827
15631TIP3    H168308   5.654   5.069   2.019 -0.6668 -0.4346 -0.5880
15631TIP3    H268309   5.601   5.098   2.158  0.2928 -0.3265 -0.2350
15632TIP3   OH268310   4.010   0.357   1.427 -0.2136  0.2842 -0.2262
15632TIP3    H168311   4.004   0.269   1.389 -0.0252  0.4255 -0.5825
15632TIP3    H268312   4.082   0.351   1.490 -1.6859 -0.4572  1.4946
15633TIP3   OH268313   1.253   2.333  17.138 -0.5856  0.1603 -0.0845
15633TIP3    H168314   1.334   2.380  17.117  1.3837 -3.7102 -2.3748
15633TIP3    H268315   1.207   2.327  17.054 -0.7428 -1.7721  0.0809
15634TIP3   OH268316   1.033   2.467  15.094 -0.0284  0.8887 -0.3924
15634TIP3    H168317   1.097   2.489  15.026 -0.0688 -0.6939 -0.9950
15634TIP3    H268318   1.044   2.372  15.107 -0.6163  1.0084  1.2090
15635TIP3   OH268319   0.793   3.137   4.152  0.5322  0.4126 -0.0209
15635TIP3    H168320   0.740   3.189   4.091  0.3351 -1.1897 -1.3021
15635TIP3    H268321   0.735   3.120   4.226  0.5681  1.8734  0.3860
15636TIP3   OH268322   0.511   2.469   2.441 -0.0764  0.6575  0.1414
15636TIP3    H168323   0.527   2.388   2.392  1.9157  0.8575  0.3632
15636TIP3    H268324   0.527   2.539   2.378 -0.3996  0.8965  0.3222
15637TIP3   OH268325   4.318   2.420  11.104 -0.4347 -0.4729 -0.2188
15637TIP3    H168326   4.412   2.421  11.088 -0.5275 -0.1995 -0.7722
15637TIP3    H268327   4.288   2.338  11.067 -0.1089 -1.5994  1.8705
15638TIP3   OH268328   3.597   5.841   3.976  0.2374 -0.3793  0.6891
15638TIP3    H168329   3.605   5.912   3.912  1.1530 -0.8380  0.2848
15638TIP3    H268330   3.532   5.782   3.938  2.8411 -2.1699 -1.3317
15639TIP3   OH268331   1.516   0.755  12.454  0.2100  0.2561 -0.5686
15639TIP3    H168332   1.508   0.755  12.549  1.7856 -0.5291 -0.3963
15639TIP3    H268333   1.608   0.779  12.438  0.9095 -2.7520 -1.7317
15640TIP3   OH268334   2.766   4.552   4.687 -0.2717  0.6192 -0.4909
15640TIP3    H168335   2.725   4.607   4.754 -0.7068  0.4830 -0.6380
15640TIP3    H268336   2.810   4.613   4.628  0.1383  0.7367 -0.0624
15641TIP3   OH268337   6.193   6.759   0.098  0.1901  0.3695  0.9761
15641TIP3    H168338   6.157   6.820   0.034 -0.8187 -0.3213  0.8723
15641TIP3    H268339   6.285   6.786   0.107  0.2926  0.6081 -0.5852
15642TIP3   OH268340   6.161   1.003  13.164 -0.1990 -0.3935  0.4637
15642TIP3    H168341   6.253   0.979  13.169 -0.1260 -0.6235 -1.4000
15642TIP3    H268342   6.151   1.073  13.228  1.3736 -0.0336  0.3433
15643TIP3   OH268343   4.348   0.272  14.749 -0.1844 -0.7125  0.1961
15643TIP3    H168344   4.393   0.300  14.828  1.5926 -1.1444 -0.6214
15643TIP3    H268345   4.407   0.208  14.709 -2.4233 -2.8657  0.0948
15644TIP3   OH268346   6.469   4.423   4.120 -0.3456  0.6986  0.4503
15644TIP3    H168347   6.477   4.514   4.148  1.2011  0.9637 -0.7053
15644TIP3    H268348   6.464   4.373   4.201 -1.2443  1.8063  1.1002
15645TIP3   OH268349   3.249   1.318  15.976 -0.8694  0.0449 -0.6198
15645TIP3    H168350   3.271   1.261  16.050 -0.5296  0.6246 -0.2692
15645TIP3    H268351   3.333   1.336  15.934 -0.5079  2.7196  1.0392
15646TIP3   OH268352   6.113   6.729   3.010  0.0537  0.1231 -0.4774
15646TIP3    H168353   6.164   6.715   3.090 -0.4691 -2.2516 -0.4676
15646TIP3    H268354   6.039   6.783   3.037  0.1893 -0.1787  0.5187
15647TIP3   OH268355   2.660   1.776   5.197  0.0507 -0.1646  0.4098
15647TIP3    H168356   2.620   1.733   5.121 -1.2682 -0.3623  1.1843
15647TIP3    H268357   2.609   1.744   5.272  0.3158  1.2387  1.2145
15648TIP3   OH268358   1.822   6.567   5.929 -0.1886  0.8822 -0.4490
15648TIP3    H168359   1.815   6.545   6.022 -1.9602  0.3894 -0.6720
15648TIP3    H268360   1.775   6.498   5.884  1.2148  0.7468 -1.8045
15649TIP3   OH268361   2.160   3.823  15.704 -0.0135 -0.0953  0.1916
15649TIP3    H168362   2.142   3.766  15.779  1.1499 -2.5886 -1.2834
15649TIP3    H268363   2.250   3.853  15.717 -0.5172  1.2171  0.8008
15650TIP3   OH268364   4.219   4.736  12.792  0.6289 -0.3258 -0.0973
15650TIP3    H168365   4.210   4.732  12.697 -0.5490 -0.0143 -0.0120
15650TIP3    H268366   4.131   4.718  12.825  1.2016 -1.3228  0.9665
15651TIP3   OH268367   1.923   4.280   3.284  0.1666  1.1615  0.2448
15651TIP3    H168368   1.979   4.357   3.301  0.5655  0.8707  0.2599
15651TIP3    H268369   1.973   4.227   3.222  0.3367  0.4280  0.9939
15652TIP3   OH268370   4.040   2.242  17.128  0.0090 -0.2453 -0.3798
15652TIP3    H168371   4.124   2.273  17.162 -0.4115  0.5647 -0.0594
15652TIP3    H268372   4.019   2.303  17.057 -0.8674  0.2964  0.3152
15653TIP3   OH268373   2.964   1.430  14.046 -0.3126  0.5289 -0.6623
15653TIP3    H168374   2.983   1.439  13.952 -0.2577 -2.7504 -1.0731
15653TIP3    H268375   3.040   1.470  14.089  1.5755 -1.2174 -2.1311
15654TIP3   OH268376   4.245   4.117   4.728 -0.2703 -0.3845  0.3156
15654TIP3    H168377   4.231   4.061   4.805  1.1969 -0.0413  0.8610
15654TIP3    H268378   4.237   4.206   4.761 -0.5369 -0.2338 -0.1360
15655TIP3   OH268379   2.449   1.588   4.722 -0.4810 -0.3930  0.3952
15655TIP3    H168380   2.378   1.572   4.660 -0.1416  2.9174 -1.0504
15655TIP3    H268381   2.517   1.631   4.670  1.4358 -0.8783  2.3351
15656TIP3   OH268382   3.698   2.972  16.527  0.0066 -0.1503  0.2364
15656TIP3    H168383   3.714   3.056  16.484 -0.7344  0.6363  1.4384
15656TIP3    H268384   3.604   2.961  16.524  0.2286 -1.9932 -1.7605
15657TIP3   OH268385   3.174   6.547  14.137  0.0508  0.2030 -0.0130
15657TIP3    H168386   3.266   6.569  14.150  0.3494 -1.0064  0.0014
15657TIP3    H268387   3.136   6.551  14.225  0.2538  0.0134  0.0853
15658TIP3   OH268388   2.030   0.927   4.412 -0.2538 -0.1678 -0.4886
15658TIP3    H168389   2.005   0.836   4.396 -0.9720 -0.3745  1.5834
15658TIP3    H268390   1.947   0.971   4.432  0.2156  0.7288 -0.4871
15659TIP3   OH268391   1.435   6.120   3.263 -0.1925 -0.1552 -0.1016
15659TIP3    H168392   1.399   6.035   3.235 -2.8489  0.7606  0.2541
15659TIP3    H268393   1.421   6.177   3.187 -0.0794  0.4022  0.2963
15660TIP3   OH268394   0.752   4.543  13.715  0.2724  0.2931  0.1652
15660TIP3    H168395   0.803   4.620  13.737  1.3604 -0.7625  1.5243
15660TIP3    H268396   0.794   4.507  13.638  0.9752 -0.0053  0.6814
15661TIP3   OH268397   6.494   6.486  14.679  0.3119 -0.3155  0.0758
15661TIP3    H168398   6.435   6.412  14.690 -0.7209  0.4016 -0.4602
15661TIP3    H268399   6.577   6.447  14.651  0.8328 -1.5461  2.9129
15662TIP3   OH268400   0.647   3.566   4.884  0.2464 -0.0804 -0.0359
15662TIP3    H168401   0.632   3.473   4.868  0.1239 -0.1594  0.5477
15662TIP3    H268402   0.648   3.605   4.796  2.0572 -0.8716 -0.4076
15663TIP3   OH268403   3.269   0.367  15.828 -0.1169  0.3307 -0.1404
15663TIP3    H168404   3.217   0.399  15.902 -0.7129  0.3701 -0.5620
15663TIP3    H268405   3.293   0.278  15.853 -2.6813 -0.7243 -1.0068
15664TIP3   OH268406   4.868   4.178   0.259 -0.4273 -0.3624  0.0978
15664TIP3    H168407   4.912   4.197   0.343  0.3312  0.7253 -0.5182
15664TIP3    H268408   4.894   4.250   0.202 -0.1685 -1.5621 -1.3713
15665TIP3   OH268409   0.370   2.090  12.864 -0.6606 -0.3498 -0.6164
15665TIP3    H168410   0.289   2.138  12.878 -0.3000 -0.3419  1.8970
15665TIP3    H268411   0.439   2.150  12.892  0.1359 -0.8619 -1.3984
15666TIP3   OH268412   1.663   4.337   5.669  0.1731  0.7948 -0.3043
15666TIP3    H168413   1.674   4.252   5.626 -2.7923  0.2448 -0.2077
15666TIP3    H268414   1.688   4.400   5.602  1.2382 -0.1184 -0.8066
15667TIP3   OH268415   5.488   4.582  11.128  0.0624  0.4240 -0.0665
15667TIP3    H168416   5.504   4.630  11.209  0.3587  1.0772 -0.5031
15667TIP3    H268417   5.394   4.562  11.130  0.1868 -0.1254  0.7300
15668TIP3   OH268418   2.797   3.229   3.479 -0.5869 -0.3599  0.1765
15668TIP3    H168419   2.883   3.258   3.509 -0.0986 -1.3170 -0.2454
15668TIP3    H268420   2.798   3.134   3.491 -1.7438 -0.3457  0.5412
15669TIP3   OH268421   4.659   0.940   6.203 -0.4328  0.1979 -0.3009
15669TIP3    H168422   4.574   0.918   6.240 -1.0860  0.3388 -1.6847
15669TIP3    H268423   4.714   0.956   6.280 -1.8623  0.9284  0.6271
15670TIP3   OH268424   2.774   2.951   3.586 -0.1490  0.1530 -0.4694
15670TIP3    H168425   2.813   2.883   3.642 -0.7298  0.7250  0.6529
15670TIP3    H268426   2.682   2.925   3.578 -0.2154  0.4301 -0.6105
15671TIP3   OH268427   6.204   6.693   1.438 -0.1518 -0.7448  0.2495
15671TIP3    H168428   6.130   6.688   1.379  0.3663 -1.9164 -0.3310
15671TIP3    H268429   6.224   6.602   1.459  1.9008 -0.5498 -0.6197
15672TIP3   OH268430   5.810   4.911  16.784  0.1548  0.1088 -0.3669
15672TIP3    H168431   5.798   5.001  16.754  1.0563 -0.0020 -1.1224
15672TIP3    H268432   5.722   4.876  16.792 -0.1839  0.8965 -0.5941
15673TIP3   OH268433   4.907   5.281   0.330 -0.2954 -0.3625  0.5602
15673TIP3    H168434   4.824   5.301   0.287  1.4019  0.6122 -2.5738
15673TIP3    H268435   4.898   5.189   0.357 -2.0869 -0.5179 -0.3700
15674TIP3   OH268436   3.326   3.882   6.006 -0.4857 -0.0815 -0.3033
15674TIP3    H168437   3.248   3.826   6.011 -0.3720 -0.1189  1.2753
15674TIP3    H268438   3.396   3.823   5.980 -0.6773 -0.3626 -0.1861
15675TIP3   OH268439   0.242   2.424  12.492 -0.4559 -0.3058  0.2020
15675TIP3    H168440   0.192   2.343  12.490 -0.5423 -0.3012  1.2822
15675TIP3    H268441   0.175   2.493  12.491 -0.4126 -0.2665  0.0307
15676TIP3   OH268442   3.482   4.542  16.641 -0.1057  0.3383  0.0025
15676TIP3    H168443   3.505   4.449  16.634  0.8680  0.2607  2.7615
15676TIP3    H268444   3.396   4.541  16.683 -0.2864  0.6926 -0.3574
15677TIP3   OH268445   4.011   1.495   1.683  0.1763  0.4203  0.2529
15677TIP3    H168446   3.959   1.474   1.761 -1.0908 -1.2242 -0.9584
15677TIP3    H268447   4.096   1.453   1.699 -0.5405 -1.1190  0.1786
15678TIP3   OH268448   2.553   1.924   1.640  0.3631 -0.2176  0.2655
15678TIP3    H168449   2.530   1.838   1.674 -0.7461  0.3798  1.1014
15678TIP3    H268450   2.643   1.939   1.670  0.2621 -0.7252  0.8322
15679TIP3   OH268451   4.433   6.621   2.407 -0.2852  0.2925  0.1017
15679TIP3    H168452   4.377   6.556   2.450  0.0420 -1.2875 -1.7290
15679TIP3    H268453   4.372   6.681   2.365 -0.6128  0.0171  0.1777
15680TIP3   OH268454   1.931   0.100   2.427  0.1394  0.1135  0.1837
15680TIP3    H168455   1.897   0.073   2.512  2.8934 -0.2158  1.3070
15680TIP3    H268456   1.926   0.196   2.429 -2.9042  0.0759 -0.7801
15681TIP3   OH268457   1.896   6.286   4.070  0.0720  0.3145 -0.4969
15681TIP3    H168458   1.842   6.250   4.141  0.8344 -1.2523 -0.6580
15681TIP3    H268459   1.911   6.377   4.094 -0.9171  0.2106  0.5957
15682TIP3   OH268460   4.685   3.989  14.747 -0.4552 -0.4804 -0.6554
15682TIP3    H168461   4.723   4.074  14.763  0.6850 -1.6100  4.2138
15682TIP3    H268462   4.759   3.931  14.731 -0.9134 -1.0851 -0.6606
15683TIP3   OH268463   6.566   3.972   5.188 -0.2134 -1.2435  0.4761
15683TIP3    H168464   6.649   4.001   5.150 -0.9010  1.0547  0.6083
15683TIP3    H268465   6.540   4.043   5.247 -2.4892 -1.7064  0.1205
15684TIP3   OH268466   3.708   1.496  16.067 -0.4030 -0.6537  0.3311
15684TIP3    H168467   3.716   1.580  16.112  2.9715 -1.2771  1.1658
15684TIP3    H268468   3.738   1.514  15.978 -1.3856 -0.6569 -0.0151
15685TIP3   OH268469   2.972   1.413   3.722 -0.3163 -0.3179 -0.9361
15685TIP3    H168470   3.042   1.361   3.683  0.1774 -0.3946  0.0169
15685TIP3    H268471   2.923   1.351   3.776 -1.1101 -0.2561 -1.5589
15686TIP3   OH268472   3.361   1.320   4.494 -0.1970  0.3362 -0.0247
15686TIP3    H168473   3.401   1.239   4.462 -1.0354 -0.0597 -0.0805
15686TIP3    H268474   3.402   1.388   4.440  0.3709 -0.0591 -0.1108
15687TIP3   OH268475   0.310   1.178   5.743  0.7569 -0.3803  0.6628
15687TIP3    H168476   0.370   1.244   5.779  1.9083 -1.5093  0.8861
15687TIP3    H268477   0.289   1.210   5.655  2.5600 -0.4728  0.1547
15688TIP3   OH268478   0.132   2.486   0.635 -0.2708 -0.1466  0.5683
15688TIP3    H168479   0.208   2.538   0.662 -1.3649  1.3017  0.9816
15688TIP3    H268480   0.156   2.451   0.549  0.9285  0.1409  0.7742
15689TIP3   OH268481   4.817   4.767   2.902  0.1990  0.1327  0.5234
15689TIP3    H168482   4.847   4.747   2.813 -1.5661 -2.1136  0.3383
15689TIP3    H268483   4.893   4.747   2.958  0.7945 -0.0824 -0.3368
15690TIP3   OH268484   4.647   2.154  16.616  0.4232 -0.0908  0.2987
15690TIP3    H168485   4.582   2.084  16.613 -0.5974  0.8316  0.1847
15690TIP3    H268486   4.721   2.116  16.663 -0.0636 -1.2693  0.1543
15691TIP3   OH268487   2.551   6.303   1.348 -1.1348 -0.3680  0.1462
15691TIP3    H168488   2.633   6.308   1.299 -0.8238  0.1726  0.7070
15691TIP3    H268489   2.507   6.386   1.330 -0.0300  0.8126  2.4553
15692TIP3   OH268490   1.668   6.367  15.466  0.5680  0.0320 -0.1762
15692TIP3    H168491   1.601   6.406  15.410  0.8945  1.7731  0.5507
15692TIP3    H268492   1.688   6.283  15.426  0.6060  1.0903 -2.5511
15693TIP3   OH268493   4.309   2.846  15.100  0.3418 -0.0976  0.4828
15693TIP3    H168494   4.274   2.771  15.052  2.7445 -0.0907 -1.5315
15693TIP3    H268495   4.309   2.819  15.191 -3.3082 -0.6050  0.4586
15694TIP3   OH268496   2.428   1.532  12.396 -0.0042 -0.6474 -0.0988
15694TIP3    H168497   2.370   1.568  12.463  1.6934  0.1371  1.0182
15694TIP3    H268498   2.370   1.482  12.339 -1.6112 -0.8100  1.5741
15695TIP3   OH268499   2.935   4.125   1.282 -0.0934 -0.0024  0.0829
15695TIP3    H168500   2.916   4.033   1.299  1.1805 -0.1373  0.9454
15695TIP3    H268501   2.921   4.169   1.367  1.0968  0.2629  0.1618
15696TIP3   OH268502   1.591   0.912  11.221  0.3365 -0.5897 -0.3233
15696TIP3    H168503   1.638   0.864  11.289  0.6801 -0.8690 -0.7625
15696TIP3    H268504   1.500   0.882  11.229  0.5666 -1.3859 -0.6643
15697TIP3   OH268505   5.459   4.190  15.350  0.3767  0.2936 -0.3590
15697TIP3    H168506   5.540   4.189  15.400  0.2685 -0.7556 -0.1711
15697TIP3    H268507   5.391   4.206  15.415  0.3591  0.3456 -0.3899
15698TIP3   OH268508   3.557   6.536   2.598  0.2190 -0.0433  0.1319
15698TIP3    H168509   3.463   6.517   2.605 -0.1026  1.5004  0.3574
15698TIP3    H268510   3.590   6.525   2.687  0.3285 -0.8922 -0.0051
15699TIP3   OH268511   0.454   5.823  14.846 -0.0520 -0.3098  0.0236
15699TIP3    H168512   0.531   5.771  14.826  0.9251  1.2616 -0.4357
15699TIP3    H268513   0.466   5.905  14.798 -1.4626  0.4196  0.8301
15700TIP3   OH268514   0.141   6.607   6.769 -0.4501 -0.2353  0.4857
15700TIP3    H168515   0.120   6.521   6.804 -0.7103 -0.3525  0.0435
15700TIP3    H268516   0.067   6.629   6.713 -1.4497  1.1992  2.2389
15701TIP3   OH268517   0.968   5.782  12.173  0.6312  0.2223  0.1227
15701TIP3    H168518   1.032   5.716  12.198  0.8765  0.1940 -0.5788
15701TIP3    H268519   0.889   5.733  12.151  1.3117 -0.0036 -2.0474
15702TIP3   OH268520   5.632   3.720  12.316  0.2072 -0.1869 -0.1289
15702TIP3    H168521   5.566   3.663  12.276  0.2402  0.2589 -0.8420
15702TIP3    H268522   5.610   3.721  12.409 -1.1461  0.4047 -0.4318
15703TIP3   OH268523   1.345   3.952  13.387  0.4457 -0.6042  0.1792
15703TIP3    H168524   1.281   3.908  13.443  0.3253 -0.0590  0.4841
15703TIP3    H268525   1.314   4.043  13.384  0.5711 -0.5825 -0.5977
15704TIP3   OH268526   2.142   5.500   4.286 -0.4037  0.2730 -0.1947
15704TIP3    H168527   2.173   5.472   4.372 -0.2314  0.0262 -0.3380
15704TIP3    H268528   2.060   5.453   4.274  1.3575 -2.7068 -1.7848
15705TIP3   OH268529   3.536   3.254  15.298  0.7517  0.0109  0.4178
15705TIP3    H168530   3.493   3.184  15.249  1.4820  0.8388 -1.5515
15705TIP3    H268531   3.464   3.299  15.343  0.0870 -1.0238  0.4358
15706TIP3   OH268532   0.821   5.037  12.102  0.3723 -0.2554  0.3216
15706TIP3    H168533   0.810   5.007  12.012  0.3440 -0.1546  0.2915
15706TIP3    H268534   0.738   5.079  12.124  0.1801 -0.7535  0.5744
15707TIP3   OH268535   1.272   6.554   5.655  0.1650 -0.3184  0.6758
15707TIP3    H168536   1.296   6.598   5.573  0.0548 -1.3317  0.0806
15707TIP3    H268537   1.237   6.624   5.710  1.5324  0.6452  0.3949
15708TIP3   OH268538   1.870   5.828   2.575 -0.2998  0.0524  0.2272
15708TIP3    H168539   1.853   5.837   2.669 -0.1658 -1.2291  0.3879
15708TIP3    H268540   1.796   5.872   2.533 -0.6879  0.0890  0.9257
15709TIP3   OH268541   0.486   4.916   4.445 -0.2401 -0.4405 -0.5816
15709TIP3    H168542   0.553   4.914   4.513  1.2220  1.4754 -1.8762
15709TIP3    H268543   0.490   4.829   4.404  1.0179 -0.5576 -0.2406
15710TIP3   OH268544   5.992   6.327   2.700  0.7084  0.2665 -0.6240
15710TIP3    H168545   5.942   6.282   2.768  0.0113  0.2108 -1.1612
15710TIP3    H268546   6.007   6.415   2.736 -0.3922  0.5184 -0.7328
15711TIP3   OH268547   2.455   0.576  12.270  0.5483 -0.7247  0.0155
15711TIP3    H168548   2.372   0.598  12.312  0.1309 -0.3730 -0.9609
15711TIP3    H268549   2.515   0.561  12.342 -0.2653 -0.5882  0.7369
15712TIP3   OH268550   2.131   0.335   1.696 -0.2660  0.0944 -0.1368
15712TIP3    H168551   2.133   0.430   1.704  0.4253  0.0063  1.1955
15712TIP3    H268552   2.103   0.305   1.783  1.2086 -0.9451  0.0205
15713TIP3   OH268553   3.256   1.883   4.172  0.2458  0.4691  0.4816
15713TIP3    H168554   3.328   1.938   4.206  1.2706 -2.1051  2.8340
15713TIP3    H268555   3.290   1.848   4.090  0.9409  0.6850  0.6662
15714TIP3   OH268556   0.587   5.657   6.031 -0.8751 -0.4493 -0.4201
15714TIP3    H168557   0.598   5.636   6.124 -0.6318  1.2701 -0.0342
15714TIP3    H268558   0.507   5.610   6.005 -2.4100  1.0612  1.3293
15715TIP3   OH268559   2.378   5.873  14.114 -0.3910 -0.4644 -0.3741
15715TIP3    H168560   2.367   5.779  14.125  0.0877 -0.3108  1.9456
15715TIP3    H268561   2.472   5.887  14.117 -0.4929  0.1638  0.2005
15716TIP3   OH268562   2.520   4.529   3.763 -0.2243 -0.0936  0.3539
15716TIP3    H168563   2.538   4.527   3.857 -1.5751 -2.3814  0.6475
15716TIP3    H268564   2.506   4.437   3.739 -1.3173  0.5540 -1.7788
15717TIP3   OH268565   5.330   4.118  10.641 -0.0632  0.2508  0.2440
15717TIP3    H168566   5.418   4.096  10.671  0.2430  0.1740 -0.6923
15717TIP3    H268567   5.323   4.212  10.655 -0.4046  0.0233  1.7559
15718TIP3   OH268568   0.750   0.570  14.554 -0.1618 -0.0703 -0.1969
15718TIP3    H168569   0.809   0.508  14.598  2.9018  1.9763 -1.1075
15718TIP3    H268570   0.674   0.517  14.530  1.1320 -2.8530  1.2785
15719TIP3   OH268571   4.690   0.337   3.988  0.2219  0.4533  0.4290
15719TIP3    H168572   4.641   0.344   4.069  1.2029  0.7566  1.0213
15719TIP3    H268573   4.730   0.423   3.976  0.0287  0.4369 -0.4181
15720TIP3   OH268574   5.947   5.018   1.552 -0.2130 -0.1877 -0.1409
15720TIP3    H168575   6.005   5.060   1.488 -0.1930  0.8306  0.5248
15720TIP3    H268576   5.888   4.965   1.500  1.4892 -1.4933 -0.8410
15721TIP3   OH268577   1.120   2.799   6.217  0.2137  0.4070  0.2842
15721TIP3    H168578   1.031   2.772   6.241  0.1695  1.5550  1.5602
15721TIP3    H268579   1.163   2.817   6.300  1.1740  1.2868 -0.3761
15722TIP3   OH268580   6.741   4.127  13.581  0.6144 -0.1528  0.5277
15722TIP3    H168581   6.765   4.220  13.581  1.7440 -0.3355  3.4405
15722TIP3    H268582   6.682   4.117  13.656  0.1177 -1.7040 -0.0377
15723TIP3   OH268583   1.013   0.151   4.206 -0.2125 -0.1138 -0.0335
15723TIP3    H168584   1.023   0.206   4.128  1.1883 -0.8428 -0.3983
15723TIP3    H268585   0.974   0.209   4.271 -1.5266  0.4817 -1.2864
15724TIP3   OH268586   4.751   2.296  13.192 -0.3376  0.1605  0.1708
15724TIP3    H168587   4.673   2.259  13.234 -0.5485  0.1188 -0.2546
15724TIP3    H268588   4.755   2.386  13.225 -1.8134  0.8896 -1.4452
15725TIP3   OH268589   0.989   6.351   5.962  0.2335  0.4188 -0.0363
15725TIP3    H168590   0.934   6.299   6.022  0.1420  0.4216 -0.1173
15725TIP3    H268591   1.042   6.406   6.020  0.5342  0.0357  0.0622
15726TIP3   OH268592   0.030   2.079  10.850  0.0827  0.6839 -0.1996
15726TIP3    H168593   0.125   2.081  10.856  0.0092  1.3629  0.9156
15726TIP3    H268594   0.005   1.992  10.880  0.2746  0.9983  0.9027
15727TIP3   OH268595   2.641   6.130   2.494  0.6193 -0.0213 -0.3062
15727TIP3    H168596   2.547   6.131   2.509  0.6190  1.2206 -0.2415
15727TIP3    H268597   2.672   6.213   2.531  1.9484 -1.0220  0.9531
15728TIP3   OH268598   0.064   1.752  16.729 -0.9132 -0.0072  0.0212
15728TIP3    H168599   0.127   1.717  16.666 -1.1913 -0.1785 -0.1622
15728TIP3    H268600  -0.018   1.706  16.709 -1.4491  1.1947 -0.6287
15729TIP3   OH268601   2.938   1.302  17.193  0.0585  0.0938  0.2985
15729TIP3    H168602   2.885   1.261  17.261 -1.6055  0.4311 -0.7346
15729TIP3    H268603   2.887   1.378  17.166  1.7618  1.2588  0.2236
15730TIP3   OH268604   2.567   1.871  15.236 -0.8287 -0.3858 -0.2569
15730TIP3    H168605   2.508   1.893  15.307  0.3521  2.0848  0.0469
15730TIP3    H268606   2.591   1.955  15.197 -1.7102 -1.6350 -3.8575
15731TIP3   OH268607   4.990   6.327   2.329  0.4071  0.0151 -0.1307
15731TIP3    H168608   5.014   6.297   2.417 -0.5506 -1.6078 -0.3981
15731TIP3    H268609   5.071   6.321   2.279  0.7008 -0.1308  0.3549
15732TIP3   OH268610   0.485   1.282   3.773 -0.1574  0.4421  0.3011
15732TIP3    H168611   0.405   1.231   3.785  0.2629 -0.4274 -0.4716
15732TIP3    H268612   0.457   1.363   3.730 -0.7971  0.7795  1.3149
15733TIP3   OH268613   5.399   3.629   3.750 -0.4622 -0.4169 -0.9411
15733TIP3    H168614   5.318   3.608   3.703 -1.6300  2.2147 -0.2615
15733TIP3    H268615   5.376   3.703   3.806  2.2552 -0.0650 -0.1483
15734TIP3   OH268616   1.856   2.602  17.224  0.0562  0.6390 -0.1241
15734TIP3    H168617   1.786   2.594  17.289  0.0574  0.0802 -0.1907
15734TIP3    H268618   1.892   2.690  17.238 -0.5923  0.8915 -0.0227
15735TIP3   OH268619   4.430   6.619  16.653 -0.8059 -0.5157  0.1429
15735TIP3    H168620   4.356   6.629  16.713 -2.1550 -0.8722 -1.3864
15735TIP3    H268621   4.425   6.697  16.597  0.9564  0.2512  0.9856
15736TIP3   OH268622   4.929   4.336  12.647  0.1174 -0.3691  0.4808
15736TIP3    H168623   4.902   4.347  12.555 -2.6457  2.4700  1.4516
15736TIP3    H268624   4.991   4.407  12.663 -1.0068  0.4947  1.2417
15737TIP3   OH268625   0.503   4.035  13.206 -0.0084 -0.5326  0.4102
15737TIP3    H168626   0.502   4.071  13.295 -0.5387 -0.2402  0.2938
15737TIP3    H268627   0.423   3.983  13.201 -0.5344  0.3148 -0.2309
15738TIP3   OH268628   0.967   2.657   4.582  0.3544  0.5253  0.1888
15738TIP3    H168629   0.957   2.575   4.534  1.1179  0.1534  0.6550
15738TIP3    H268630   0.979   2.631   4.673 -0.5049  1.2063  0.5057
15739TIP3   OH268631   2.953   2.114  15.201 -0.0423  0.1183 -0.3750
15739TIP3    H168632   3.013   2.186  15.221 -0.0402  0.0942 -0.2957
15739TIP3    H268633   2.869   2.157  15.182  0.0273  0.1599 -0.5985
15740TIP3   OH268634   5.958   4.069  12.379  0.0470 -0.0172 -0.1624
15740TIP3    H168635   6.025   4.030  12.434 -1.4100 -0.9060  1.0317
15740TIP3    H268636   5.898   3.997  12.358 -0.5724  0.7569 -1.1690
15741TIP3   OH268637   5.173   4.521  14.050  0.2003 -0.0996 -0.4796
15741TIP3    H168638   5.101   4.541  13.989  0.3813  0.5741 -0.4852
15741TIP3    H268639   5.138   4.545  14.136  0.6183  0.8319 -0.5512
15742TIP3   OH268640   0.443   2.472  13.701  0.4261  0.9861 -0.1933
15742TIP3    H168641   0.503   2.528  13.652  0.6245  1.0082  0.0770
15742TIP3    H268642   0.422   2.401  13.641 -2.8667  3.2558 -2.1017
15743TIP3   OH268643   5.227   4.291   4.441 -0.5072  0.3676 -0.4140
15743TIP3    H168644   5.249   4.334   4.524 -1.3337 -0.8355  0.4592
15743TIP3    H268645   5.297   4.318   4.381  0.2774  1.0209  0.7446
15744TIP3   OH268646   3.842   5.629   0.741  0.8106  0.4935  0.2525
15744TIP3    H168647   3.868   5.611   0.831  0.7887  2.3796  0.6838
15744TIP3    H268648   3.749   5.607   0.738  1.0519 -0.6059  0.3645
15745TIP3   OH268649   6.336   4.768   0.808  0.6018 -0.5403 -0.0269
15745TIP3    H168650   6.415   4.807   0.844 -0.4624  0.5027  1.2664
15745TIP3    H268651   6.304   4.832   0.744  0.1529 -0.3892  0.3435
15746TIP3   OH268652   0.985   6.171  11.786 -0.0151 -0.5903 -0.5676
15746TIP3    H168653   0.936   6.101  11.829  0.7337 -1.1799 -0.6482
15746TIP3    H268654   0.920   6.240  11.772  0.2599  1.1375  4.5273
15747TIP3   OH268655   3.398   4.254  12.800  0.0826 -0.1908  0.6644
15747TIP3    H168656   3.341   4.323  12.766  0.5486 -0.6005 -1.0680
15747TIP3    H268657   3.348   4.216  12.872 -0.5741  1.3350  1.0700
15748TIP3   OH268658   3.673   4.703   2.490  0.7929  0.1801 -0.4845
15748TIP3    H168659   3.623   4.783   2.506  1.2770  0.5270 -0.6777
15748TIP3    H268660   3.607   4.635   2.482  0.3171  0.7220 -1.3227
15749TIP3   OH268661   4.573   6.644   5.882 -0.2537  0.1217  0.4767
15749TIP3    H168662   4.524   6.718   5.845  0.3477 -0.1041 -0.8261
15749TIP3    H268663   4.659   6.649   5.840  0.2140 -0.5838  1.3343
15750TIP3   OH268664   4.846   4.464   5.432 -0.0738 -0.0681 -0.1066
15750TIP3    H168665   4.768   4.468   5.488  1.4522 -0.1050  2.1122
15750TIP3    H268666   4.836   4.382   5.384 -1.0178 -0.4679  0.7220
15751TIP3   OH268667   0.594   5.884  15.183  0.4799  0.0241 -0.1991
15751TIP3    H168668   0.653   5.947  15.142  1.0063  0.3407  0.9909
15751TIP3    H268669   0.513   5.932  15.200  0.5158  0.0911 -0.2225
15752TIP3   OH268670   0.170   1.473  12.871 -0.0261  0.1933 -0.5052
15752TIP3    H168671   0.209   1.395  12.830  1.1824  0.1532  0.6369
15752TIP3    H268672   0.077   1.466  12.853 -0.1140 -2.1347  0.5183
15753TIP3   OH268673   2.787   5.039   0.245 -0.0185 -0.3581  0.4819
15753TIP3    H168674   2.865   5.067   0.293  0.7228 -0.1947 -0.7710
15753TIP3    H268675   2.753   4.965   0.296  1.5413 -1.0948  0.5087
15754TIP3   OH268676   0.021   2.059  15.418 -0.0636  0.2387  0.2114
15754TIP3    H168677   0.014   2.082  15.511  1.5603 -0.3672  0.5239
15754TIP3    H268678   0.008   2.141  15.372  4.0747  1.6938  1.2258
15755TIP3   OH268679   6.123   5.748   2.359 -0.1947  0.4269  0.2347
15755TIP3    H168680   6.200   5.800   2.383  0.1246 -0.4249  1.1466
15755TIP3    H268681   6.067   5.752   2.436  0.8048 -2.2957  1.2510
15756TIP3   OH268682   2.481   4.693   2.121 -0.3207  0.2277  0.3634
15756TIP3    H168683   2.428   4.650   2.188 -2.1754 -0.4016 -1.4217
15756TIP3    H268684   2.569   4.656   2.132 -0.5092  0.3204  2.5390
15757TIP3   OH268685   0.574   5.825   2.963  0.5015 -0.2198 -0.0746
15757TIP3    H168686   0.493   5.779   2.943  0.5179  0.1105 -0.9430
15757TIP3    H268687   0.576   5.898   2.901  0.5609  0.8490  1.1293
15758TIP3   OH268688   3.657   4.082   4.899 -0.2479 -0.1948 -0.2773
15758TIP3    H168689   3.663   4.176   4.914  2.1875 -0.0244 -1.6757
15758TIP3    H268690   3.739   4.048   4.935 -1.2066 -1.8642  0.4428
15759TIP3   OH268691   3.421   0.937  16.109  0.4618 -0.3092  0.4569
15759TIP3    H168692   3.379   0.947  16.024 -0.5569  1.6901  1.1094
15759TIP3    H268693   3.515   0.939  16.091  0.2577 -0.0447 -0.6312
15760TIP3   OH268694   1.193   0.015   4.377 -0.2604  0.2057  0.2587
15760TIP3    H168695   1.265   0.019   4.315 -0.4158  0.2688  0.0790
15760TIP3    H268696   1.147   0.098   4.365  1.0812  1.3030  2.1432
15761TIP3   OH268697   4.369   2.421   5.435  0.0111 -0.2915  0.0553
15761TIP3    H168698   4.455   2.415   5.477  0.0358 -1.1517 -0.1081
15761TIP3    H268699   4.383   2.482   5.362  0.5685 -0.6849 -0.1782
15762TIP3   OH268700   2.815   3.621   1.083 -0.0234 -0.6998  0.7043
15762TIP3    H168701   2.909   3.638   1.091  0.0790 -0.5614 -0.6590
15762TIP3    H268702   2.774   3.693   1.131  0.5350  0.1868 -0.1249
15763TIP3   OH268703   5.176   6.451  12.844  0.2842  0.2265  0.8479
15763TIP3    H168704   5.104   6.444  12.781 -0.4359  1.0641  1.5482
15763TIP3    H268705   5.226   6.527  12.816  0.7784 -0.2135  0.5032
15764TIP3   OH268706   2.732   2.647   5.454 -0.3107 -0.6881  0.1085
15764TIP3    H168707   2.734   2.739   5.481 -1.1805 -0.7830  0.4967
15764TIP3    H268708   2.825   2.622   5.449 -0.0696  0.1687  0.1122
15765TIP3   OH268709   1.454   4.679  16.227  0.9538  0.1946 -0.2029
15765TIP3    H168710   1.479   4.590  16.250  0.0891  0.5736  2.5019
15765TIP3    H268711   1.526   4.733  16.258 -0.2242  0.7174  1.7844
15766TIP3   OH268712   3.139   5.416  17.125 -0.4052  0.5059  0.5865
15766TIP3    H168713   3.139   5.475  17.200  1.7844 -0.1233  1.1706
15766TIP3    H268714   3.179   5.467  17.054  0.5007  0.0910  0.7874
15767TIP3   OH268715   0.206   2.297  12.764  0.1006 -0.2423  0.0713
15767TIP3    H168716   0.173   2.276  12.676 -0.7612  1.5559 -0.0842
15767TIP3    H268717   0.287   2.344  12.749  0.9505 -1.5755  0.3392
15768TIP3   OH268718   2.066   5.703   4.569 -0.4039  0.7680 -0.2379
15768TIP3    H168719   2.057   5.798   4.563 -1.7120  0.6254 -0.8423
15768TIP3    H268720   1.991   5.668   4.520  0.7747 -0.5885 -1.1326
15769TIP3   OH268721   4.596   1.267   0.963  0.2600  0.4144 -0.1337
15769TIP3    H168722   4.522   1.328   0.960  0.4206  0.7298  1.3939
15769TIP3    H268723   4.556   1.181   0.978  0.0846  0.2115 -1.5747
15770TIP3   OH268724   3.124   6.061  16.443  0.2490 -0.2537 -0.2828
15770TIP3    H168725   3.053   6.065  16.507  1.0945  0.4315  0.6547
15770TIP3    H268726   3.082   6.031  16.362 -1.0388 -0.1614  0.3195
15771TIP3   OH268727   4.369   1.610  16.542 -0.7032 -0.7851  0.0090
15771TIP3    H168728   4.461   1.609  16.569  0.5393 -0.2268 -3.5939
15771TIP3    H268729   4.328   1.677  16.597  1.9438  1.5229 -0.6116
15772TIP3   OH268730   0.548   0.714  13.988 -0.1786 -0.4528  0.4141
15772TIP3    H168731   0.507   0.635  14.024 -1.3333 -0.1345 -0.1570
15772TIP3    H268732   0.530   0.710  13.894 -0.5806  0.6723  0.4296
15773TIP3   OH268733   2.242   4.173  11.943 -0.4160  0.2061 -0.0474
15773TIP3    H168734   2.279   4.219  11.867  0.2322  0.7328  0.5747
15773TIP3    H268735   2.153   4.152  11.916 -0.4964  1.1879 -0.6315
15774TIP3   OH268736   5.172   0.792  16.967  0.1764  0.7979 -0.6709
15774TIP3    H168737   5.240   0.762  16.907 -1.0112 -1.2767 -1.0931
15774TIP3    H268738   5.167   0.724  17.034  0.7758  2.5791  1.2718
15775TIP3   OH268739   5.233   1.086  15.706  0.5785 -0.1984  0.1200
15775TIP3    H168740   5.255   1.002  15.747  1.5012  1.2488  2.8800
15775TIP3    H268741   5.155   1.116  15.753  0.2792  0.5091 -0.8033
15776TIP3   OH268742   5.539   3.807  12.875  0.0558 -0.2112  0.3472
15776TIP3    H168743   5.569   3.720  12.899  0.4536 -0.0723  0.3651
15776TIP3    H268744   5.574   3.865  12.943  1.1506  0.1759 -0.5112
15777TIP3   OH268745   5.106   0.587  15.393  0.1175 -0.6812 -0.1430
15777TIP3    H168746   5.082   0.495  15.390  0.3286 -0.7284 -0.3769
15777TIP3    H268747   5.076   0.617  15.480  1.3950 -1.3417  0.5464
15778TIP3   OH268748   5.479   0.453   2.162 -0.0062  0.2717  0.3397
15778TIP3    H168749   5.401   0.485   2.206 -0.0307  0.4716  0.1502
15778TIP3    H268750   5.505   0.376   2.213 -0.3570  0.1700  0.3718
15779TIP3   OH268751   3.600   2.565  17.066  0.4265 -0.2108 -0.1892
15779TIP3    H168752   3.624   2.520  17.147 -0.9466 -1.4023 -0.4044
15779TIP3    H268753   3.574   2.495  17.006 -1.6583  0.8225 -0.5763
15780TIP3   OH268754   5.108   5.667   5.545  0.3546 -0.3052  0.4136
15780TIP3    H168755   5.030   5.721   5.538  0.0326 -0.9832 -3.2409
15780TIP3    H268756   5.079   5.589   5.593 -0.1131  1.0849  2.4931
15781TIP3   OH268757   4.413   5.704  16.678 -0.1707 -0.0341  1.4345
15781TIP3    H168758   4.394   5.790  16.716 -2.2333 -0.4315  1.4514
15781TIP3    H268759   4.370   5.641  16.737 -2.5508 -0.7296 -0.8185
15782TIP3   OH268760   2.421   4.249  16.184  0.2723 -0.2837  0.4443
15782TIP3    H168761   2.495   4.307  16.165 -0.2019  0.0655 -0.4033
15782TIP3    H268762   2.443   4.167  16.141  0.1635 -0.1756  0.1807
15783TIP3   OH268763   0.303   5.270  10.415 -0.3574 -0.1834  0.2894
15783TIP3    H168764   0.231   5.278  10.352  1.0527  0.2276 -1.3356
15783TIP3    H268765   0.341   5.184  10.398  0.2004  0.0373  0.4070
15784TIP3   OH268766   6.669   5.605   5.573  0.0054  0.3435 -0.3517
15784TIP3    H168767   6.597   5.543   5.562  0.0033  0.2703  0.0500
15784TIP3    H268768   6.632   5.690   5.547 -0.5069  0.4640  0.7082
15785TIP3   OH268769   3.448   2.073  16.516 -0.1904 -0.0747  0.5577
15785TIP3    H168770   3.390   2.148  16.510 -0.6299 -0.4735 -0.5045
15785TIP3    H268771   3.389   1.997  16.513  0.3192 -0.4678  0.2406
15786TIP3   OH268772   4.591   3.830  12.688  0.2502  0.1688  0.2497
15786TIP3    H168773   4.613   3.923  12.688  1.9056 -0.1885  1.0646
15786TIP3    H268774   4.582   3.807  12.780  0.1761 -0.5535  0.0699
15787TIP3   OH268775   4.773   4.198   4.093  0.1050 -0.1663  0.1055
15787TIP3    H168776   4.763   4.191   4.188 -1.1365  0.7152  0.0634
15787TIP3    H268777   4.746   4.112   4.059  0.1472 -0.3452  0.5202
15788TIP3   OH268778   5.042   4.524  13.088  0.1142  0.0545  0.7967
15788TIP3    H168779   4.950   4.529  13.064 -0.0764 -0.4138  1.4189
15788TIP3    H268780   5.044   4.470  13.167  1.0074 -0.7270  0.2697
15789TIP3   OH268781   5.947   1.940   2.640  0.7272  0.4950 -0.6112
15789TIP3    H168782   5.946   2.017   2.583  1.8959  0.3053 -0.9235
15789TIP3    H268783   6.040   1.921   2.652  0.4621 -0.5051 -0.0343
15790TIP3   OH268784   2.368   3.886   2.173  0.3170  0.1586 -0.4458
15790TIP3    H168785   2.281   3.857   2.145  0.7938 -0.2476 -1.5735
15790TIP3    H268786   2.390   3.829   2.247  0.0289 -0.3863 -0.7764
15791TIP3   OH268787   1.679   6.133  16.201 -0.1082  0.2182  0.0251
15791TIP3    H168788   1.585   6.151  16.198 -0.0348  0.5996 -0.0071
15791TIP3    H268789   1.709   6.147  16.112  0.0812  0.6676  0.1564
15792TIP3   OH268790   4.634   1.613  14.060 -0.2461 -0.1820  0.1993
15792TIP3    H168791   4.603   1.702  14.047  1.0620  0.1151 -1.2155
15792TIP3    H268792   4.557   1.564  14.087 -1.6247  0.7991 -1.7132
15793TIP3   OH268793   5.874   1.319  15.408 -0.2931 -0.2691  0.2134
15793TIP3    H168794   5.781   1.341  15.420 -0.4411  0.1158 -1.3987
15793TIP3    H268795   5.880   1.292  15.317  0.7376 -2.7547  0.9278
15794TIP3   OH268796   3.218   6.527   1.738 -0.3469 -0.2484 -0.0928
15794TIP3    H168797   3.216   6.452   1.798 -0.4563  0.9056  1.3987
15794TIP3    H268798   3.163   6.499   1.664 -0.4568 -1.5987  0.4584
15795TIP3   OH268799   2.503   6.212  14.972 -0.3471  0.0205  0.6811
15795TIP3    H168800   2.450   6.153  14.919  0.5461 -0.4640  0.2896
15795TIP3    H268801   2.459   6.296  14.967 -0.9796 -0.3318  0.2314
15796TIP3   OH268802   0.373   0.073   5.079 -0.5092  0.4501  0.4641
15796TIP3    H168803   0.354   0.158   5.041  1.2591  0.8177  0.3350
15796TIP3    H268804   0.351   0.010   5.011 -1.5131  0.7967  0.4473
15797TIP3   OH268805   5.596   0.000   2.097  0.3465 -0.4511 -0.0755
15797TIP3    H168806   5.658  -0.013   2.026 -0.0810 -2.6540 -0.0990
15797TIP3    H268807   5.511  -0.026   2.060 -0.2471  0.4410  0.6125
15798TIP3   OH268808   5.939   1.048  12.298  0.4587 -0.1462 -0.0135
15798TIP3    H168809   5.870   1.043  12.364 -1.9551  0.1924 -2.3377
15798TIP3    H268810   5.935   0.964  12.253 -0.0536  0.7194 -1.6410
15799TIP3   OH268811   2.430   2.286  14.085  0.1170 -0.3526 -0.2245
15799TIP3    H168812   2.396   2.327  14.164  0.2772  1.2220 -0.9340
15799TIP3    H268813   2.502   2.231  14.115  0.5557  0.6812  0.6542
15800TIP3   OH268814   1.011   3.733  15.619  0.0432 -0.0322  0.0681
15800TIP3    H168815   1.006   3.805  15.682 -0.2049 -0.5502  0.6546
15800TIP3    H268816   1.050   3.660  15.668  0.2222 -0.3233 -0.4936
15801TIP3   OH268817   0.645   1.561   4.298  0.1415 -0.3736  0.5785
15801TIP3    H168818   0.706   1.626   4.331 -0.0513 -0.9780  2.2317
15801TIP3    H268819   0.649   1.490   4.362 -1.7320 -0.7496  0.3347
15802TIP3   OH268820   0.604   5.189  14.923 -0.4393  0.4342 -0.0302
15802TIP3    H168821   0.568   5.118  14.869  0.2593  1.1475 -1.4853
15802TIP3    H268822   0.602   5.154  15.012 -0.7918 -1.1387 -0.6111
15803TIP3   OH268823   2.563   2.127  10.719  0.2495  0.6833  0.0655
15803TIP3    H168824   2.643   2.154  10.765  1.7007 -1.6432 -0.9204
15803TIP3    H268825   2.569   2.169  10.633  2.1273 -1.9037 -1.1913
15804TIP3   OH268826   1.945   4.255  12.144  0.0592 -0.0047 -0.7021
15804TIP3    H168827   1.960   4.349  12.133 -2.1892  0.1658 -3.1719
15804TIP3    H268828   1.850   4.247  12.153  0.3786 -1.8743  2.7225
15805TIP3   OH268829   1.922   6.584  12.579 -0.1951 -0.2644 -0.1754
15805TIP3    H168830   1.915   6.621  12.667  2.3643  0.6729 -0.2695
15805TIP3    H268831   1.982   6.510  12.590  1.2614  0.6915 -1.2914
15806TIP3   OH268832   1.890   2.570  16.782 -0.2466 -0.2343 -0.4854
15806TIP3    H168833   1.880   2.665  16.790  1.1244 -0.2083  1.8941
15806TIP3    H268834   1.825   2.533  16.841  0.7738 -0.6705  0.3910
15807TIP3   OH268835   4.725   0.102  13.917 -0.1758  0.4015  0.3161
15807TIP3    H168836   4.755   0.031  13.973  1.0651  0.5765 -0.0979
15807TIP3    H268837   4.725   0.179  13.974  2.7047  0.9240 -0.2624
15808TIP3   OH268838   3.891   1.928  16.604  0.5534  0.1992  0.3419
15808TIP3    H168839   3.832   1.885  16.542 -0.5295  1.7942  0.2036
15808TIP3    H268840   3.923   2.005  16.558 -0.3854  1.4989  1.7497
15809TIP3   OH268841   2.475   4.409  15.411  0.9640 -0.3806  0.1618
15809TIP3    H168842   2.434   4.409  15.498  0.6343  0.1686  0.0121
15809TIP3    H268843   2.512   4.321  15.402 -0.0406 -0.8326  0.3628
15810TIP3   OH268844   3.383   4.215  15.383 -0.5550 -0.1477 -0.2050
15810TIP3    H168845   3.441   4.285  15.354 -0.6046  0.9921  2.2095
15810TIP3    H268846   3.440   4.139  15.396 -0.1429  0.0590 -0.8046
15811TIP3   OH268847   4.321   2.157   3.536  0.7145 -0.0321 -0.3592
15811TIP3    H168848   4.393   2.183   3.478  1.6720  3.7449  2.1674
15811TIP3    H268849   4.352   2.077   3.578  1.3606 -1.0412 -2.5865
15812TIP3   OH268850   5.530   3.186  16.990 -0.0283 -0.0003 -0.6179
15812TIP3    H168851   5.470   3.121  16.954  0.0522  1.0396 -2.7916
15812TIP3    H268852   5.605   3.186  16.931  0.2624  1.5828 -0.3129
15813TIP3   OH268853   6.163   5.730  10.595  0.3137 -0.5751  0.3510
15813TIP3    H168854   6.091   5.733  10.657  0.4970 -2.1227  0.6924
15813TIP3    H268855   6.242   5.730  10.649  0.5354 -0.1100  0.0325
15814TIP3   OH268856   1.883   2.461  11.302  0.4433  0.0212  0.1965
15814TIP3    H168857   1.937   2.421  11.233  0.6417  0.9305 -0.1818
15814TIP3    H268858   1.859   2.387  11.358 -1.4218 -1.1379 -1.9399
15815TIP3   OH268859   4.269   0.285   2.922 -0.3738  0.1903 -0.1496
15815TIP3    H168860   4.252   0.208   2.977 -2.9626  0.5757 -0.2640
15815TIP3    H268861   4.306   0.249   2.841 -0.6808 -0.8499  0.1559
15816TIP3   OH268862   1.830   5.220  13.115  0.1641  0.0998 -0.1495
15816TIP3    H168863   1.879   5.142  13.090 -1.4549 -0.6057 -1.3129
15816TIP3    H268864   1.791   5.251  13.033 -1.0807  0.7774  0.6603
15817TIP3   OH268865   5.823   2.304   4.428 -0.3011 -0.5758 -0.2814
15817TIP3    H168866   5.747   2.254   4.399 -0.6071  0.2215 -0.8775
15817TIP3    H268867   5.791   2.356   4.502  0.0470 -1.3243  0.4136
15818TIP3   OH268868   4.818   6.539  11.394 -0.5749 -0.1610  0.4042
15818TIP3    H168869   4.797   6.514  11.304 -1.9549  3.3022 -0.3862
15818TIP3    H268870   4.733   6.542  11.438 -0.0200 -0.8028  1.5675
15819TIP3   OH268871   2.513   5.200  13.247 -0.4312 -0.4749 -0.3175
15819TIP3    H168872   2.597   5.226  13.283 -1.0417 -1.2547  1.7937
15819TIP3    H268873   2.491   5.270  13.185  1.1770  0.3641  0.0044
15820TIP3   OH268874   0.202   0.436   0.379  0.1066 -0.3449 -0.0547
15820TIP3    H168875   0.164   0.516   0.343 -0.6829 -1.1378 -1.0624
15820TIP3    H268876   0.127   0.379   0.395  0.6704 -0.9522  0.4653
15821TIP3   OH268877   5.434   5.467  16.955  0.2335  0.5798  0.0504
15821TIP3    H168878   5.447   5.542  17.013 -0.6072  0.4323  0.4416
15821TIP3    H268879   5.401   5.398  17.012  0.4743  0.0766 -0.4084
15822TIP3   OH268880   4.828   6.289  11.674 -0.0167  0.2352  0.0288
15822TIP3    H168881   4.870   6.338  11.745 -1.2144 -0.9690  1.6504
15822TIP3    H268882   4.790   6.357  11.618 -0.0824  1.2182  1.2179
15823TIP3   OH268883   4.407   5.654  11.786  0.4602 -0.0646 -0.1755
15823TIP3    H168884   4.314   5.666  11.805  0.5431  2.4034 -0.9317
15823TIP3    H268885   4.409   5.632  11.693  0.6336  0.8974 -0.4176
15824TIP3   OH268886   1.501   6.106   0.062 -0.9131  0.3386  0.2798
15824TIP3    H168887   1.448   6.077   0.136 -1.2564 -1.8358 -0.7441
15824TIP3    H268888   1.453   6.075  -0.015  0.5738  0.5619 -0.7666
15825TIP3   OH268889   4.406   3.027   0.739 -0.2953  0.3010 -0.0419
15825TIP3    H168890   4.463   2.993   0.670  1.4173  1.2577  0.8240
15825TIP3    H268891   4.464   3.081   0.793 -1.6106 -0.2301  2.0172
15826TIP3   OH268892   6.092   0.126  11.944 -0.0276  0.0684 -0.0020
15826TIP3    H168893   6.050   0.043  11.922 -0.9464  0.4846  0.1491
15826TIP3    H268894   6.023   0.191  11.934  0.8069  0.8872 -0.6121
15827TIP3   OH268895   3.790   5.784  17.060  0.4147 -0.5077  0.2200
15827TIP3    H168896   3.801   5.876  17.082  1.9206 -1.0823  2.1497
15827TIP3    H268897   3.860   5.766  16.997 -0.6930 -0.0643 -1.1770
15828TIP3   OH268898   3.630   4.860  11.742 -0.5721 -0.2438 -0.7021
15828TIP3    H168899   3.563   4.927  11.728 -0.7468 -0.1076  0.6874
15828TIP3    H268900   3.699   4.906  11.791 -2.0035 -1.7191  3.0270
15829TIP3   OH268901   4.530   0.363  16.872 -0.6556  0.7650 -0.3054
15829TIP3    H168902   4.515   0.437  16.931  1.9155 -0.4609  2.1257
15829TIP3    H268903   4.518   0.286  16.927 -1.5218 -0.6193 -2.3149
15830TIP3   OH268904   1.448   0.695   0.723  0.3800 -0.1352 -0.7812
15830TIP3    H168905   1.472   0.748   0.646  0.3614  0.9206 -0.0803
15830TIP3    H268906   1.354   0.681   0.714  0.5322 -0.8346 -1.4329
15831TIP3   OH268907   3.620   4.222  11.737  0.6321 -0.0062  0.0046
15831TIP3    H168908   3.566   4.297  11.759  0.5165  0.1713 -0.8294
15831TIP3    H268909   3.560   4.148  11.736  0.3805  0.1969 -0.9593
15832TIP3   OH268910   3.618   4.406  12.872 -0.1525  0.0711  0.1784
15832TIP3    H168911   3.642   4.358  12.951  1.8433  0.0389 -0.3752
15832TIP3    H268912   3.545   4.357  12.835  0.8672 -1.7040  0.4165
15833TIP3   OH268913   6.005   3.434   2.352  0.5824 -0.1105 -0.2284
15833TIP3    H168914   5.937   3.500   2.366 -1.4934 -2.2338  0.3192
15833TIP3    H268915   6.084   3.485   2.331 -0.9562  2.4926 -0.1345
15834TIP3   OH268916   6.027   4.526  13.816  0.2719  0.0841  0.8610
15834TIP3    H168917   6.065   4.607  13.780 -1.7118  0.9607  0.5665
15834TIP3    H268918   6.029   4.465  13.742  0.4279  0.3638  0.6278
15835TIP3   OH268919   1.806   4.065   5.933 -0.0094 -0.2123  0.0027
15835TIP3    H168920   1.719   4.084   5.969 -0.6644 -2.0667 -0.4834
15835TIP3    H268921   1.866   4.118   5.985 -1.1763 -0.8485  2.1250
15836TIP3   OH268922   2.438   0.930   3.176  0.2164  0.5494  0.2251
15836TIP3    H168923   2.455   0.918   3.270 -1.3213 -1.1344  0.3539
15836TIP3    H268924   2.358   0.983   3.173  0.2789  0.6264 -0.1361
15837TIP3   OH268925   3.510   2.932   1.903  0.3353  0.8930 -0.0375
15837TIP3    H168926   3.527   3.014   1.951 -0.4843  1.3245 -0.4744
15837TIP3    H268927   3.576   2.931   1.833  2.3621 -0.3390  1.7528
15838TIP3   OH268928   2.428   4.459  14.519 -0.0951 -0.0494 -0.5718
15838TIP3    H168929   2.340   4.426  14.534  0.0913  0.2472  1.4900
15838TIP3    H268930   2.432   4.540  14.571  1.9961 -1.1428  1.1291
15839TIP3   OH268931   1.482   6.378  15.273  0.4680 -0.7411  0.7513
15839TIP3    H168932   1.511   6.339  15.191 -3.3102  0.7850 -1.5255
15839TIP3    H268933   1.484   6.472  15.257 -3.0602 -0.4629  1.2253
15840TIP3   OH268934   1.629   2.407  13.138  0.0290 -0.0145  0.2790
15840TIP3    H168935   1.600   2.495  13.163 -2.1498 -0.4717 -0.4163
15840TIP3    H268936   1.641   2.361  13.221  0.1711  0.6069  0.6156
15841TIP3   OH268937   5.998   5.940  15.201  0.2194 -0.6269 -0.0550
15841TIP3    H168938   6.011   6.035  15.198  1.7646 -0.6844  1.9399
15841TIP3    H268939   5.958   5.925  15.287  0.7513 -1.8227 -0.0060
15842TIP3   OH268940   0.106   2.960   4.861 -0.1959  0.3453  0.0741
15842TIP3    H168941   0.106   2.881   4.915 -0.0314 -0.4456 -1.0310
15842TIP3    H268942   0.115   3.032   4.923  1.8397 -0.6005  0.9938
15843TIP3   OH268943   6.579   2.660  14.650 -0.0262 -0.3408  0.3701
15843TIP3    H168944   6.575   2.568  14.674  2.6841 -1.0014 -1.3237
15843TIP3    H268945   6.670   2.685  14.666 -0.9895  2.5382  2.2301
15844TIP3   OH268946   2.885   0.973   4.880 -0.2813  0.7055  0.4121
15844TIP3    H168947   2.924   0.967   4.793 -1.7478  2.8989 -0.4735
15844TIP3    H268948   2.818   0.906   4.881  0.1862  0.2243  0.1243
15845TIP3   OH268949   4.571   6.728   1.034 -0.9122 -0.6879 -0.4268
15845TIP3    H168950   4.661   6.760   1.044 -1.6177  1.2446  0.1926
15845TIP3    H268951   4.549   6.746   0.943 -1.2508  0.5746 -0.1222
15846TIP3   OH268952   1.311   0.065  11.172  0.5140  0.2397 -0.2982
15846TIP3    H168953   1.381   0.125  11.198 -0.1123 -0.1164  2.5555
15846TIP3    H268954   1.347  -0.022  11.187 -0.0113  0.0201 -0.2769
15847TIP3   OH268955   6.503   6.454   3.213  0.0680 -0.0745 -0.4582
15847TIP3    H168956   6.539   6.383   3.161 -0.8544 -0.3556 -0.7227
15847TIP3    H268957   6.478   6.413   3.296  1.3005  0.3222  0.1403
15848TIP3   OH268958   6.447   4.896   6.033  0.0199 -0.1468 -0.2931
15848TIP3    H168959   6.399   4.813   6.023 -1.0144  0.4230 -0.1911
15848TIP3    H268960   6.386   4.962   6.000  0.5481  0.6512  0.3179
15849TIP3   OH268961   6.448   1.152   1.469  0.3392 -0.3332 -0.2079
15849TIP3    H168962   6.423   1.093   1.398  0.1223 -3.1793  2.0541
15849TIP3    H268963   6.539   1.176   1.449  1.2028 -3.1899 -0.2474
15850TIP3   OH268964   0.376   1.208   4.530  0.0280 -0.1613  0.1746
15850TIP3    H168965   0.392   1.127   4.481  0.8846  0.8924 -1.3852
15850TIP3    H268966   0.459   1.225   4.575  0.2724  0.4517 -0.4786
15851TIP3   OH268967   3.406   1.832   4.977 -0.5025 -0.0624  0.4164
15851TIP3    H168968   3.442   1.893   4.912 -1.8010  0.0131 -0.2600
15851TIP3    H268969   3.455   1.751   4.963  0.1847  0.3656  0.2908
15852TIP3   OH268970   6.735   6.420   0.939 -0.0837  0.1138 -0.1839
15852TIP3    H168971   6.645   6.445   0.962  0.0033  0.1492  0.1227
15852TIP3    H268972   6.738   6.427   0.843  0.1109  1.8360 -0.0855
15853TIP3   OH268973   1.955   0.202   3.096 -0.1946 -0.2477 -0.3002
15853TIP3    H168974   1.868   0.243   3.099  0.5376  1.5515 -1.7879
15853TIP3    H268975   2.009   0.254   3.154  0.1569 -0.7130 -0.2010
15854TIP3   OH268976   6.724   4.986   3.464  0.8510 -0.1761  0.0335
15854TIP3    H168977   6.710   5.078   3.486  0.3481 -0.3550  0.4825
15854TIP3    H268978   6.673   4.973   3.384 -0.6652 -0.5308  1.0209
15855TIP3   OH268979   4.455   3.159  13.249 -0.5935  0.2041 -0.1294
15855TIP3    H168980   4.545   3.174  13.221 -0.3293 -1.9632 -0.5752
15855TIP3    H268981   4.415   3.112  13.177 -0.6203 -3.2975  1.9488
15856TIP3   OH268982   0.204   5.356  17.180 -0.4446  0.1119 -0.4852
15856TIP3    H168983   0.261   5.425  17.147  0.4441  1.3131  3.1126
15856TIP3    H268984   0.117   5.396  17.184 -0.3107  0.3787 -0.2287
15857TIP3   OH268985   3.486   3.230   0.156  0.7392 -0.2006  0.9610
15857TIP3    H168986   3.546   3.174   0.204  0.2316 -0.5788  1.1626
15857TIP3    H268987   3.410   3.238   0.213  0.4238 -0.0721  0.5258
15858TIP3   OH268988   1.364   5.473   0.250  0.2606  0.2781  0.5490
15858TIP3    H168989   1.367   5.492   0.157 -0.5160  0.7115  0.6062
15858TIP3    H268990   1.448   5.431   0.269  0.3349 -0.0090 -0.3814
15859TIP3   OH268991   2.050   1.314  16.757 -0.3464  0.4251 -0.3293
15859TIP3    H168992   2.043   1.288  16.665  0.1452 -1.0862  0.0228
15859TIP3    H268993   2.031   1.407  16.757 -0.1420  0.5044 -1.9977
15860TIP3   OH268994   4.061   5.425  10.618  0.0604  0.1434 -0.2856
15860TIP3    H168995   3.979   5.469  10.595  0.3473  0.9635  0.2229
15860TIP3    H268996   4.075   5.446  10.710  0.9208  0.1345 -0.4031
15861TIP3   OH268997   3.996   5.941  16.470 -0.1362  0.0489  0.2594
15861TIP3    H168998   4.013   6.022  16.421  1.1143  0.7290  1.7297
15861TIP3    H268999   4.061   5.879  16.437 -0.0629  0.1359  0.2402
15862TIP3   OH269000   0.174   4.146   0.769  0.1962 -0.0863  0.7793
15862TIP3    H169001   0.246   4.159   0.831  1.1695  3.4347 -0.7827
15862TIP3    H269002   0.217   4.127   0.686 -0.8981 -1.4223  0.4936
15863TIP3   OH269003   2.186   3.002   4.873  0.7650 -0.3803  0.1917
15863TIP3    H169004   2.266   3.023   4.824  0.0386  3.3530  0.3668
15863TIP3    H269005   2.208   3.024   4.964  0.2290 -1.6010  0.6351
15864TIP3   OH269006   0.161   1.885   1.163  0.6156  0.3000  0.1701
15864TIP3    H169007   0.230   1.951   1.160 -0.7511  1.7580 -0.2519
15864TIP3    H269008   0.125   1.884   1.074 -1.6653  1.5576  0.9920
15865TIP3   OH269009   2.658   2.847   4.611 -0.0571 -0.1859 -0.5696
15865TIP3    H169010   2.661   2.826   4.704  0.1886  2.2877  0.0621
15865TIP3    H269011   2.620   2.935   4.608  2.6034  1.0435 -2.5461
15866TIP3   OH269012   2.590   2.561  11.814 -0.9754  0.2940  0.2524
15866TIP3    H169013   2.506   2.599  11.841 -0.4533  2.6570 -1.1773
15866TIP3    H269014   2.643   2.562  11.894 -1.1396  2.2564  0.3784
15867TIP3   OH269015   6.435   6.022  17.078  0.6120  0.4266 -0.1481
15867TIP3    H169016   6.368   6.060  17.134  0.4453  1.4898 -1.0392
15867TIP3    H269017   6.509   6.083  17.084  0.3297  0.9531 -1.6219
15868TIP3   OH269018   2.644   6.130   4.906 -0.5772  0.0184  0.0991
15868TIP3    H169019   2.647   6.225   4.892 -1.3109  0.0706  0.2665
15868TIP3    H269020   2.557   6.104   4.877 -0.3433 -0.6288 -0.0507
15869TIP3   OH269021   0.153   0.413  13.507  0.5079  0.4877  0.5730
15869TIP3    H169022   0.181   0.325  13.533  0.0300  0.4366  0.9279
15869TIP3    H269023   0.084   0.398  13.443  0.8697  0.6090  0.1557
15870TIP3   OH269024   1.933   4.649  14.492 -0.5123 -0.0052  0.5890
15870TIP3    H169025   1.887   4.606  14.564 -0.4438  1.2222  1.3978
15870TIP3    H269026   1.984   4.579  14.451 -0.2457 -0.6621  1.9760
15871TIP3   OH269027   2.173   6.231   1.534 -0.2042  0.6209  0.6753
15871TIP3    H169028   2.175   6.268   1.446  1.3639  1.6493  1.1011
15871TIP3    H269029   2.095   6.268   1.574  0.6107  2.4992  0.6401
15872TIP3   OH269030   5.279   6.049  13.370  0.2741 -0.0009 -0.3783
15872TIP3    H169031   5.320   6.078  13.288  0.6624  0.7184  0.0656
15872TIP3    H269032   5.326   6.096  13.439 -1.2383  0.7929  0.1518
15873TIP3   OH269033   3.240   6.272   3.818  0.1670 -0.3852 -0.6586
15873TIP3    H169034   3.156   6.305   3.848  1.0774 -0.0671  1.7842
15873TIP3    H269035   3.237   6.282   3.723 -2.3098  0.1152 -0.5999
15874TIP3   OH269036   4.793   4.466  11.355 -0.0585 -0.1179  0.5352
15874TIP3    H169037   4.727   4.397  11.362  0.3946 -0.4645  1.6081
15874TIP3    H269038   4.766   4.517  11.278 -0.3341 -1.5492 -0.3635
15875TIP3   OH269039   4.132   4.590   4.557 -0.3679 -0.8789 -0.1065
15875TIP3    H169040   4.197   4.610   4.490 -0.6970  0.7230  0.0119
15875TIP3    H269041   4.049   4.588   4.510 -0.9422  2.6796  0.5124
15876TIP3   OH269042   3.987   4.161  15.542  0.1500  0.2073  0.3326
15876TIP3    H169043   4.075   4.134  15.571  0.0303 -1.8643 -1.0123
15876TIP3    H269044   3.993   4.256  15.534  3.6065 -0.0711 -3.5595
15877TIP3   OH269045   3.585   2.896  11.967 -0.2910  0.2213  0.3634
15877TIP3    H169046   3.605   2.927  11.879 -0.4428  2.0095  0.9218
15877TIP3    H269047   3.670   2.873  12.005 -0.2364 -0.6377 -0.2600
15878TIP3   OH269048   0.708   1.136  13.249  0.1848 -0.1024 -0.1863
15878TIP3    H169049   0.747   1.096  13.328  1.2483 -0.8152 -1.0317
15878TIP3    H269050   0.631   1.083  13.231  0.3344 -0.3821 -0.0144
15879TIP3   OH269051   1.514   1.455  12.642  0.8079 -0.5784  0.3483
15879TIP3    H169052   1.444   1.412  12.594 -0.1061  0.5467  0.6415
15879TIP3    H269053   1.473   1.485  12.723  1.5412  0.3638  0.3868
15880TIP3   OH269054   5.326   6.773   3.153 -0.7841  0.0482  0.1530
15880TIP3    H169055   5.305   6.755   3.062  1.1529 -0.0387 -0.3301
15880TIP3    H269056   5.353   6.865   3.154 -1.9065  0.3888  0.8824
15881TIP3   OH269057   3.144   1.767   5.029  0.1884  0.3236  0.2884
15881TIP3    H169058   3.215   1.770   4.965  0.7997  0.4576  0.9556
15881TIP3    H269059   3.065   1.756   4.977  0.6202  0.9635 -0.5226
15882TIP3   OH269060   2.874   1.643  15.446 -0.0312 -0.0081 -0.3418
15882TIP3    H169061   2.808   1.677  15.505 -2.1385 -1.8516 -1.4882
15882TIP3    H269062   2.880   1.708  15.376  1.0325  1.2144  0.8380
15883TIP3   OH269063   0.319   2.401  16.353  0.7462 -0.1716  0.1718
15883TIP3    H169064   0.237   2.353  16.337  1.5127 -0.8211 -2.2526
15883TIP3    H269065   0.364   2.350  16.419  1.1216 -2.4010 -1.6723
15884TIP3   OH269066   6.140   6.024   2.850 -0.4819 -0.1753  0.4739
15884TIP3    H169067   6.163   5.967   2.923 -0.0558  0.8384  1.1489
15884TIP3    H269068   6.071   6.081   2.884 -0.8483 -0.2280 -0.1664
15885TIP3   OH269069   4.582   5.994  15.207 -0.0952  0.0538  0.5605
15885TIP3    H169070   4.520   5.988  15.280  0.8759 -0.2045  1.3892
15885TIP3    H269071   4.650   6.054  15.239  0.1038  0.3043 -0.3184
15886TIP3   OH269072   2.517   0.318   1.819 -0.2493  0.2131  0.6208
15886TIP3    H169073   2.561   0.302   1.903  0.4990  0.5204  0.3037
15886TIP3    H269074   2.425   0.296   1.835 -0.6487  2.6075  2.2624
15887TIP3   OH269075   6.045   3.105   0.443  0.0817 -0.1279 -0.5933
15887TIP3    H169076   5.971   3.090   0.384 -3.9930  2.6948  3.1038
15887TIP3    H269077   6.081   3.189   0.415 -1.0986  0.6434  0.1025
15888TIP3   OH269078   0.954   3.178  13.154  0.1721  0.2484  0.1235
15888TIP3    H169079   0.967   3.089  13.189 -0.6227 -0.0561 -0.3374
15888TIP3    H269080   0.942   3.165  13.060 -0.9308  0.7471  0.1832
15889TIP3   OH269081   5.001   1.779   1.595  0.3938  0.2835 -0.4265
15889TIP3    H169082   4.907   1.770   1.607  0.4631  2.7003  3.9368
15889TIP3    H269083   5.039   1.718   1.659  1.7805  0.3725 -1.1167
15890TIP3   OH269084   0.287   1.220   1.293 -0.1118  0.0919  0.1931
15890TIP3    H169085   0.270   1.222   1.199  0.8834  1.2755  0.0084
15890TIP3    H269086   0.382   1.210   1.300 -0.3787 -2.8397  1.1380
15891TIP3   OH269087   2.124   4.890  13.730 -0.1028  0.4228  0.4392
15891TIP3    H169088   2.036   4.864  13.703  0.3660  0.1536 -0.8816
15891TIP3    H269089   2.157   4.945  13.659  0.7351  0.6546  0.9883
15892TIP3   OH269090   3.698   3.681  14.655 -0.5623  0.1365 -1.0166
15892TIP3    H169091   3.604   3.679  14.638 -0.9847  1.5533  0.8188
15892TIP3    H269092   3.737   3.701  14.570 -2.1608  2.3207 -1.3228
15893TIP3   OH269093   3.140   3.665  12.167  0.3095 -0.3443  0.3835
15893TIP3    H169094   3.148   3.637  12.259  0.8280 -0.3480  0.3378
15893TIP3    H269095   3.225   3.646  12.129 -0.2966 -1.5340 -0.4314
15894TIP3   OH269096   3.498   6.561   1.134 -0.5111 -0.0920  0.1783
15894TIP3    H169097   3.577   6.517   1.103  0.3956  0.7453  1.2448
15894TIP3    H269098   3.473   6.512   1.213 -0.6935  0.0450  0.2064
15895TIP3   OH269099   1.741   0.397   1.697  0.7200  0.2626  0.4229
15895TIP3    H169100   1.694   0.463   1.748  0.9662  0.4600  0.3941
15895TIP3    H269101   1.752   0.437   1.611  1.0057  0.2446  0.4508
15896TIP3   OH269102   5.807   5.832   0.506 -0.0942  0.2830 -0.2255
15896TIP3    H169103   5.813   5.922   0.477  0.0690 -0.0418 -1.2205
15896TIP3    H269104   5.714   5.812   0.505 -0.2134  0.7198  0.9020
15897TIP3   OH269105   5.670   6.214  15.336 -0.0664  0.0475  0.2358
15897TIP3    H169106   5.631   6.133  15.304  1.0464  0.1464 -1.5365
15897TIP3    H269107   5.714   6.251  15.259  0.1949  1.8837  1.2128
15898TIP3   OH269108   5.237   0.634   3.692 -0.2330  0.7064  0.2306
15898TIP3    H169109   5.277   0.706   3.643  0.6034  0.7995  1.0027
15898TIP3    H269110   5.267   0.648   3.782 -0.2794 -0.4562  0.4352
15899TIP3   OH269111   5.275   2.857   3.549 -0.1583 -0.1097  0.0521
15899TIP3    H169112   5.370   2.846   3.544 -0.1683  0.2306 -1.4736
15899TIP3    H269113   5.263   2.945   3.584  0.0997 -0.0658  0.0329
15900TIP3   OH269114   4.565   6.623   1.538  0.0577  0.5197 -0.2299
15900TIP3    H169115   4.536   6.560   1.604 -2.0476 -1.6226 -2.9507
15900TIP3    H269116   4.659   6.606   1.529 -0.0947 -0.8839  0.4581
15901TIP3   OH269117   0.266   4.765  15.191  0.3174 -0.2902 -0.3860
15901TIP3    H169118   0.220   4.821  15.128  0.2615  0.0984 -0.0044
15901TIP3    H269119   0.245   4.803  15.277 -1.2837 -1.9998  0.0538
15902TIP3   OH269120   2.147   6.569   0.623  0.6457  0.0784  0.5566
15902TIP3    H169121   2.225   6.620   0.645  1.6512  0.4131 -3.1239
15902TIP3    H269122   2.088   6.631   0.581 -0.6300 -0.6927  1.1404
15903TIP3   OH269123   6.522   2.171   2.898 -0.6114 -0.7882 -0.0859
15903TIP3    H169124   6.489   2.132   2.979  1.8539 -1.5844  0.6121
15903TIP3    H269125   6.475   2.124   2.828 -0.1606 -2.7035  0.8299
15904TIP3   OH269126   0.525   0.793  12.195 -0.1833 -0.0798 -0.2094
15904TIP3    H169127   0.471   0.854  12.145 -0.0018  0.8700  0.7196
15904TIP3    H269128   0.569   0.740  12.128 -0.5532  0.6252 -1.0327
15905TIP3   OH269129   3.139   4.425   0.972 -0.3283  0.2347  0.5555
15905TIP3    H169130   3.219   4.405   1.021 -0.7727  1.4480  1.8185
15905TIP3    H269131   3.124   4.518   0.986 -1.2683  0.3133 -0.7473
15906TIP3   OH269132   3.369   4.855  14.880  0.2192  0.1950 -0.4377
15906TIP3    H169133   3.348   4.789  14.946 -0.0495 -0.9113 -1.5936
15906TIP3    H269134   3.392   4.933  14.931  0.7087 -0.8222  0.9650
15907TIP3   OH269135   1.241   0.207  12.530  0.2568 -0.2496  0.0422
15907TIP3    H169136   1.283   0.217  12.444  2.4943  1.8893  1.2439
15907TIP3    H269137   1.149   0.189  12.510  0.4780  1.1804 -2.8079
15908TIP3   OH269138   4.337   3.786  13.889 -0.2612 -0.0362 -0.0513
15908TIP3    H169139   4.334   3.703  13.841 -0.3124 -0.1151  0.0865
15908TIP3    H269140   4.431   3.803  13.902 -0.2590 -0.7504  1.0671
15909TIP3   OH269141   1.736   4.211   2.237 -0.3562  0.0493 -0.1595
15909TIP3    H169142   1.749   4.174   2.325  0.0417  0.3321 -0.0953
15909TIP3    H269143   1.642   4.222   2.230 -0.4270 -0.3521  0.0764
15910TIP3   OH269144   4.676   4.486  16.259  0.2724  0.3575 -0.1237
15910TIP3    H169145   4.706   4.439  16.336 -0.5539  1.0077  0.6230
15910TIP3    H269146   4.716   4.573  16.267 -1.1318  0.9786  0.4823
15911TIP3   OH269147   2.747   0.943  15.035 -0.4559 -0.3374  0.2490
15911TIP3    H169148   2.705   1.013  15.086  1.5315  2.4217 -1.5649
15911TIP3    H269149   2.826   0.922  15.084 -0.9050 -1.1586  0.6416
15912TIP3   OH269150   1.582   3.390   4.446  0.1049  0.0235  0.2053
15912TIP3    H169151   1.553   3.435   4.367  1.0332 -0.2550 -0.3127
15912TIP3    H269152   1.677   3.387   4.439  0.0838 -2.2199  0.0754
15913TIP3   OH269153   4.924   6.399  14.558  0.1045 -0.0873 -0.0171
15913TIP3    H169154   4.913   6.424  14.466 -0.2306 -0.9400 -0.2160
15913TIP3    H269155   4.835   6.393  14.592  0.2189 -0.0772  0.2805
15914TIP3   OH269156   4.508   0.588  14.469 -0.0850  0.0284 -0.1157
15914TIP3    H169157   4.480   0.674  14.501  1.9601  1.0944 -0.9773
15914TIP3    H269158   4.575   0.560  14.531  1.3498  0.4638 -1.4049
15915TIP3   OH269159   0.890   4.000  13.257 -0.0049  0.4853 -0.1325
15915TIP3    H169160   0.807   3.958  13.235  0.1443 -0.9491  1.7567
15915TIP3    H269161   0.870   4.052  13.335  1.1473 -1.1772  1.3484
15916TIP3   OH269162   5.029   4.529  15.892 -0.2628  0.1196 -0.2086
15916TIP3    H169163   5.093   4.537  15.962 -0.0600 -0.2846 -0.3508
15916TIP3    H269164   4.949   4.568  15.928  0.1199  0.8393 -0.1171
15917TIP3   OH269165   0.580   6.504   0.063  0.1955  0.4455  0.3627
15917TIP3    H169166   0.652   6.540   0.114  0.4500  1.2329 -0.5309
15917TIP3    H269167   0.558   6.573   0.001  0.1032 -0.6021 -0.8004
15918TIP3   OH269168   4.523   3.099  16.467  0.6213 -0.0911 -0.7631
15918TIP3    H169169   4.458   3.035  16.497  1.3523 -0.4468  0.1107
15918TIP3    H269170   4.586   3.048  16.417  0.6613  0.1179 -0.9272
15919TIP3   OH269171   1.602   5.212  11.427  0.2689 -0.3853 -0.6700
15919TIP3    H169172   1.609   5.205  11.522  0.6130 -1.8537 -0.7681
15919TIP3    H269173   1.691   5.233  11.398  0.0823  0.4468 -0.6455
15920TIP3   OH269174   4.499   0.519  12.818  0.5853 -0.1979  0.0952
15920TIP3    H169175   4.438   0.566  12.760 -0.5037  0.4178  1.6798
15920TIP3    H269176   4.452   0.440  12.843  0.3297  0.3662  1.4709
15921TIP3   OH269177   1.958   1.752   5.029  0.0464  0.4423 -0.1607
15921TIP3    H169178   1.890   1.715   5.085 -0.0246  2.6488  1.3343
15921TIP3    H269179   1.923   1.835   4.999  0.1204 -0.5755 -3.5727
15922TIP3   OH269180   6.175   0.805   5.245 -0.4774  0.2256  0.7226
15922TIP3    H169181   6.104   0.787   5.308 -1.3126 -2.3306 -0.7949
15922TIP3    H269182   6.141   0.876   5.190 -2.1046 -1.1835 -0.1919
15923TIP3   OH269183   2.834   2.772  16.087  0.2392 -0.5612  0.0964
15923TIP3    H169184   2.813   2.865  16.092  0.7353 -0.4555  0.2984
15923TIP3    H269185   2.863   2.749  16.176  0.1765 -0.8930  0.0330
15924TIP3   OH269186   5.479   0.383   5.117  0.1678 -0.3127 -0.1240
15924TIP3    H169187   5.438   0.409   5.199  1.5783 -0.4455  0.6489
15924TIP3    H269188   5.570   0.364   5.140  0.9161  0.8136 -1.9206
15925TIP3   OH269189   0.437   5.657   0.157  0.5499 -0.1905 -0.0333
15925TIP3    H169190   0.504   5.721   0.181  0.8517 -0.3741 -0.3842
15925TIP3    H269191   0.417   5.674   0.065  1.1961 -1.0879 -0.3578
15926TIP3   OH269192   5.181   0.356  16.924 -0.1511 -0.2603  0.2385
15926TIP3    H169193   5.224   0.282  16.882  1.5078  1.4818 -1.2976
15926TIP3    H269194   5.247   0.392  16.983 -0.8176  0.1973  0.7174
15927TIP3   OH269195   4.389   1.730   1.497 -0.2224 -0.2551  0.5606
15927TIP3    H169196   4.327   1.803   1.500 -1.4414 -1.1704 -0.9951
15927TIP3    H269197   4.365   1.675   1.572 -1.1020 -0.4465  0.1481
15928TIP3   OH269198   4.070   3.325  11.512  0.7503  0.1883 -0.2428
15928TIP3    H169199   4.094   3.245  11.465 -0.3690  0.0705 -0.6397
15928TIP3    H269200   4.153   3.357  11.549  1.0858 -1.5948  0.6148
15929TIP3   OH269201   0.528   0.273   2.026  0.2488  0.3044 -0.5469
15929TIP3    H169202   0.443   0.260   2.066  0.3007 -1.0027 -0.8182
15929TIP3    H269203   0.554   0.362   2.052 -1.3440  0.8557 -0.7811
15930TIP3   OH269204   1.640   3.511  14.549 -0.6007 -0.3152 -0.2248
15930TIP3    H169205   1.701   3.478  14.616 -1.1749 -1.4471 -0.2385
15930TIP3    H269206   1.677   3.596  14.524  1.4548 -1.3036 -0.8212
15931TIP3   OH269207   1.701   4.459   1.055  0.0975 -0.4851 -0.6235
15931TIP3    H169208   1.779   4.506   1.083  0.2723 -0.3372 -1.3410
15931TIP3    H269209   1.727   4.412   0.976 -0.6248 -0.1561 -1.0749
15932TIP3   OH269210   5.767   4.508  10.540  0.0385  0.5160 -0.1601
15932TIP3    H169211   5.679   4.473  10.555  1.1516 -2.1178  0.7296
15932TIP3    H269212   5.783   4.493  10.447  0.0624 -0.3002 -0.0289
15933TIP3   OH269213   2.529   2.463   4.618  0.4926 -0.0913  0.0177
15933TIP3    H169214   2.511   2.450   4.712  0.4285 -1.9143 -0.2075
15933TIP3    H269215   2.578   2.385   4.593  0.6293  0.4515 -1.4452
15934TIP3   OH269216   0.343   0.830   6.652 -0.0217 -0.3737 -0.0121
15934TIP3    H169217   0.314   0.746   6.614  0.5927 -0.2915 -0.6673
15934TIP3    H269218   0.304   0.896   6.595 -0.2551 -0.2116  0.3310
15935TIP3   OH269219   3.880   4.860  11.254 -0.3443  0.0627  0.1729
15935TIP3    H169220   3.785   4.853  11.267 -0.5456  2.5340  0.6568
15935TIP3    H269221   3.918   4.818  11.331 -1.0921  0.0520  0.5444
15936TIP3   OH269222   3.259   0.657   4.359  0.7114  0.4315  0.2006
15936TIP3    H169223   3.231   0.663   4.450 -3.0537 -2.9705 -0.4750
15936TIP3    H269224   3.331   0.594   4.360 -1.1315 -1.8168  0.7183
15937TIP3   OH269225   1.408   3.186  15.933  0.0999 -0.0773  0.2138
15937TIP3    H169226   1.439   3.130  16.004  0.4307  0.7210  0.7028
15937TIP3    H269227   1.385   3.124  15.863  0.9189 -0.7970  0.5599
15938TIP3   OH269228   5.435   3.859  16.037  0.0673 -0.5798  0.6558
15938TIP3    H169229   5.381   3.934  16.011  1.1133 -0.2166 -0.5547
15938TIP3    H269230   5.381   3.811  16.100 -1.4208  0.1012 -0.0614
15939TIP3   OH269231   2.491   1.367  13.887 -0.4850  0.0467 -0.2849
15939TIP3    H169232   2.507   1.318  13.968 -2.2047  0.4266  0.3262
15939TIP3    H269233   2.396   1.362  13.874 -0.7645  3.2122 -0.1880
15940TIP3   OH269234   5.059   3.274   4.510 -0.4730 -0.5413 -0.0168
15940TIP3    H169235   5.138   3.326   4.518 -1.4711  0.8230  1.7531
15940TIP3    H269236   5.082   3.189   4.548  0.7906 -1.0110 -1.7219
15941TIP3   OH269237   4.671   6.744  16.887  0.3327 -0.6204  0.4613
15941TIP3    H169238   4.600   6.763  16.948 -1.2182 -0.9837 -1.1529
15941TIP3    H269239   4.741   6.805  16.912 -1.2423  1.1045  0.9258
15942TIP3   OH269240   1.290   2.420  13.232 -0.0477 -0.7132 -0.2058
15942TIP3    H169241   1.340   2.354  13.280  0.2304  0.1541  0.7203
15942TIP3    H269242   1.337   2.502  13.247 -1.4592  0.0427  0.2962
15943TIP3   OH269243   2.544   1.922   3.996  0.0544 -0.2589 -0.1260
15943TIP3    H169244   2.464   1.899   3.949 -0.7808  0.0813  1.0819
15943TIP3    H269245   2.521   1.914   4.088  1.1801  0.6439  0.2590
15944TIP3   OH269246   0.692   6.353  13.750  0.3535  0.4356  0.2519
15944TIP3    H169247   0.722   6.350  13.840 -0.5239  0.9959  0.5749
15944TIP3    H269248   0.746   6.288  13.704  0.4864 -0.1826  1.2617
15945TIP3   OH269249   5.009   2.273   4.983  0.3475 -0.2267 -0.9563
15945TIP3    H169250   4.926   2.319   4.988  0.3311 -0.2722 -0.8108
15945TIP3    H269251   4.987   2.189   4.943  0.3591 -0.1516 -1.1185
15946TIP3   OH269252   4.341   4.358   6.258 -0.4186  0.3497 -0.2034
15946TIP3    H169253   4.258   4.319   6.230  0.0645  0.8469 -2.5726
15946TIP3    H269254   4.341   4.445   6.218  1.2726  0.3228 -0.3233
15947TIP3   OH269255   3.704   6.427   3.951 -0.4275 -0.3200 -0.2690
15947TIP3    H169256   3.665   6.410   4.037 -1.5805 -2.4841 -1.1229
15947TIP3    H269257   3.642   6.389   3.889  0.8278  0.3346 -2.0023
15948TIP3   OH269258   2.725   0.380   5.672  0.0697 -0.3619  0.0969
15948TIP3    H169259   2.649   0.406   5.619 -1.1084 -2.3514  0.6811
15948TIP3    H269260   2.709   0.287   5.691  2.7091 -0.8585  0.2007
15949TIP3   OH269261   6.490   5.452  11.764 -0.6348 -0.2200  0.3519
15949TIP3    H169262   6.473   5.359  11.776  2.6424 -1.0211 -0.1366
15949TIP3    H269263   6.480   5.466  11.670 -1.5348  0.0418  0.4806
15950TIP3   OH269264   1.149   1.638   4.482  0.0406 -0.0055 -0.1371
15950TIP3    H169265   1.200   1.703   4.434 -0.6179 -0.8373 -2.0657
15950TIP3    H269266   1.186   1.554   4.457 -1.7694 -0.5899 -1.0634
15951TIP3   OH269267   2.197   3.356  14.205 -0.4445 -0.1153 -0.4301
15951TIP3    H169268   2.225   3.347  14.114  0.5600 -0.8574 -0.0701
15951TIP3    H269269   2.246   3.432  14.237 -1.3966  0.6360 -0.7136
15952TIP3   OH269270   0.192   5.212   4.585 -0.1726  0.0773  0.3483
15952TIP3    H169271   0.278   5.228   4.626  1.1818  0.1455 -2.2960
15952TIP3    H269272   0.134   5.275   4.628  1.5233  1.2872  1.0265
15953TIP3   OH269273   2.819   6.329  13.523  0.1644  0.1778  0.2019
15953TIP3    H169274   2.732   6.289  13.525  0.6402 -1.0043 -1.0489
15953TIP3    H269275   2.847   6.330  13.614 -1.4097  1.2030  0.7083
15954TIP3   OH269276   4.830   6.391   4.670 -0.5941  0.1866 -0.7467
15954TIP3    H169277   4.907   6.447   4.669 -0.7298  0.4424  0.6500
15954TIP3    H269278   4.857   6.310   4.626 -0.0693  0.9197 -1.8030
15955TIP3   OH269279   2.881   2.156   2.386 -0.0739 -0.0112 -0.6947
15955TIP3    H169280   2.841   2.177   2.470  2.2092  4.0603 -0.3816
15955TIP3    H269281   2.955   2.098   2.409  0.2422  0.6747  0.0699
15956TIP3   OH269282   5.270   6.034  14.211 -0.5774 -0.1441  0.5221
15956TIP3    H169283   5.320   6.036  14.130 -0.2861 -2.4154  0.5705
15956TIP3    H269284   5.306   6.105  14.264  2.7206 -1.7045  0.6041
15957TIP3   OH269285   3.702   2.338   4.780  0.4724 -0.4407  0.9432
15957TIP3    H169286   3.707   2.329   4.875 -2.4422  0.0827  1.2329
15957TIP3    H269287   3.683   2.250   4.748  1.6154 -0.6486  0.7880
15958TIP3   OH269288   5.831   1.687  16.333  0.8585  0.3056  0.1121
15958TIP3    H169289   5.818   1.627  16.407  0.9196 -1.0376 -0.9318
15958TIP3    H269290   5.743   1.716  16.309  0.8060  0.4360  0.4567
15959TIP3   OH269291   0.099   4.305   5.389  0.3743 -0.0351 -0.1646
15959TIP3    H169292   0.178   4.251   5.396  0.2767 -0.0468  0.9776
15959TIP3    H269293   0.122   4.387   5.433 -0.6075 -0.4730  1.2237
15960TIP3   OH269294   6.614   2.275   6.469 -0.6787 -0.5653  0.1256
15960TIP3    H169295   6.569   2.332   6.531  1.2865  2.6860 -1.1779
15960TIP3    H269296   6.664   2.214   6.524 -0.4992  0.9517  1.7409
15961TIP3   OH269297   2.662   3.879   4.973  0.3681  0.0096 -0.3541
15961TIP3    H169298   2.695   3.851   4.888 -0.0042  2.6105 -1.4723
15961TIP3    H269299   2.575   3.913   4.955  0.7014  1.6230  0.8184
15962TIP3   OH269300   3.497   2.660   0.208 -0.2510 -0.0693  0.1793
15962TIP3    H169301   3.530   2.605   0.136 -0.1954 -0.5911  0.5930
15962TIP3    H269302   3.557   2.642   0.281 -0.2074  0.5824  0.3105
15963TIP3   OH269303   3.164   4.710   1.010  0.0967 -0.1468 -0.6160
15963TIP3    H169304   3.088   4.765   0.989  1.2734  1.6518 -0.4168
15963TIP3    H269305   3.229   4.772   1.043  1.6348 -1.6424 -0.7277
15964TIP3   OH269306   5.424   1.144   5.562  0.0394  0.4748 -0.2413
15964TIP3    H169307   5.368   1.070   5.586  1.3119 -0.0527  1.2735
15964TIP3    H269308   5.384   1.220   5.605 -1.1973  0.7043 -1.6957
15965TIP3   OH269309   1.433   4.979  15.888  0.2674  0.2210  0.3328
15965TIP3    H169310   1.396   5.060  15.854 -0.5895 -0.1414  0.3824
15965TIP3    H269311   1.374   4.910  15.858  1.9215 -0.6072 -1.1950
15966TIP3   OH269312   4.848   0.532   6.452 -0.0380  0.9914  0.1851
15966TIP3    H169313   4.851   0.437   6.445  0.4580  1.0996 -1.7600
15966TIP3    H269314   4.769   0.557   6.404  0.8449  1.6420 -0.9699
15967TIP3   OH269315   0.217   3.057   1.862 -0.3100  0.0157  0.0859
15967TIP3    H169316   0.274   2.997   1.815  0.3469 -0.8921  1.9534
15967TIP3    H269317   0.208   3.132   1.803  1.0569 -0.7350 -1.1513
15968TIP3   OH269318   1.248   1.220   0.019 -0.1132 -0.0352  0.7214
15968TIP3    H169319   1.192   1.185  -0.051 -1.0212  1.2353  0.7770
15968TIP3    H269320   1.323   1.161   0.021 -0.8552 -1.0657 -0.2056
15969TIP3   OH269321   3.319   3.058   4.509  0.5200 -0.4317 -0.1732
15969TIP3    H169322   3.273   3.009   4.441 -1.6217  1.3985 -0.1536
15969TIP3    H269323   3.256   3.066   4.580  1.8319 -0.0950  1.0070
15970TIP3   OH269324   4.521   5.771  15.072 -0.1713  0.0904  0.4600
15970TIP3    H169325   4.448   5.738  15.124  0.5190 -0.1855  1.2878
15970TIP3    H269326   4.548   5.851  15.117 -1.2664  1.3545 -1.0291
15971TIP3   OH269327   3.285   5.367   5.156 -0.0273  0.1809 -0.3974
15971TIP3    H169328   3.366   5.319   5.139  0.2766  0.6841 -0.3765
15971TIP3    H269329   3.313   5.456   5.177 -0.4775 -0.0025  1.1691
15972TIP3   OH269330   4.779   4.235  14.909  0.3481  0.0541  0.4092
15972TIP3    H169331   4.718   4.279  14.851 -0.2531 -0.5455  0.5727
15972TIP3    H269332   4.866   4.264  14.879  0.0154  0.4178 -0.2273
15973TIP3   OH269333   3.741   2.965   3.845  0.3218 -0.0784  0.3980
15973TIP3    H169334   3.809   3.032   3.840  0.2527 -0.0768 -1.0407
15973TIP3    H269335   3.789   2.882   3.842  0.3877 -0.1013  1.8326
15974TIP3   OH269336   1.327   3.623  12.822 -0.3345  0.1196  0.3649
15974TIP3    H169337   1.282   3.541  12.846 -1.0161  0.5674  0.6647
15974TIP3    H269338   1.377   3.646  12.900  0.9579 -0.7008 -0.1741
15975TIP3   OH269339   0.289   2.328   5.313  0.5120  0.0744  0.5956
15975TIP3    H169340   0.307   2.421   5.299  0.7529 -0.1799 -1.1024
15975TIP3    H269341   0.367   2.295   5.357  2.6828 -0.1848 -2.9708
15976TIP3   OH269342   1.569   1.636  12.202  0.0186  0.6254 -0.1192
15976TIP3    H169343   1.555   1.554  12.155  2.4560 -0.3933  0.7414
15976TIP3    H269344   1.655   1.666  12.173 -0.3817  2.3420  0.3658
15977TIP3   OH269345   2.365   2.531  13.865  0.1047 -0.5281  0.1501
15977TIP3    H169346   2.348   2.497  13.777  4.7485  0.5681 -1.4626
15977TIP3    H269347   2.410   2.460  13.910  2.2919  0.4938 -0.2828
15978TIP3   OH269348   4.674   4.894   0.682  0.3138  0.4531  0.1114
15978TIP3    H169349   4.671   4.984   0.649  1.6049  0.7653  0.7678
15978TIP3    H269350   4.764   4.883   0.712 -0.8588  0.5064  4.3397
15979TIP3   OH269351   2.062   5.610  15.684 -0.3830  0.0351 -0.4668
15979TIP3    H169352   1.996   5.550  15.650 -0.4026  0.7219 -1.7016
15979TIP3    H269353   2.103   5.562  15.756 -0.7571 -1.2444 -1.0717
15980TIP3   OH269354   1.386   0.140  12.734 -0.7730  0.2115  0.1773
15980TIP3    H169355   1.349   0.194  12.665 -0.6075 -1.2105 -1.0617
15980TIP3    H269356   1.478   0.128  12.709 -0.6669 -0.1767  0.7316
15981TIP3   OH269357   5.105   1.026  11.051 -0.1842 -0.2564  0.0886
15981TIP3    H169358   5.083   1.119  11.053 -0.8156 -0.4015 -0.0863
15981TIP3    H269359   5.137   1.008  11.140 -0.5015  0.0220  0.2641
15982TIP3   OH269360   0.352   0.931   5.203 -0.6306  0.4113 -0.3777
15982TIP3    H169361   0.422   0.870   5.225  0.5279  1.7245 -0.2527
15982TIP3    H269362   0.273   0.892   5.239  0.4340  0.0779  1.7290
15983TIP3   OH269363   6.192   2.621  15.130  0.4177  0.0733 -0.2103
15983TIP3    H169364   6.168   2.632  15.038 -1.4211 -1.3724  0.0443
15983TIP3    H269365   6.285   2.601  15.128  0.2605 -0.6582 -1.8299
15984TIP3   OH269366   2.939   0.011   6.369 -0.0513 -0.3011 -0.0798
15984TIP3    H169367   2.932   0.102   6.341 -2.2975  0.4723  2.6080
15984TIP3    H269368   3.016   0.009   6.425  0.4457 -0.2553 -0.7521
15985TIP3   OH269369   1.515   5.695  11.276  0.4891  0.6116  0.5589
15985TIP3    H169370   1.538   5.708  11.184 -2.1713 -1.2028 -0.4514
15985TIP3    H269371   1.499   5.602  11.284 -2.2544  1.1302  2.0985
15986TIP3   OH269372   5.186   5.963   6.160 -0.4233 -0.5185 -0.3055
15986TIP3    H169373   5.213   5.943   6.250  0.0768 -0.8056 -0.5177
15986TIP3    H269374   5.267   5.984   6.115 -0.8354  1.2103 -0.2974
15987TIP3   OH269375   2.868   4.704   4.475 -0.3523  0.0521 -0.2115
15987TIP3    H169376   2.882   4.798   4.487  1.3306 -0.2576  0.5392
15987TIP3    H269377   2.802   4.698   4.406 -1.8295  1.8018  0.9590
15988TIP3   OH269378   4.618   3.684  14.711 -0.7368 -0.1482 -0.4988
15988TIP3    H169379   4.654   3.604  14.672  0.5394 -0.5693  1.3777
15988TIP3    H269380   4.642   3.754  14.650 -1.8283 -1.1441 -2.1463
15989TIP3   OH269381   6.474   6.245  12.292  0.2576 -0.3336 -0.9004
15989TIP3    H169382   6.457   6.248  12.386 -3.0753 -0.5874 -1.3764
15989TIP3    H269383   6.528   6.167  12.280  0.7019 -0.3247  0.7695
15990TIP3   OH269384   3.513   2.750  13.742  0.6004 -0.2906 -0.2095
15990TIP3    H169385   3.459   2.808  13.689  0.8786 -1.7088 -2.1161
15990TIP3    H269386   3.564   2.809  13.798 -3.1407  1.1241  2.0962
15991TIP3   OH269387   0.197   5.338  15.852 -0.8970 -0.7981 -0.4307
15991TIP3    H169388   0.182   5.369  15.762  0.5586  0.1733 -0.3809
15991TIP3    H269389   0.134   5.385  15.905  0.3350  1.0984 -0.5587
15992TIP3   OH269390   4.969   6.126  16.412 -0.3843 -0.6006  0.3932
15992TIP3    H169391   4.957   6.074  16.332 -1.8979  1.3811 -0.7467
15992TIP3    H269392   4.931   6.211  16.391  1.9369  0.9903  2.2029
15993TIP3   OH269393   5.937   5.971   3.953 -0.3507 -0.2981 -0.1181
15993TIP3    H169394   5.971   5.919   4.026 -0.4436 -0.8924 -0.4925
15993TIP3    H269395   5.900   5.906   3.893 -1.1083  0.2532 -0.2603
15994TIP3   OH269396   5.020   2.304  11.455 -0.1604  0.3198  0.1430
15994TIP3    H169397   4.944   2.315  11.512  0.4156 -0.4551  1.0753
15994TIP3    H269398   5.089   2.271  11.512  0.7288  0.4951 -0.7998
15995TIP3   OH269399   1.888   5.033   4.626 -0.1517 -0.2660  0.3745
15995TIP3    H169400   1.796   5.014   4.608  0.1392  0.1762 -1.7924
15995TIP3    H269401   1.937   4.976   4.568  0.9487  0.0205  0.9827
15996TIP3   OH269402   5.488   1.051   3.784 -0.3029 -0.6326 -0.1509
15996TIP3    H169403   5.577   1.051   3.820 -0.1872  0.1170 -0.4346
15996TIP3    H269404   5.474   1.140   3.753 -1.3349 -0.6229  0.3121
15997TIP3   OH269405   4.145   1.062  15.421  0.1982  0.4132 -0.0510
15997TIP3    H169406   4.169   1.024  15.506  0.6578 -0.8524 -0.7182
15997TIP3    H269407   4.151   1.156  15.434  1.6849  0.2101  0.9206
15998TIP3   OH269408   6.651   1.989   0.105 -0.1540  0.6320 -0.1303
15998TIP3    H169409   6.705   2.065   0.128 -0.4618  0.8727 -0.1813
15998TIP3    H269410   6.583   2.025   0.047  0.9607 -0.0667 -1.9362
15999TIP3   OH269411   0.618   2.674   5.428 -0.1635 -0.1145  0.1476
15999TIP3    H169412   0.684   2.743   5.428 -0.4443  0.1572  0.4828
15999TIP3    H269413   0.611   2.646   5.519 -0.9595  0.3074  0.2316
16000TIP3   OH269414   2.130   5.459   0.542 -0.1701 -0.5052  0.4447
16000TIP3    H169415   2.101   5.497   0.459 -1.3845  0.5999  1.3183
16000TIP3    H269416   2.174   5.378   0.518 -2.0688 -1.1432 -1.1736
16001TIP3   OH269417   6.049   0.642   2.935  0.4685 -0.0310 -0.1892
16001TIP3    H169418   5.981   0.651   2.869 -0.2865 -3.0380  0.0661
16001TIP3    H269419   6.002   0.644   3.019  1.1203  1.0717  0.1811
16002TIP3   OH269420   1.427   3.170   3.642  0.4481  0.7203 -0.0549
16002TIP3    H169421   1.514   3.133   3.627  0.5312  1.1349 -0.6465
16002TIP3    H269422   1.444   3.261   3.667  0.3733 -0.1250  3.6216
16003TIP3   OH269423   0.642   5.790   3.819  0.2229  0.5019  0.3436
16003TIP3    H169424   0.701   5.791   3.895  1.0926 -0.5215 -0.2873
16003TIP3    H269425   0.554   5.782   3.857  0.7397 -1.7400  1.2526
16004TIP3   OH269426   5.309   5.309   0.739 -0.6342  0.1201 -0.6801
16004TIP3    H169427   5.283   5.286   0.829 -0.0333 -1.1848 -0.8114
16004TIP3    H269428   5.405   5.307   0.741 -0.6203  0.1519 -1.3270
16005TIP3   OH269429   6.206   5.338  12.245  0.1472 -0.1532 -0.0430
16005TIP3    H169430   6.255   5.375  12.172 -0.2493 -0.1988 -0.3367
16005TIP3    H269431   6.241   5.250  12.256 -0.0907 -0.2998 -0.4622
16006TIP3   OH269432   2.519   1.908  12.400  0.4260  0.1884  0.5328
16006TIP3    H169433   2.563   1.912  12.485 -0.5998  2.2853  1.0379
16006TIP3    H269434   2.550   1.986  12.354  0.9106 -0.8782 -1.0414
16007TIP3   OH269435   5.455   1.680  13.251  0.0515 -0.0633 -0.4184
16007TIP3    H169436   5.511   1.623  13.304  0.8724  0.6875 -0.4703
16007TIP3    H269437   5.367   1.662  13.284  0.5915  0.9914  1.8256
16008TIP3   OH269438   4.538   4.893  11.093 -0.4954 -0.7747 -0.1048
16008TIP3    H169439   4.588   4.960  11.140  0.9267 -0.4474 -1.9170
16008TIP3    H269440   4.447   4.918  11.105 -0.0762  0.4324  0.7907
16009TIP3   OH269441   1.951   0.080   5.819 -0.1608 -0.2092 -0.4211
16009TIP3    H169442   2.024   0.112   5.871 -1.7064 -0.1837  1.8912
16009TIP3    H269443   1.985   0.074   5.730  2.7109 -0.4752  0.5982
16010TIP3   OH269444   0.703   2.942  12.914  0.2170 -0.0546  0.0981
16010TIP3    H169445   0.712   3.037  12.913  1.7496 -0.1758 -0.2856
16010TIP3    H269446   0.765   2.912  12.980 -1.2538 -0.7407  1.2381
16011TIP3   OH269447   0.003   3.549  14.303  0.7968  0.0570  0.0727
16011TIP3    H169448   0.064   3.478  14.322  0.8799  0.2271  0.4563
16011TIP3    H269449   0.018   3.570  14.211 -1.7688 -2.8869 -1.1926
16012TIP3   OH269450   6.281   1.181   3.819  0.3480 -0.1090 -0.8333
16012TIP3    H169451   6.253   1.102   3.772  0.4853 -0.8698  0.3179
16012TIP3    H269452   6.199   1.226   3.840  0.2457 -0.1476 -1.1360
16013TIP3   OH269453   0.416   4.306  15.980 -0.4147  0.2857  0.7010
16013TIP3    H169454   0.457   4.265  16.056  0.4357  0.2969  0.2543
16013TIP3    H269455   0.482   4.365  15.944 -0.0194 -1.2080 -1.2345
16014TIP3   OH269456   5.131   0.211  14.634 -0.2256  0.1549 -0.2865
16014TIP3    H169457   5.167   0.159  14.562 -0.3075  0.5549 -0.6265
16014TIP3    H269458   5.197   0.278  14.651  0.8559 -1.2959  1.5837
16015TIP3   OH269459   4.976   5.182  15.508  0.3359  0.1205 -0.1032
16015TIP3    H169460   4.882   5.189  15.496  0.3095 -0.7084 -0.4079
16015TIP3    H269461   4.994   5.088  15.508  1.1864  0.2723 -0.2366
16016TIP3   OH269462   3.129   6.000  15.211  0.2107  0.3974 -0.2576
16016TIP3    H169463   3.138   6.083  15.163  2.8799 -0.0213 -0.6721
16016TIP3    H269464   3.216   5.959  15.204 -1.0439 -2.5098 -0.1572
16017TIP3   OH269465   3.261   5.771   2.015 -0.1402 -0.0786 -0.0704
16017TIP3    H169466   3.335   5.742   2.068 -1.1507 -1.7560  0.5305
16017TIP3    H269467   3.298   5.790   1.929  0.9481 -1.1818  0.1234
16018TIP3   OH269468   6.448   3.357  13.855  0.3191  0.5482  0.1842
16018TIP3    H169469   6.408   3.284  13.807  0.3435  0.2835  0.5528
16018TIP3    H269470   6.374   3.404  13.892  0.3012 -1.3428  2.9241
16019TIP3   OH269471   1.295   5.546  16.192 -0.3651  0.8026 -0.4384
16019TIP3    H169472   1.320   5.495  16.115 -1.1418 -0.7268  0.2863
16019TIP3    H269473   1.202   5.563  16.181 -0.7069 -0.2868  0.6154
16020TIP3   OH269474   3.284   0.104  15.399  0.1068 -0.1880 -0.9557
16020TIP3    H169475   3.261   0.196  15.414 -1.0859 -0.4827 -0.8817
16020TIP3    H269476   3.223   0.055  15.453 -0.0241 -1.0590 -1.8655
16021TIP3   OH269477   1.974   5.043  11.248  0.2194  0.6889 -0.2576
16021TIP3    H169478   1.895   5.050  11.194 -0.5797  0.2641  0.8128
16021TIP3    H269479   2.014   4.960  11.222 -0.7164 -0.0236  0.4731
16022TIP3   OH269480   2.878   3.817   0.449  0.0873  0.0759 -1.0679
16022TIP3    H169481   2.915   3.880   0.511 -1.6691  1.4839 -1.3686
16022TIP3    H269482   2.952   3.761   0.425  1.3747  1.0715  0.3602
16023TIP3   OH269483   5.675   4.674   5.829  0.1981 -0.2030  0.5571
16023TIP3    H169484   5.720   4.600   5.869  1.1277 -0.5817 -1.0803
16023TIP3    H269485   5.679   4.743   5.896  0.8262 -1.0865  1.4621
16024TIP3   OH269486   5.529   6.352   1.835 -0.2648 -0.4841  0.1792
16024TIP3    H169487   5.462   6.342   1.768 -0.8066 -1.1525  0.8163
16024TIP3    H269488   5.587   6.420   1.800 -0.8421 -0.4348 -0.7146
16025TIP3   OH269489   3.764   1.644  11.659  0.0221 -0.2474 -0.1843
16025TIP3    H169490   3.825   1.712  11.686 -0.2198 -0.7121  1.6804
16025TIP3    H269491   3.820   1.568  11.642  0.0440 -0.4235  0.6592
16026TIP3   OH269492   5.825   4.618   1.153 -0.4306  0.2359 -0.0828
16026TIP3    H169493   5.895   4.680   1.177  1.9302 -2.4941  0.6286
16026TIP3    H269494   5.842   4.597   1.061 -0.0535 -0.7186  0.1962
16027TIP3   OH269495   0.955   2.134  16.352  0.6565 -0.6273 -0.1959
16027TIP3    H169496   0.944   2.202  16.285  0.2523 -0.9342 -0.4523
16027TIP3    H269497   0.877   2.080  16.343 -1.5364  1.5770  3.2112
16028TIP3   OH269498   2.223   5.122   1.799 -0.0503 -0.1364  0.6945
16028TIP3    H169499   2.221   5.126   1.703 -0.3184 -1.2239  0.6444
16028TIP3    H269500   2.248   5.210   1.826 -0.9356  0.4545 -0.3405
16029TIP3   OH269501   4.430   2.988   1.582  0.6649 -0.1163  0.1808
16029TIP3    H169502   4.350   3.019   1.623  0.2075  3.2683 -2.8028
16029TIP3    H269503   4.494   2.984   1.653 -1.1350  0.9543  1.9448
16030TIP3   OH269504   0.653   4.867  16.310 -0.3159 -0.2681  0.0364
16030TIP3    H169505   0.730   4.915  16.342 -0.6766  0.6309 -0.4163
16030TIP3    H269506   0.578   4.916  16.344 -0.6968 -0.9236  0.1607
16031TIP3   OH269507   6.422   5.585  14.864  0.1708 -0.1909  0.1253
16031TIP3    H169508   6.346   5.611  14.916  0.9227 -0.1887  1.2726
16031TIP3    H269509   6.464   5.667  14.840 -0.9093 -0.1127 -1.7169
16032TIP3   OH269510   1.094   0.323  16.412 -0.2557  0.2406  0.7924
16032TIP3    H169511   1.149   0.389  16.373  0.4351 -0.3341  0.7817
16032TIP3    H269512   1.034   0.296  16.342 -0.0543  0.3286  0.5875
16033TIP3   OH269513   6.190   0.219   2.269 -0.5709 -0.5539  0.4188
16033TIP3    H169514   6.274   0.174   2.284 -0.0603  0.4523  0.6903
16033TIP3    H269515   6.187   0.286   2.337 -0.4009  1.0971 -1.1284
16034TIP3   OH269516   0.457   2.111  12.540  0.4184 -0.7815  0.6322
16034TIP3    H169517   0.498   2.171  12.477  0.7773 -2.2004 -0.5515
16034TIP3    H269518   0.376   2.155  12.566  1.4200  0.9120  1.0235
16035TIP3   OH269519   2.914   1.262  14.982  0.2564 -0.0451  0.1920
16035TIP3    H169520   2.946   1.328  15.043  0.9751 -0.6628  0.5038
16035TIP3    H269521   2.993   1.217  14.951 -0.2672 -1.4322  0.7647
16036TIP3   OH269522   6.119   0.886  17.161 -0.0832 -0.1627  0.1703
16036TIP3    H169523   6.124   0.981  17.153 -1.5444 -0.0633  0.1229
16036TIP3    H269524   6.082   0.857  17.077  0.7116 -0.8213  0.0323
16037TIP3   OH269525   1.524   2.068   0.241 -0.2125  0.3703 -0.4387
16037TIP3    H169526   1.596   2.018   0.203  1.3967  2.7549 -0.7647
16037TIP3    H269527   1.473   2.098   0.165 -0.8718 -0.3227 -0.2790
16038TIP3   OH269528   5.179   2.677  14.966 -0.4260  0.3227  0.0695
16038TIP3    H169529   5.269   2.646  14.966  0.5007  2.7660 -0.3368
16038TIP3    H269530   5.135   2.624  15.033  1.3640 -0.7463  0.4460
16039TIP3   OH269531   5.479   4.981   0.730 -0.3222 -0.1271  0.4426
16039TIP3    H169532   5.533   4.951   0.803 -1.0269  0.0722  1.0567
16039TIP3    H269533   5.491   5.076   0.728  2.0596 -0.3691 -1.6210
16040TIP3   OH269534   1.781   2.525  14.365  0.3677 -0.2994 -0.5369
16040TIP3    H169535   1.852   2.576  14.403 -0.2466 -0.1793  0.4872
16040TIP3    H269536   1.702   2.563  14.402 -0.1345 -1.7070 -0.0958
16041TIP3   OH269537   1.658   0.325  13.570  0.4510  0.5517 -0.3607
16041TIP3    H169538   1.572   0.307  13.532  0.1337 -1.0407  0.9855
16041TIP3    H269539   1.705   0.243  13.561  0.7768  0.4841  1.5254
16042TIP3   OH269540   5.407   1.505  14.694 -0.4039 -0.3285 -0.3097
16042TIP3    H169541   5.470   1.563  14.652 -0.7122  0.3970  0.2192
16042TIP3    H269542   5.461   1.436  14.733 -0.0018 -0.1434 -0.5331
16043TIP3   OH269543   0.420   4.503  12.979  0.4596  0.4002 -0.3248
16043TIP3    H169544   0.484   4.437  13.004 -0.4215 -0.8230 -1.1699
16043TIP3    H269545   0.445   4.582  13.027  0.9496 -0.8279  1.4892
16044TIP3   OH269546   2.193   3.095  11.052 -0.8134 -0.3916  0.3793
16044TIP3    H169547   2.288   3.079  11.055 -0.7496 -0.3977 -1.1727
16044TIP3    H269548   2.186   3.191  11.051 -0.6519 -0.3421 -2.5221
16045TIP3   OH269549   4.440   4.111   0.243  0.1777 -0.3759  0.0668
16045TIP3    H169550   4.465   4.045   0.179 -0.3040  0.5230 -1.0864
16045TIP3    H269551   4.354   4.142   0.213  1.4471  2.5207 -0.8843
16046TIP3   OH269552   4.993   0.404  15.076  0.5133 -0.3202 -0.2195
16046TIP3    H169553   5.059   0.354  15.029  1.0127 -1.5968  1.7095
16046TIP3    H269554   5.016   0.495  15.060  1.6269 -0.7279 -1.0861
16047TIP3   OH269555   0.243   6.451  11.485  0.2457  0.2348  0.2405
16047TIP3    H169556   0.160   6.424  11.445  0.3313  0.7128 -0.2783
16047TIP3    H269557   0.231   6.544  11.504  0.4759  0.1808  0.6453
16048TIP3   OH269558   3.295   2.935  12.527 -0.0259 -0.4212 -0.0006
16048TIP3    H169559   3.323   3.017  12.568 -0.3675  0.4627 -1.4623
16048TIP3    H269560   3.210   2.917  12.567 -0.9226  1.0846 -1.1525
16049TIP3   OH269561   4.205   1.619  11.575  0.5976 -0.3148 -0.2478
16049TIP3    H169562   4.285   1.568  11.558  0.5443 -0.4629 -0.0491
16049TIP3    H269563   4.237   1.699  11.617  0.9385  0.9205 -2.6574
16050TIP3   OH269564   0.191   6.143  10.738  0.5706 -0.1354  0.9151
16050TIP3    H169565   0.096   6.153  10.740  0.4285 -0.6225 -1.2380
16050TIP3    H269566   0.208   6.065  10.791 -0.0463  0.8072  2.5630
16051TIP3   OH269567   4.941   2.775  12.928  0.1554  0.4250 -0.3677
16051TIP3    H169568   4.907   2.750  12.842  0.7570 -1.0944 -0.1850
16051TIP3    H269569   4.915   2.704  12.986 -2.4406  2.5394  1.3214
16052TIP3   OH269570   3.814   5.473  14.279 -0.2367  0.1492  0.3322
16052TIP3    H169571   3.905   5.447  14.260 -0.0806  0.9212 -0.0350
16052TIP3    H269572   3.781   5.506  14.195 -1.0936 -0.7767  0.2899
16053TIP3   OH269573   6.498   5.129   3.728  0.6554  0.6226  0.0773
16053TIP3    H169574   6.555   5.179   3.669  0.7468 -1.4381 -1.6953
16053TIP3    H269575   6.543   5.045   3.740  0.4941  0.8294  2.9512
16054TIP3   OH269576   0.846   1.785  10.804  0.4397 -0.7735  0.2737
16054TIP3    H169577   0.912   1.854  10.811 -0.2719  0.2102 -1.7720
16054TIP3    H269578   0.826   1.781  10.711 -2.2857 -1.1109  0.7801
16055TIP3   OH269579   5.059   2.141   0.701  0.7477 -0.5212 -0.3379
16055TIP3    H169580   5.106   2.108   0.778  0.2640  0.0304  0.1986
16055TIP3    H269581   4.967   2.124   0.720  0.3391  2.2352  0.5377
16056TIP3   OH269582   5.805   4.554  15.980  0.3828  0.5673 -0.1997
16056TIP3    H169583   5.829   4.502  16.057  0.8008  0.8278 -0.1503
16056TIP3    H269584   5.808   4.491  15.908  0.2443  0.3794 -0.0440
16057TIP3   OH269585   3.437   2.770  16.086  0.1161 -0.0771 -0.3250
16057TIP3    H169586   3.454   2.852  16.040 -0.4337 -0.0799 -0.5429
16057TIP3    H269587   3.359   2.788  16.139  1.2951  0.2239  1.3771
16058TIP3   OH269588   0.928   2.385   4.503 -0.0644 -0.4887  0.5229
16058TIP3    H169589   0.903   2.336   4.581 -1.9248 -0.4570  0.0110
16058TIP3    H269590   0.869   2.352   4.435  1.2473 -0.2413 -0.7783
16059TIP3   OH269591   6.680   2.005   2.518  0.5074 -0.0084 -0.4667
16059TIP3    H169592   6.688   2.057   2.437  0.3598  0.1416 -0.3851
16059TIP3    H269593   6.731   2.054   2.582 -1.2370  1.1132  0.1379
16060TIP3   OH269594   2.659   4.420  16.155  0.3749  0.6503  0.1467
16060TIP3    H169595   2.640   4.457  16.241  1.4152  2.1066 -0.2082
16060TIP3    H269596   2.754   4.408  16.154  0.5655  1.9990 -1.2908
16061TIP3   OH269597   1.130   1.531   5.684  0.1365 -0.5266  0.2602
16061TIP3    H169598   1.091   1.454   5.643 -2.2542  0.4365  0.5540
16061TIP3    H269599   1.218   1.503   5.710 -0.7483 -3.2079  0.6160
16062TIP3   OH269600   3.217   1.713  15.650  1.0191 -0.1114 -0.3701
16062TIP3    H169601   3.190   1.788  15.598  0.0924  0.6432  1.1171
16062TIP3    H269602   3.143   1.652  15.645 -0.3339  1.1391  2.1607
16063TIP3   OH269603   1.474   3.393  11.470 -0.5582 -0.1459  0.1507
16063TIP3    H169604   1.449   3.462  11.409 -0.0168  0.2258  0.3394
16063TIP3    H269605   1.439   3.313  11.432 -3.3843  0.4998  1.1455
16064TIP3   OH269606   6.437   0.149   4.319  0.0518  0.2551 -0.1891
16064TIP3    H169607   6.467   0.206   4.390  1.4124  0.0394 -0.5648
16064TIP3    H269608   6.380   0.085   4.362  0.6717  0.2701  0.6748
16065TIP3   OH269609   1.129   5.482   4.183 -0.0449  0.4875 -0.2403
16065TIP3    H169610   1.050   5.536   4.182  0.5154  1.4030  1.6079
16065TIP3    H269611   1.201   5.544   4.192  0.8234 -0.4036 -0.7730
16066TIP3   OH269612   5.197   1.160   4.172  0.3168  0.9363 -0.2398
16066TIP3    H169613   5.111   1.117   4.177 -0.0048  1.7201  1.7912
16066TIP3    H269614   5.177   1.250   4.147  0.7000  0.7800 -1.1573
16067TIP3   OH269615   6.090   2.538   5.436  0.5286 -0.1941 -0.0585
16067TIP3    H169616   5.995   2.540   5.427  0.0839  1.0596  3.3577
16067TIP3    H269617   6.106   2.516   5.528  3.4732  1.1103 -0.1079
16068TIP3   OH269618   1.984   5.012  13.000 -0.0017  0.1047 -0.4384
16068TIP3    H169619   2.051   4.947  12.979 -0.9650 -0.4899 -1.8406
16068TIP3    H269620   1.947   5.037  12.915 -1.7989  0.1325  0.3045
16069TIP3   OH269621   5.245   5.817   1.858 -0.3760 -0.1119 -0.0275
16069TIP3    H169622   5.339   5.805   1.844 -0.1164  0.7089  0.9088
16069TIP3    H269623   5.230   5.785   1.947 -0.6594  1.3354  0.4667
16070TIP3   OH269624   3.585   4.185  14.487 -0.2869  0.1849 -0.1062
16070TIP3    H169625   3.650   4.252  14.506  0.4146 -0.9129  1.5785
16070TIP3    H269626   3.517   4.197  14.553 -0.1495 -0.7486  0.2209
16071TIP3   OH269627   4.504   0.065   1.268  0.6044 -0.5860  0.1455
16071TIP3    H169628   4.502   0.155   1.234  0.9027  0.0923  1.8018
16071TIP3    H269629   4.512   0.010   1.190  1.6747  0.8800 -0.8506
16072TIP3   OH269630   1.732   5.943   4.906 -0.5995 -0.8868 -0.3954
16072TIP3    H169631   1.687   5.863   4.881  1.5893 -2.1999 -0.3550
16072TIP3    H269632   1.788   5.917   4.979 -0.2335  0.8236 -0.0231
16073TIP3   OH269633   2.956   2.774   5.827 -0.3079 -0.3690  0.5604
16073TIP3    H169634   2.876   2.722   5.828 -0.2985 -0.3922  1.4208
16073TIP3    H269635   2.947   2.833   5.902 -1.1086  2.1388 -1.3918
16074TIP3   OH269636   2.133   5.122   1.438  0.1819 -0.2633 -0.4540
16074TIP3    H169637   2.220   5.134   1.477  0.5525 -1.8915 -0.7022
16074TIP3    H269638   2.098   5.211   1.429  1.7760  0.4183 -0.2650
16075TIP3   OH269639   3.562   1.633   5.969 -0.6374  0.4790 -0.5894
16075TIP3    H169640   3.511   1.625   6.049  0.4164 -1.1241 -0.0218
16075TIP3    H269641   3.622   1.705   5.986  0.1091 -0.3486  0.4109
16076TIP3   OH269642   1.283   5.276  11.446 -0.3903  0.2106 -0.5988
16076TIP3    H169643   1.338   5.225  11.387  0.9045  0.2016  0.5697
16076TIP3    H269644   1.329   5.360  11.454 -0.3155  0.0630  0.6994
16077TIP3   OH269645   0.886   2.094   4.338 -0.9519  0.7402  0.4826
16077TIP3    H169646   0.979   2.078   4.351 -1.1604 -0.7062  0.3432
16077TIP3    H269647   0.842   2.041   4.404 -1.7171  0.2708 -0.3739
16078TIP3   OH269648   1.823   3.459  15.677  0.0871  0.0854 -0.0942
16078TIP3    H169649   1.879   3.383  15.692  0.7500  0.0576 -2.3861
16078TIP3    H269650   1.735   3.427  15.694  0.5205 -0.5941  1.0178
16079TIP3   OH269651   0.321   5.091  16.652 -0.6941  0.5331 -0.7728
16079TIP3    H169652   0.303   5.026  16.721  0.3945  0.1695 -0.8065
16079TIP3    H269653   0.417   5.094  16.648 -0.5437  4.2758  1.2503
16080TIP3   OH269654   4.448   1.132  12.914  0.5726  0.0172  0.4696
16080TIP3    H169655   4.433   1.071  12.842 -3.2510  1.0721  0.1346
16080TIP3    H269656   4.433   1.079  12.993 -0.0181 -0.1172  0.2752
16081TIP3   OH269657   0.684   6.067  12.234  0.5037 -0.2689 -0.1019
16081TIP3    H169658   0.738   6.126  12.182 -0.0535  0.3952  0.0591
16081TIP3    H269659   0.609   6.047  12.178  0.8820 -1.1615 -0.3126
16082TIP3   OH269660   1.094   2.479   4.798 -0.0254  0.1467 -0.0065
16082TIP3    H169661   1.169   2.473   4.740 -0.3806  2.6422 -0.8315
16082TIP3    H269662   1.131   2.504   4.883  0.3257 -1.7861  0.4492
16083TIP3   OH269663   0.218   6.503  11.751  0.2739 -0.4053 -0.2053
16083TIP3    H169664   0.180   6.469  11.670 -1.4082 -0.2393  0.4733
16083TIP3    H269665   0.284   6.438  11.776 -0.5805 -1.4717 -0.6700
16084TIP3   OH269666   6.677   5.835   4.667  0.0732  0.1850 -0.1201
16084TIP3    H169667   6.640   5.908   4.617  0.6604 -0.4197 -1.4786
16084TIP3    H269668   6.726   5.878   4.737 -2.3842  1.0156  1.2051
16085TIP3   OH269669   0.547   5.777   4.954  0.7299 -0.4670  0.3728
16085TIP3    H169670   0.491   5.727   5.013  1.9984 -0.4848  1.6185
16085TIP3    H269671   0.602   5.829   5.013 -0.1092  1.9603 -0.8458
16086TIP3   OH269672   5.029   4.726   1.848 -0.0505  0.2691 -0.2868
16086TIP3    H169673   4.944   4.749   1.887 -1.3203 -1.0296 -2.1349
16086TIP3    H269674   5.094   4.759   1.911 -1.9272 -0.2206  2.0380
16087TIP3   OH269675   1.605   3.863  13.679 -0.1085 -0.1153  0.2503
16087TIP3    H169676   1.683   3.844  13.731 -0.6951 -2.3338  0.3929
16087TIP3    H269677   1.640   3.887  13.592  0.7378 -0.2617  0.5386
16088TIP3   OH269678   5.547   6.035  13.907  0.5418 -0.5566 -0.4000
16088TIP3    H169679   5.492   6.072  13.837  0.8556 -0.4711 -0.6022
16088TIP3    H269680   5.528   6.090  13.983 -1.9360 -2.3414  0.3960
16089TIP3   OH269681   5.209   4.501   0.116  0.1129  0.3306  0.3278
16089TIP3    H169682   5.215   4.436   0.045 -2.2589  0.0320  0.3076
16089TIP3    H269683   5.250   4.580   0.080  0.4953 -0.3237 -0.7273
16090TIP3   OH269684   2.394   1.884   4.675 -0.3007 -0.0107  0.1449
16090TIP3    H169685   2.437   1.845   4.751 -0.5916 -1.0619 -0.2084
16090TIP3    H269686   2.312   1.920   4.709 -0.7178 -1.0162  0.2400
16091TIP3   OH269687   0.959   0.704   2.501  0.4174 -0.2582 -1.0754
16091TIP3    H169688   0.993   0.617   2.479  0.4988 -0.0894 -1.6314
16091TIP3    H269689   0.890   0.720   2.437 -0.2710 -0.3189 -0.3622
16092TIP3   OH269690   1.679   5.975   5.653 -0.0665  0.2567  0.3800
16092TIP3    H169691   1.726   5.912   5.708 -0.5630 -1.3543 -0.9549
16092TIP3    H269692   1.667   5.929   5.569 -1.6427  1.6278 -0.1925
16093TIP3   OH269693   6.433   2.950   1.837 -0.0837 -0.1599 -0.3474
16093TIP3    H169694   6.521   2.942   1.872 -0.7478 -4.4030  0.8383
16093TIP3    H269695   6.443   2.941   1.742  0.8189  0.9850 -0.3826
16094TIP3   OH269696   1.412   2.658  15.981  0.0115 -0.1505  0.2880
16094TIP3    H169697   1.371   2.586  16.028 -0.9729  0.9613  1.2051
16094TIP3    H269698   1.479   2.691  16.041 -0.8274  0.8762  0.7033
16095TIP3   OH269699   5.846   5.346  16.998 -0.5265 -0.4405  0.1871
16095TIP3    H169700   5.811   5.270  17.045  1.2036 -1.0307  0.5672
16095TIP3    H269701   5.907   5.387  17.060 -1.8423  1.6537  0.2283
16096TIP3   OH269702   6.543   0.268  16.673 -0.4851 -0.0039 -0.1225
16096TIP3    H169703   6.456   0.307  16.673  0.0067  1.3535  2.6711
16096TIP3    H269704   6.546   0.215  16.753  1.2770  0.1399 -0.0355
16097TIP3   OH269705   3.819   0.506   1.248  0.0424  0.2585 -0.0526
16097TIP3    H169706   3.817   0.482   1.155  0.4282  1.0539 -0.2752
16097TIP3    H269707   3.896   0.461   1.283 -0.2163 -0.2028 -0.0673
16098TIP3   OH269708   5.286   6.343   2.768 -0.2015 -0.2168  0.8473
16098TIP3    H169709   5.335   6.417   2.804  2.3754 -2.3631  2.0042
16098TIP3    H269710   5.318   6.335   2.678  0.7452 -0.9143  1.2410
16099TIP3   OH269711   1.232   3.765   5.739  0.1538  0.0111 -0.1101
16099TIP3    H169712   1.289   3.711   5.685  0.6759 -0.2825  0.7196
16099TIP3    H269713   1.211   3.841   5.683  2.9166  1.1081  0.1785
16100TIP3   OH269714   4.977   4.734   4.510  0.1624 -0.0972  0.7914
16100TIP3    H169715   5.031   4.731   4.589 -0.7115 -1.2142  1.3811
16100TIP3    H269716   4.929   4.816   4.517  1.6524  0.8457  0.3222
16101TIP3   OH269717   2.901   4.759  13.301 -0.2777  0.2662  0.7955
16101TIP3    H169718   2.895   4.692  13.233  0.3658  0.0226  0.9737
16101TIP3    H269719   2.914   4.841  13.253  0.1941  0.0932  0.6204
16102TIP3   OH269720   5.244   3.703   4.982 -0.0967 -0.3925  0.4194
16102TIP3    H169721   5.337   3.716   4.966 -0.2495  1.4781  0.8076
16102TIP3    H269722   5.213   3.787   5.016 -1.9054 -1.0074  0.4357
16103TIP3   OH269723   4.231   4.772  12.525  0.0602  0.1878 -0.0635
16103TIP3    H169724   4.250   4.683  12.495 -0.1492 -0.0187  0.3970
16103TIP3    H269725   4.155   4.799  12.474  0.8704  0.5876 -1.1056
16104TIP3   OH269726   3.767   4.261  15.984 -0.2331 -0.0303  0.3738
16104TIP3    H169727   3.813   4.253  15.901  1.6744  2.3872  1.0735
16104TIP3    H269728   3.803   4.192  16.039  0.2748 -0.1281 -0.0801
16105TIP3   OH269729   3.673   2.919  13.873  0.2116  0.2162 -0.4872
16105TIP3    H169730   3.716   2.872  13.944  0.9714  0.7585 -0.5810
16105TIP3    H269731   3.744   2.942  13.813 -0.2495  0.8689 -0.7863
16106TIP3   OH269732   2.213   5.184  11.278 -0.2889 -1.1162  0.3383
16106TIP3    H169733   2.248   5.184  11.188 -1.0278 -1.7464  0.0452
16106TIP3    H269734   2.126   5.145  11.270 -1.0298  0.3005  1.0840
16107TIP3   OH269735   3.991   5.605   3.511 -0.4955  0.2513  0.2330
16107TIP3    H169736   4.001   5.512   3.530  0.1373  0.4918  1.1805
16107TIP3    H269737   4.040   5.619   3.430  0.7148  0.0337  0.9119
16108TIP3   OH269738   0.327   6.745   0.990  0.8079  0.6968 -0.5948
16108TIP3    H169739   0.347   6.657   0.958 -1.0146 -0.1287  0.3703
16108TIP3    H269740   0.402   6.798   0.963  0.9872 -0.6599 -3.0869
16109TIP3   OH269741   4.429   0.868   5.469 -0.0171 -0.3637 -0.1531
16109TIP3    H169742   4.411   0.786   5.422 -1.5946 -0.5877  0.8083
16109TIP3    H269743   4.348   0.918   5.462  1.1156  1.4344 -1.2594
16110TIP3   OH269744   1.901   4.702  13.686  0.0197 -0.2948 -0.1459
16110TIP3    H169745   1.864   4.615  13.670 -1.0781  0.1917 -0.3748
16110TIP3    H269746   1.901   4.711  13.781  1.6396 -1.1447 -0.0243
16111TIP3   OH269747   5.278   2.050   3.018  0.1737 -0.7134  0.0649
16111TIP3    H169748   5.274   2.119   3.085  1.9406  0.0712 -0.5858
16111TIP3    H269749   5.324   2.090   2.945  0.0384 -2.1900 -0.8694
16112TIP3   OH269750   2.521   5.746  15.040 -0.1221  0.0520 -0.3266
16112TIP3    H169751   2.608   5.716  15.016  0.4864  0.8002  0.8455
16112TIP3    H269752   2.465   5.669  15.027  0.9128 -0.7926  0.0284
16113TIP3   OH269753   4.542   2.295   3.839 -0.1698  0.1329 -0.3530
16113TIP3    H169754   4.617   2.307   3.781 -0.6984  0.6790 -0.9320
16113TIP3    H269755   4.543   2.371   3.897  0.7437 -0.7344  0.8224
16114TIP3   OH269756   5.230   0.231   1.500 -0.4464  0.1651  0.1442
16114TIP3    H169757   5.159   0.203   1.558  0.0939 -1.0906  0.2391
16114TIP3    H269758   5.287   0.285   1.556  0.1793 -1.2049  0.8900
16115TIP3   OH269759   5.859   1.576   2.163 -0.0864  0.2359  0.1402
16115TIP3    H169760   5.922   1.506   2.145 -0.7766 -0.8452  1.7291
16115TIP3    H269761   5.904   1.656   2.136  0.6007 -0.8073 -2.0862
16116TIP3   OH269762   6.366   5.522  12.054  0.0956  0.2876  0.1964
16116TIP3    H169763   6.461   5.510  12.045  0.0343  0.4537 -0.7241
16116TIP3    H269764   6.354   5.617  12.058 -0.1556  0.3483 -1.3700
16117TIP3   OH269765   5.767   1.035  13.394  0.1426 -0.0897 -0.0369
16117TIP3    H169766   5.812   1.111  13.431  1.6441 -0.3592 -1.2206
16117TIP3    H269767   5.684   1.032  13.441 -0.2652  2.6732 -0.3849
16118TIP3   OH269768   5.955   2.965   2.511 -0.3631  0.1377  0.0230
16118TIP3    H169769   5.964   2.974   2.606  0.4128  0.9290 -0.0996
16118TIP3    H269770   5.868   2.999   2.491 -0.6353 -0.2894  0.4798
16119TIP3   OH269771   1.597   5.319  16.105  0.0131  0.2579  0.5600
16119TIP3    H169772   1.582   5.238  16.154 -1.9163 -0.6630 -1.4095
16119TIP3    H269773   1.656   5.294  16.034 -0.6858  0.5489 -0.1307
16120TIP3   OH269774   1.613   1.556  10.892  0.2759 -0.1874  0.0425
16120TIP3    H169775   1.538   1.585  10.840  0.8322  1.1085 -0.0750
16120TIP3    H269776   1.579   1.483  10.944 -0.8693 -0.0924 -0.5444
16121TIP3   OH269777   5.670   0.514  15.039  0.5652  0.2643  0.0174
16121TIP3    H169778   5.579   0.516  15.067  0.6283 -1.7402  0.5527
16121TIP3    H269779   5.712   0.584  15.087 -0.7150  1.3919 -0.4263
16122TIP3   OH269780   2.527   4.535   1.019 -0.2302 -0.1739 -0.5121
16122TIP3    H169781   2.595   4.473   1.045 -0.4690  0.0594  0.7486
16122TIP3    H269782   2.526   4.531   0.924  2.1516  0.4591 -0.6421
16123TIP3   OH269783   0.135   0.359  12.106 -0.2328 -0.8360 -0.0173
16123TIP3    H169784   0.164   0.336  12.194 -1.4737  0.0107  0.6373
16123TIP3    H269785   0.193   0.429  12.078 -0.6011 -0.2664  0.6273
16124TIP3   OH269786   6.754   5.975   3.209  0.3627  0.6885 -0.6448
16124TIP3    H169787   6.705   6.003   3.286  1.1635  0.6320 -0.1089
16124TIP3    H269788   6.698   6.000   3.135 -0.2607  1.0410 -0.0650
16125TIP3   OH269789   3.562   4.257   3.254  0.1425 -0.3487  0.0759
16125TIP3    H169790   3.515   4.340   3.267  2.4760  1.4867 -2.1712
16125TIP3    H269791   3.508   4.209   3.192 -1.6818 -1.0143  2.0595
16126TIP3   OH269792   5.557   2.413  11.725  0.7905 -1.0023  0.7348
16126TIP3    H169793   5.587   2.409  11.816  1.7474 -1.3440  0.4106
16126TIP3    H269794   5.546   2.507  11.708 -1.5090 -1.0119  1.8604
16127TIP3   OH269795   4.649   1.538   4.830  0.4109 -0.1154 -0.0043
16127TIP3    H169796   4.619   1.513   4.742 -0.1750  0.9632 -0.1218
16127TIP3    H269797   4.654   1.455   4.877  0.7373 -0.7179 -1.0483
16128TIP3   OH269798   4.234   2.579  16.600 -0.0353 -0.3082 -0.2509
16128TIP3    H169799   4.155   2.526  16.588 -0.2500 -0.0119 -0.1672
16128TIP3    H269800   4.247   2.582  16.695 -0.0002 -0.2441 -0.2577
16129TIP3   OH269801   1.753   0.735  11.358  0.2675 -0.2643  0.4137
16129TIP3    H169802   1.835   0.773  11.324 -0.4779 -0.2697 -1.4657
16129TIP3    H269803   1.781   0.655  11.402  1.0601 -2.0196 -2.9284
16130TIP3   OH269804   0.955   2.370  14.482  0.6983  0.0608  0.5128
16130TIP3    H169805   0.979   2.303  14.546 -0.1567 -2.5379 -1.6720
16130TIP3    H269806   1.034   2.384  14.431  0.3259 -0.9837 -0.3915
16131TIP3   OH269807   4.139   4.619  15.182 -0.4293  0.1871  0.3087
16131TIP3    H169808   4.081   4.559  15.230  1.3065 -0.6831  1.4223
16131TIP3    H269809   4.166   4.683  15.247 -1.6966  1.8387 -0.7044
16132TIP3   OH269810   0.579   4.235   3.592  0.3308  0.1523 -0.5291
16132TIP3    H169811   0.559   4.141   3.584  1.1641  0.0273 -1.2795
16132TIP3    H269812   0.595   4.247   3.686  0.1857 -0.4534 -0.4176
16133TIP3   OH269813   5.021   3.398   5.365  0.2056 -0.2763 -0.1280
16133TIP3    H169814   5.006   3.491   5.385  1.8984  0.0955 -0.4356
16133TIP3    H269815   5.035   3.358   5.451  1.9325  0.2581 -0.1181
16134TIP3   OH269816   1.517   2.456   5.284 -0.0002  0.1222 -0.4524
16134TIP3    H169817   1.461   2.528   5.314 -1.1565 -0.4651 -1.1390
16134TIP3    H269818   1.494   2.443   5.192  0.8207 -0.5504 -0.5800
16135TIP3   OH269819   6.386   2.170   3.465 -0.1601  0.0051  0.2437
16135TIP3    H169820   6.392   2.265   3.477  0.1706 -0.0743  0.7066
16135TIP3    H269821   6.351   2.137   3.548  0.8560 -0.3980  0.5212
16136TIP3   OH269822   3.925   1.552   0.773 -0.2230  0.4124 -0.3150
16136TIP3    H169823   3.978   1.619   0.731  1.0030 -1.1833 -1.4171
16136TIP3    H269824   3.885   1.503   0.700 -1.3652  0.1301  0.4626
16137TIP3   OH269825   0.905   5.263   2.375  0.1488  0.2244  0.3698
16137TIP3    H169826   0.999   5.252   2.394  0.1196 -2.9871 -0.7704
16137TIP3    H269827   0.884   5.190   2.317 -3.2073  0.5543  1.0022
16138TIP3   OH269828   3.311   6.098   1.992  0.6270 -0.2068  0.3949
16138TIP3    H169829   3.280   6.008   2.007  1.5693 -0.6556 -0.2044
16138TIP3    H269830   3.352   6.094   1.905  1.3024  0.6347  0.6721
16139TIP3   OH269831   6.639   5.406   3.092  0.1790  0.4156 -0.2788
16139TIP3    H169832   6.697   5.362   3.029  1.3089  1.3997  0.0293
16139TIP3    H269833   6.655   5.500   3.078 -2.1037  0.7833 -0.8698
16140TIP3   OH269834   5.100   5.382  12.783  0.2023 -0.0535 -0.2279
16140TIP3    H169835   5.057   5.352  12.704 -1.4712 -2.7939  1.5698
16140TIP3    H269836   5.192   5.392  12.758  0.3390 -3.8146 -1.9134
16141TIP3   OH269837   4.596   3.156   3.273 -0.4109 -0.6697 -0.0350
16141TIP3    H169838   4.515   3.153   3.223 -1.1291 -1.3050  1.0926
16141TIP3    H269839   4.634   3.068   3.262 -1.5044 -1.4576  1.9113
16142TIP3   OH269840   4.534   0.035  11.725  0.1344 -0.2706 -0.0584
16142TIP3    H169841   4.524  -0.060  11.728 -1.7618 -0.1758 -1.5761
16142TIP3    H269842   4.543   0.055  11.632 -0.4644  1.1092  0.1586
16143TIP3   OH269843   4.017   0.811   1.148 -0.2551  0.6452  0.8904
16143TIP3    H169844   4.068   0.751   1.203 -0.6782 -0.8124 -0.2168
16143TIP3    H269845   4.028   0.897   1.188 -0.0808 -0.2512  2.8929
16144TIP3   OH269846   1.476   5.100   2.750  0.3998 -0.3150 -0.2285
16144TIP3    H169847   1.508   5.045   2.678  0.8692  0.2837 -0.4901
16144TIP3    H269848   1.494   5.049   2.829 -0.5836 -1.2046 -0.5585
16145TIP3   OH269849   3.730   0.997   3.586 -0.4330  0.5268  0.1188
16145TIP3    H169850   3.676   0.940   3.531  0.1988  1.9805 -2.1168
16145TIP3    H269851   3.764   1.063   3.527 -0.5530  2.8603  2.4675
16146TIP3   OH269852   5.573   5.514   4.318  0.7171  0.1076 -0.3682
16146TIP3    H169853   5.587   5.534   4.410 -0.9309  0.4192 -0.1430
16146TIP3    H269854   5.631   5.440   4.300  0.2541 -0.6973  1.2360
16147TIP3   OH269855   3.665   5.993  13.087 -0.0348 -0.3114 -0.2381
16147TIP3    H169856   3.758   5.995  13.110  0.4072  1.5304 -1.9452
16147TIP3    H269857   3.628   6.068  13.133 -0.4586 -0.3884 -0.4565
16148TIP3   OH269858   5.994   1.042   0.866  0.2678 -0.0864 -0.2372
16148TIP3    H169859   6.039   1.004   0.942  1.7771 -0.4840 -1.2881
16148TIP3    H269860   6.028   1.131   0.860  1.2955 -0.5239 -1.2896
16149TIP3   OH269861   2.342   1.826   0.570  0.7752  0.9257 -0.4356
16149TIP3    H169862   2.334   1.748   0.516 -3.1945 -0.3530  1.6279
16149TIP3    H269863   2.399   1.799   0.642  0.6169  0.4067 -0.4991
16150TIP3   OH269864   1.449   2.603  11.776  0.0428 -0.3309  0.0357
16150TIP3    H169865   1.524   2.622  11.720 -0.2312  2.3247  0.4557
16150TIP3    H269866   1.479   2.626  11.864 -1.0136  0.0742  0.2995
16151TIP3   OH269867   0.110   4.175  14.354 -0.1639  0.1558 -0.0184
16151TIP3    H169868   0.092   4.107  14.289 -2.2822  1.2824 -0.7214
16151TIP3    H269869   0.029   4.227  14.357  0.3746  0.9946  2.5077
16152TIP3   OH269870   5.951   5.978  16.608 -0.0740  0.2860  0.5707
16152TIP3    H169871   6.040   5.953  16.583 -0.1581  1.0738 -0.6011
16152TIP3    H269872   5.924   5.911  16.671  0.7158 -0.9678 -0.3701
16153TIP3   OH269873   1.154   2.966  13.813 -0.0633 -0.9584  0.5352
16153TIP3    H169874   1.079   2.956  13.754 -1.6707  1.8676  1.8838
16153TIP3    H269875   1.209   3.031  13.770 -1.6598  1.7600  2.3121
16154TIP3   OH269876   2.729   4.439  15.299  0.2697 -0.3559 -0.0308
16154TIP3    H169877   2.636   4.439  15.318  0.4047 -0.5415  0.6816
16154TIP3    H269878   2.735   4.422  15.205 -0.4278  0.3460 -0.2081
16155TIP3   OH269879   0.261   3.651   4.226  0.4107  0.1270 -0.0296
16155TIP3    H169880   0.333   3.702   4.189  0.5793  0.9331  1.3676
16155TIP3    H269881   0.183   3.683   4.180  0.9004 -0.7308 -1.5310
16156TIP3   OH269882   5.180   1.019  13.903  0.3555 -0.3735 -0.1618
16156TIP3    H169883   5.125   0.996  13.828 -0.2152  0.6730 -0.0916
16156TIP3    H269884   5.161   1.111  13.919  1.5479 -0.2013  0.3820
16157TIP3   OH269885   3.149   5.470  11.350  0.2131 -0.1970 -0.4071
16157TIP3    H169886   3.152   5.500  11.259 -0.7081  1.0143 -0.0686
16157TIP3    H269887   3.123   5.378  11.344 -0.7926  0.1229 -1.3350
16158TIP3   OH269888   3.620   4.705   4.340 -0.4713 -0.3756  0.4423
16158TIP3    H169889   3.605   4.659   4.423  1.2529  1.9097  2.1742
16158TIP3    H269890   3.532   4.731   4.312 -1.1548 -1.7452  1.1907
16159TIP3   OH269891   6.561   0.351  12.937 -0.1122 -0.0344  0.0807
16159TIP3    H169892   6.619   0.285  12.899  1.0581  1.2490 -0.4690
16159TIP3    H269893   6.532   0.404  12.863 -2.2394 -0.7748  0.3094
16160TIP3   OH269894   3.020   1.415  10.645 -0.8746 -0.3556  0.1373
16160TIP3    H169895   2.973   1.334  10.667 -0.8643 -0.3131  0.3164
16160TIP3    H269896   2.971   1.484  10.690  1.0514 -0.5997  2.8913
16161TIP3   OH269897   6.102   3.585   4.999  0.2004 -0.9399 -0.1545
16161TIP3    H169898   6.170   3.537   5.047 -0.7421 -1.0268  1.1484
16161TIP3    H269899   6.098   3.670   5.042  0.7769 -0.2290 -1.4501
16162TIP3   OH269900   4.596   0.649   5.664  0.0328 -0.0864  0.5167
16162TIP3    H169901   4.617   0.614   5.750  0.1410 -1.8287 -0.1775
16162TIP3    H269902   4.508   0.617   5.645 -1.3775  2.9952  1.2932
16163TIP3   OH269903   2.604   4.430  12.952  0.1075  0.1845 -0.0887
16163TIP3    H169904   2.644   4.501  12.901  0.7286 -0.2009 -0.1464
16163TIP3    H269905   2.620   4.351  12.899 -1.0418  0.0713 -0.2833
16164TIP3   OH269906   4.357   5.976  13.733  0.0124 -0.5887  0.7277
16164TIP3    H169907   4.375   5.928  13.813 -0.1874 -0.7151  0.6973
16164TIP3    H269908   4.437   6.027  13.717 -0.2879  0.1430  1.5020
16165TIP3   OH269909   1.326   1.634   2.069 -0.2066  0.7110  0.2534
16165TIP3    H169910   1.299   1.543   2.062  2.2310  0.0469 -2.5558
16165TIP3    H269911   1.397   1.633   2.134  4.3535 -0.9483 -4.0851
16166TIP3   OH269912   3.100   5.539   2.616  0.3530  0.0391 -0.0713
16166TIP3    H169913   3.102   5.569   2.526  0.3081 -0.7246 -0.3354
16166TIP3    H269914   3.169   5.473   2.621 -0.5496 -0.9321  0.0697
16167TIP3   OH269915   3.709   1.857  14.733  0.2556  0.4001 -0.3363
16167TIP3    H169916   3.753   1.881  14.814  2.1156 -2.0239 -0.5104
16167TIP3    H269917   3.752   1.910  14.666  1.0745  0.0021 -0.1405
16168TIP3   OH269918   3.047   4.281   6.158 -0.0479  0.8559  0.0466
16168TIP3    H169919   3.092   4.336   6.223  1.1996 -0.3034  0.2171
16168TIP3    H269920   2.992   4.342   6.109  0.3193  2.0410  1.0494
16169TIP3   OH269921   0.724   5.970   5.038  0.1432 -0.3504 -0.0702
16169TIP3    H169922   0.736   6.053   4.992 -0.3760  0.6110  1.4542
16169TIP3    H269923   0.806   5.958   5.087 -0.1330 -0.2810  0.4085
16170TIP3   OH269924   6.389   4.972   2.874 -0.6754  0.3595 -0.2216
16170TIP3    H169925   6.401   5.058   2.914 -2.0622  0.3183  0.3424
16170TIP3    H269926   6.330   4.926   2.934  0.2069 -1.0759 -0.3912
16171TIP3   OH269927   3.775   0.992  11.766 -0.1996  0.2419 -0.5660
16171TIP3    H169928   3.802   0.901  11.761 -1.2015 -0.0236 -1.6361
16171TIP3    H269929   3.813   1.033  11.688 -0.6667  0.4613 -0.6857
16172TIP3   OH269930   4.067   4.592   0.124 -0.3297 -0.5097  0.1999
16172TIP3    H169931   4.017   4.617   0.202  1.4820  0.3836  1.1221
16172TIP3    H269932   4.121   4.518   0.153 -2.1339 -2.4922 -1.1998
16173TIP3   OH269933   4.916   5.490  14.856 -0.0289  0.1071 -0.0901
16173TIP3    H169934   4.913   5.432  14.780  0.3073  0.5329 -0.4308
16173TIP3    H269935   4.872   5.570  14.827 -0.7885 -0.0823  0.4804
16174TIP3   OH269936   0.770   0.590  12.624  0.5654  0.0121 -0.0782
16174TIP3    H169937   0.745   0.647  12.697  1.0710 -0.0492  0.1489
16174TIP3    H269938   0.829   0.526  12.663  2.1455  0.9496 -0.8196
16175TIP3   OH269939   3.384   5.343  13.269  0.3117  0.4956 -1.3227
16175TIP3    H169940   3.338   5.348  13.186  0.0040 -1.1756 -1.2752
16175TIP3    H269941   3.333   5.399  13.328 -1.0914 -0.5372 -1.5233
16176TIP3   OH269942   6.064   0.873  15.148 -0.5770  0.0893  0.5216
16176TIP3    H169943   6.088   0.892  15.057  0.0283  0.9366  0.8494
16176TIP3    H269944   6.140   0.899  15.199 -0.6051 -1.1173  1.2187
16177TIP3   OH269945   4.641   0.386   1.491  0.0500 -0.3271  0.5298
16177TIP3    H169946   4.699   0.413   1.420  2.5282 -1.4118  1.9904
16177TIP3    H269947   4.610   0.469   1.530 -3.4924  0.3915 -3.1785
16178TIP3   OH269948   2.597   0.354   2.090  0.0824  0.0314  0.1639
16178TIP3    H169949   2.514   0.399   2.106 -0.2297 -0.6202  0.3935
16178TIP3    H269950   2.662   0.424   2.088 -0.3330  0.4527  0.9617
16179TIP3   OH269951   4.649   0.899   0.481  0.7522 -1.0789  0.3908
16179TIP3    H169952   4.649   0.877   0.388  0.0933 -1.2937  0.4398
16179TIP3    H269953   4.738   0.931   0.498  0.5619  0.0339 -0.5672
16180TIP3   OH269954   4.553   3.358  11.396  0.0175 -0.4257 -0.1148
16180TIP3    H169955   4.624   3.409  11.359 -0.2662  0.1991  0.1960
16180TIP3    H269956   4.484   3.360  11.329  0.2208 -0.8897 -0.3443
16181TIP3   OH269957   4.647   0.524   3.126 -0.3308  0.3551 -0.6068
16181TIP3    H169958   4.640   0.428   3.132  1.6528  0.1557 -0.8365
16181TIP3    H269959   4.689   0.549   3.208 -1.9463  1.2059  0.0025
16182TIP3   OH269960   1.031   2.998   4.140 -0.0474 -0.1441  0.2113
16182TIP3    H169961   1.024   3.012   4.046  1.9744 -0.9576 -0.0977
16182TIP3    H269962   0.943   3.017   4.173 -0.9113 -0.2273 -1.8711
16183TIP3   OH269963   0.398   4.975  14.159 -0.7862  0.1707  0.4438
16183TIP3    H169964   0.399   4.880  14.147 -1.3093  0.2233 -0.0804
16183TIP3    H269965   0.319   4.992  14.209 -0.8880  0.3650  0.2176
16184TIP3   OH269966   2.476   0.558  15.007 -0.1530 -0.4068  0.4233
16184TIP3    H169967   2.475   0.507  14.926 -0.6927 -1.8707  1.3182
16184TIP3    H269968   2.495   0.648  14.979 -0.2998 -0.8912 -1.3093
16185TIP3   OH269969   2.085   6.193   5.310 -0.1160 -0.2458 -0.0622
16185TIP3    H169970   2.112   6.166   5.398 -0.3310 -2.5852 -0.6353
16185TIP3    H269971   2.105   6.287   5.306  2.3938 -0.6111  1.5588
16186TIP3   OH269972   5.220   5.751  11.101  0.2868  0.2352  0.2178
16186TIP3    H169973   5.195   5.841  11.077  0.0081 -0.1691 -1.0995
16186TIP3    H269974   5.140   5.711  11.134 -0.2285 -0.2721 -1.5664
16187TIP3   OH269975   3.188   0.326  11.959  0.4535 -0.3624 -0.0350
16187TIP3    H169976   3.189   0.393  11.890 -0.8485  0.8915  1.0845
16187TIP3    H269977   3.244   0.256  11.926  0.1039  0.3161 -2.2288
16188TIP3   OH269978   2.414   6.529   0.239  0.3095  0.2162 -0.0090
16188TIP3    H169979   2.488   6.485   0.198  1.4019  1.1914  0.8528
16188TIP3    H269980   2.337   6.478   0.212  1.2334 -0.5332 -1.3032
16189TIP3   OH269981   1.961   3.117   3.472  0.2456  0.4050  0.8547
16189TIP3    H169982   2.042   3.129   3.521  0.8343 -0.5715  0.1349
16189TIP3    H269983   1.947   3.202   3.429  1.2500  0.3796  0.4487
16190TIP3   OH269984   4.658   0.842   1.176 -0.5788  0.4197 -0.2462
16190TIP3    H169985   4.600   0.777   1.137 -0.3384  1.5254 -2.6345
16190TIP3    H269986   4.599   0.908   1.212 -0.8383  0.5118 -0.8243
16191TIP3   OH269987   2.085   5.622   0.764 -0.0433 -0.1068  0.7066
16191TIP3    H169988   2.117   5.577   0.686  0.2987 -1.7299  1.7278
16191TIP3    H269989   2.143   5.591   0.834 -2.2570 -1.1746  2.1759
16192TIP3   OH269990   4.919   4.133   1.867  0.4288  0.1908 -0.3073
16192TIP3    H169991   4.844   4.073   1.859  0.5147  0.1793 -1.0602
16192TIP3    H269992   4.886   4.204   1.922 -0.7619  1.1112 -2.0826
16193TIP3   OH269993   0.221   6.656   4.096 -0.3300 -0.6190 -0.5429
16193TIP3    H169994   0.130   6.687   4.100 -0.0794  0.0553  0.0855
16193TIP3    H269995   0.216   6.565   4.125 -0.9531 -0.9338 -1.5677
16194TIP3   OH269996   5.119   5.449  16.293  0.3379 -0.0559  0.0449
16194TIP3    H169997   5.061   5.393  16.243  1.6885 -1.9739  0.4893
16194TIP3    H269998   5.207   5.416  16.274  1.0000  0.0089  2.5282
16195TIP3   OH269999   2.796   2.672  13.233 -0.3643  0.5273  0.0679
16195TIP3    H170000   2.858   2.724  13.182  0.5121 -1.6216 -1.2158
16195TIP3    H270001   2.830   2.675  13.322  0.8735  0.4818 -0.3813
16196TIP3   OH270002   2.265   0.785   3.634 -0.2934 -0.2362 -0.6298
16196TIP3    H170003   2.252   0.731   3.712 -1.3627  2.5334  1.2716
16196TIP3    H270004   2.204   0.749   3.570 -0.1891 -1.9107  0.1530
16197TIP3   OH270005   0.924   2.286   4.936 -0.1325  0.5399 -0.2616
16197TIP3    H170006   1.005   2.239   4.958 -0.4569  0.0137 -0.1982
16197TIP3    H270007   0.948   2.340   4.860 -0.3857 -1.5245 -1.8866
16198TIP3   OH270008   0.438   6.631   1.666 -0.9699  0.1447 -0.8800
16198TIP3    H170009   0.482   6.677   1.737  0.4030 -1.8429 -0.3353
16198TIP3    H270010   0.348   6.620   1.697 -0.4161 -0.6138  0.5854
16199TIP3   OH270011   3.700   1.963  11.872  0.4917  0.0709  0.2534
16199TIP3    H170012   3.700   1.994  11.963  2.5967  0.2323  0.2293
16199TIP3    H270013   3.614   1.921  11.862 -0.1879  0.9271  1.9940
16200TIP3   OH270014   5.227   0.625  14.783  0.1186 -0.1430 -0.0737
16200TIP3    H170015   5.225   0.584  14.696 -1.0098 -0.1038 -0.0909
16200TIP3    H270016   5.316   0.611  14.815  0.8655  0.6932 -1.6434
16201TIP3   OH270017   4.727   3.424   2.008 -0.0960  0.5065 -0.2200
16201TIP3    H170018   4.821   3.413   1.992 -0.3896 -1.9980 -0.5650
16201TIP3    H270019   4.722   3.467   2.093  1.3828 -0.7792  0.5670
16202TIP3   OH270020   0.330   0.904  15.851 -0.2424  0.1768 -0.2016
16202TIP3    H170021   0.291   0.975  15.801 -2.1664 -0.9169 -0.3485
16202TIP3    H270022   0.337   0.938  15.940 -0.7986  0.6816 -0.3474
16203TIP3   OH270023   6.404   2.259  13.538 -0.4599 -0.0748  0.8420
16203TIP3    H170024   6.481   2.287  13.586  0.2160 -0.8830  0.2591
16203TIP3    H270025   6.423   2.169  13.511 -0.4285  0.6044 -1.6658
16204TIP3   OH270026   3.787   6.519   1.479 -0.3418  1.2045  0.3772
16204TIP3    H170027   3.754   6.609   1.483  0.0620  1.3683  0.0038
16204TIP3    H270028   3.876   6.527   1.447  0.1362  0.7725  1.5422
16205TIP3   OH270029   0.088   5.304   1.909 -0.1802 -0.6678 -0.2880
16205TIP3    H170030   0.056   5.219   1.878 -1.8005 -0.9690  1.9506
16205TIP3    H270031   0.175   5.312   1.870 -0.2900 -2.9940 -1.2060
16206TIP3   OH270032   4.828   6.500  15.454  0.2541 -0.4019 -0.5840
16206TIP3    H170033   4.830   6.596  15.459  4.1388 -0.3635  0.5306
16206TIP3    H270034   4.898   6.478  15.393  0.1107 -2.5609 -0.0337
16207TIP3   OH270035   6.677   1.319  13.369 -0.1957  0.6796 -0.3045
16207TIP3    H170036   6.590   1.350  13.394 -0.9470 -2.0789  0.8525
16207TIP3    H270037   6.737   1.373  13.419 -1.3140  1.4712  0.2316
16208TIP3   OH270038   5.052   4.829  11.817  0.1976  0.3252 -0.0140
16208TIP3    H170039   5.107   4.757  11.787  0.2307 -0.7527  2.4023
16208TIP3    H270040   5.083   4.905  11.768  2.4670 -0.6447 -0.2145
16209TIP3   OH270041   0.282   0.468   1.859 -0.0517  0.1405  0.0258
16209TIP3    H170042   0.369   0.506   1.868 -0.4209  1.0561 -0.2066
16209TIP3    H270043   0.289   0.410   1.783  0.1597  0.7937 -0.4631
16210TIP3   OH270044   5.948   4.297  11.851  0.5843 -0.3725 -0.1372
16210TIP3    H170045   5.916   4.315  11.939  1.5837 -0.0197  0.1749
16210TIP3    H270046   6.043   4.291  11.862  0.7298 -0.1490 -1.2209
16211TIP3   OH270047   5.738   1.561  15.981 -0.2353 -0.3766  0.2472
16211TIP3    H170048   5.759   1.477  15.939  1.2921  0.4172 -0.6941
16211TIP3    H270049   5.815   1.616  15.963 -0.5230  0.7351  2.1961
16212TIP3   OH270050   1.005   4.380   2.547  0.1666 -0.3993 -1.1567
16212TIP3    H170051   0.982   4.409   2.458 -2.1772  1.0176 -0.1890
16212TIP3    H270052   0.924   4.342   2.581  1.0341 -0.9466  0.3817
16213TIP3   OH270053   0.687   4.575  17.107  1.1193 -0.5668 -0.1140
16213TIP3    H170054   0.690   4.652  17.050 -1.2104 -0.4739 -0.1981
16213TIP3    H270055   0.702   4.501  17.048 -1.3246 -0.4741 -0.9532
16214TIP3   OH270056   0.205   1.540  16.819 -0.3397 -0.3131 -0.1218
16214TIP3    H170057   0.208   1.574  16.729 -3.1688  0.5038 -0.0222
16214TIP3    H270058   0.178   1.616  16.872  1.6212 -0.6884  1.5218
16215TIP3   OH270059   1.850   4.640  16.550  0.0797  0.0974  0.4680
16215TIP3    H170060   1.818   4.568  16.494  0.6005 -0.2873  0.6575
16215TIP3    H270061   1.773   4.667  16.600 -0.7736  1.4366 -1.4436
16216TIP3   OH270062   4.639   6.370   5.334 -0.0305 -0.2491  0.4826
16216TIP3    H170063   4.576   6.343   5.402  0.4875 -0.9466  0.6939
16216TIP3    H270064   4.694   6.293   5.321  2.1444  0.9692  1.8053
16217TIP3   OH270065   1.580   5.379  12.673 -0.1289  0.2117 -0.5986
16217TIP3    H170066   1.605   5.465  12.639  0.1289  0.1215 -0.6365
16217TIP3    H270067   1.627   5.372  12.756 -2.3618  1.3383  0.8920
16218TIP3   OH270068   6.209   6.596  14.384  0.0438 -0.0582 -0.5459
16218TIP3    H170069   6.132   6.593  14.326 -0.6383 -2.0170  0.3886
16218TIP3    H270070   6.264   6.523  14.356  0.7401  0.2764 -0.0844
16219TIP3   OH270071   6.465   6.693  14.503  0.2539 -0.5859 -0.1576
16219TIP3    H170072   6.457   6.615  14.557  2.6964 -1.3388 -0.7752
16219TIP3    H270073   6.414   6.673  14.424 -2.7152  0.2381  1.4196
16220TIP3   OH270074   1.236   3.186  15.222 -0.5586  0.2440  0.0415
16220TIP3    H170075   1.328   3.160  15.216 -0.7570 -0.4517 -0.0523
16220TIP3    H270076   1.218   3.185  15.316 -0.2931  1.0346  0.1076
16221TIP3   OH270077   1.654   4.331  12.346  0.3449  0.2636  0.5573
16221TIP3    H170078   1.573   4.319  12.396 -1.0100  3.3362 -0.6133
16221TIP3    H270079   1.723   4.328  12.412 -0.7387 -1.7183  1.6961
16222TIP3   OH270080   6.679   2.424   2.888 -0.5007  0.1588 -0.3147
16222TIP3    H170081   6.770   2.411   2.915 -0.0246  1.0567 -1.4090
16222TIP3    H270082   6.638   2.338   2.898  0.0895  0.0484  1.5107
16223TIP3   OH270083   1.773   4.875  14.530 -0.0564  0.8086  0.4138
16223TIP3    H170084   1.847   4.820  14.507 -1.5625 -0.9396 -0.4987
16223TIP3    H270085   1.769   4.941  14.461 -0.3323 -0.1067 -0.4610
16224TIP3   OH270086   0.588   1.686  12.191  0.3541  0.2663 -0.8131
16224TIP3    H170087   0.650   1.708  12.261 -1.1550  3.3306 -0.2751
16224TIP3    H270088   0.623   1.728  12.113 -0.3684  0.9513 -0.7835
16225TIP3   OH270089   4.845   5.664   2.491  0.2569  0.1945  0.0188
16225TIP3    H170090   4.820   5.718   2.415 -0.4184 -1.1219 -0.7205
16225TIP3    H270091   4.921   5.709   2.527 -1.3421  2.7066  0.5729
16226TIP3   OH270092   3.791   4.144  15.722 -0.3731 -0.0606  1.1265
16226TIP3    H170093   3.800   4.051  15.745 -2.1292 -1.2147 -2.1839
16226TIP3    H270094   3.857   4.158  15.655 -0.9724  0.7213  0.6916
16227TIP3   OH270095   1.218   4.788  16.307  0.2161  0.1266  0.3442
16227TIP3    H170096   1.303   4.745  16.304  0.3223  0.4300 -1.5504
16227TIP3    H270097   1.232   4.875  16.271 -1.3175 -0.6795 -2.5390
16228TIP3   OH270098   4.951   5.597  16.438 -0.0170  0.3681  0.3768
16228TIP3    H170099   4.948   5.574  16.530 -1.8538 -1.4526 -0.0548
16228TIP3    H270100   5.014   5.536  16.400  0.3954  0.8169  0.3181
16229TIP3   OH270101   4.621   2.408  14.337 -0.1079 -0.0369  0.7769
16229TIP3    H170102   4.702   2.389  14.289 -0.7896  1.7085 -1.1940
16229TIP3    H270103   4.581   2.322  14.350  0.0739 -0.6419 -1.9556
16230TIP3   OH270104   0.576   1.307  16.030 -0.2720 -0.2275  0.4193
16230TIP3    H170105   0.642   1.349  15.974  0.0243  0.9922  1.6396
16230TIP3    H270106   0.499   1.298  15.973  1.0033 -2.0240 -1.1595
16231TIP3   OH270107   2.436   2.180   2.819  0.0980 -0.3087 -0.7455
16231TIP3    H170108   2.506   2.228   2.775 -1.1163  2.1925 -0.1711
16231TIP3    H270109   2.462   2.178   2.911 -1.0177  1.6591 -0.3307
16232TIP3   OH270110   4.005   6.330  16.735 -0.0457 -0.2609  0.9187
16232TIP3    H170111   3.977   6.248  16.693  2.3102 -0.7696  0.2228
16232TIP3    H270112   4.063   6.303  16.806  0.3971  0.7852  0.9814
16233TIP3   OH270113   6.412   1.497  14.678 -0.7134 -0.6405  0.1464
16233TIP3    H170114   6.341   1.446  14.640 -1.1954  0.9493 -1.1696
16233TIP3    H270115   6.400   1.586  14.645  0.1325  0.3651  2.3238
16234TIP3   OH270116   5.303   4.714   1.226 -0.6117 -0.2863  0.0931
16234TIP3    H170117   5.366   4.785   1.231 -1.3454  0.2958  1.7304
16234TIP3    H270118   5.221   4.751   1.260 -1.8823 -1.0103 -1.9705
16235TIP3   OH270119   0.278   3.303   5.140  0.0819  0.0342 -0.1299
16235TIP3    H170120   0.194   3.350   5.131  0.4704  1.1755  1.6428
16235TIP3    H270121   0.264   3.244   5.215  0.8446  0.2264  0.1666
16236TIP3   OH270122   0.601   0.021   1.877  0.4131 -0.0479  0.2414
16236TIP3    H170123   0.606  -0.003   1.969 -0.3325  0.8076  0.5202
16236TIP3    H270124   0.628   0.112   1.874  1.7571 -0.4553 -0.5896
16237TIP3   OH270125   3.406   5.022   0.613 -0.0763  0.0257  0.8087
16237TIP3    H170126   3.494   5.026   0.575 -0.6056  0.5471 -0.4283
16237TIP3    H270127   3.402   4.935   0.654  0.6725 -0.4149 -0.0056
16238TIP3   OH270128   4.852   4.282   1.342 -0.1401 -0.3614  0.1889
16238TIP3    H170129   4.773   4.307   1.389  0.1145  0.6857  0.0828
16238TIP3    H270130   4.909   4.359   1.348 -0.0567 -0.2318 -1.7016
16239TIP3   OH270131   6.551   1.451   5.777 -0.5701  0.7333 -0.2844
16239TIP3    H170132   6.471   1.474   5.824  0.4541  0.4038  1.7332
16239TIP3    H270133   6.589   1.535   5.750 -1.4613  0.8984 -1.0590
16240TIP3   OH270134   2.211   3.405  11.337  0.6887  0.2825 -0.0922
16240TIP3    H170135   2.182   3.479  11.389 -0.5381 -0.7639  0.7918
16240TIP3    H270136   2.202   3.434  11.246  1.7160  1.7192  0.2329
16241TIP3   OH270137   4.846   4.829  14.813 -0.3102 -0.0131 -0.1298
16241TIP3    H170138   4.866   4.897  14.749 -0.1899  0.9522  0.9110
16241TIP3    H270139   4.776   4.778  14.772 -0.8604  1.1272 -0.6581
16242TIP3   OH270140   6.709   3.854  16.428  0.5820 -0.5692 -0.1186
16242TIP3    H170141   6.722   3.944  16.457  0.6563  0.2757 -2.5655
16242TIP3    H270142   6.625   3.828  16.465  0.1867  0.7902 -0.0261
16243TIP3   OH270143   5.004   2.023   1.494  0.1271  0.0136 -0.3350
16243TIP3    H170144   5.006   1.930   1.517 -1.6555 -0.6437 -2.3918
16243TIP3    H270145   4.927   2.057   1.540  0.5866  0.4063  0.1510
16244TIP3   OH270146   1.856   0.573  11.555 -0.3859  0.2537 -0.8040
16244TIP3    H170147   1.909   0.576  11.635 -0.0524 -1.1010 -0.9512
16244TIP3    H270148   1.791   0.505  11.572  1.0456 -1.6491 -2.4570
16245TIP3   OH270149   4.878   6.217   2.031  0.8875 -0.4679  0.3537
16245TIP3    H170150   4.806   6.243   2.088 -0.0435  0.6392 -1.2366
16245TIP3    H270151   4.838   6.159   1.967  0.6083  2.3896 -2.3208
16246TIP3   OH270152   5.913   5.481   3.210  0.2134  0.5364  0.1487
16246TIP3    H170153   5.945   5.535   3.137  0.0401  1.5925  0.8310
16246TIP3    H270154   5.820   5.505   3.218  0.3804  0.8962  1.1026
16247TIP3   OH270155   6.634   4.029  17.109 -0.1053 -0.3960 -0.6000
16247TIP3    H170156   6.560   3.997  17.160 -1.1053  0.0220 -1.7381
16247TIP3    H270157   6.679   4.091  17.167 -2.5769  1.8888 -0.9396
16248TIP3   OH270158   2.127   1.013  14.770  0.1392  0.4848 -0.1632
16248TIP3    H170159   2.129   1.107  14.788  0.2117  0.0803  2.2712
16248TIP3    H270160   2.064   1.003  14.699  1.0426  2.4673 -1.3351
16249TIP3   OH270161   5.986   3.513  15.606  0.1251 -0.2287  0.1647
16249TIP3    H170162   5.938   3.523  15.689 -0.5657 -2.3269  0.0783
16249TIP3    H270163   5.930   3.554  15.541  0.8651  1.8218  0.7227
16250TIP3   OH270164   3.838   2.410  12.908  0.5731  0.2266  0.0734
16250TIP3    H170165   3.926   2.445  12.893  0.0955  1.5544  0.2116
16250TIP3    H270166   3.784   2.450  12.840 -0.4122  1.4936  1.5080
16251TIP3   OH270167   3.603   5.151  10.843  0.4770 -0.2423 -0.1394
16251TIP3    H170168   3.647   5.118  10.765  0.3761  1.4507 -0.9468
16251TIP3    H270169   3.530   5.203  10.810  1.4827  2.0144  0.9686
16252TIP3   OH270170   0.391   5.554  10.322  0.3221  0.3079  0.0204
16252TIP3    H170171   0.324   5.496  10.358 -0.4458  1.7122  0.9385
16252TIP3    H270172   0.396   5.627  10.384  1.6043  0.9912 -0.8383
16253TIP3   OH270173   0.542   0.355  15.898  0.1063  0.2483  0.3694
16253TIP3    H170174   0.568   0.282  15.842  1.7725  0.2695  1.0438
16253TIP3    H270175   0.467   0.321  15.947 -0.1412 -0.4435 -0.4631
16254TIP3   OH270176   5.606   2.739   5.400 -0.1574  0.4543  0.6278
16254TIP3    H170177   5.666   2.810   5.377 -0.8043  0.4763 -1.1776
16254TIP3    H270178   5.560   2.771   5.477 -0.3345  1.9788 -0.0715
16255TIP3   OH270179   4.639   4.194  11.328 -0.4203  0.1489  0.1030
16255TIP3    H170180   4.607   4.120  11.277  0.5219 -0.5241  0.4562
16255TIP3    H270181   4.603   4.180  11.416 -0.0383 -0.0485  0.2348
16256TIP3   OH270182   0.218   4.583   3.728 -0.4633 -0.6059 -0.2208
16256TIP3    H170183   0.217   4.675   3.755 -1.7084 -0.6137 -0.1539
16256TIP3    H270184   0.305   4.569   3.693  0.1494  0.2743  0.8751
16257TIP3   OH270185   2.430   5.267  16.803  0.0368  0.2478  0.2947
16257TIP3    H170186   2.357   5.307  16.851  0.5893 -0.7357  2.0557
16257TIP3    H270187   2.388   5.216  16.734 -1.0304 -0.8294  1.6742
16258TIP3   OH270188   2.024   0.317   2.617 -0.1301  0.1372  0.3020
16258TIP3    H170189   2.003   0.347   2.529  0.9896  2.4174  0.7431
16258TIP3    H270190   2.095   0.254   2.604  1.1096  1.6211 -0.3582
16259TIP3   OH270191   3.277   1.242   1.869  0.1948  0.2484 -0.1385
16259TIP3    H170192   3.298   1.335   1.857 -0.6123  0.3918 -0.4588
16259TIP3    H270193   3.325   1.197   1.800  1.7295  0.2578  0.8656
16260TIP3   OH270194   5.564   0.679  12.895 -0.2131 -0.5042  0.4731
16260TIP3    H170195   5.542   0.663  12.803  2.2371 -0.3173 -0.2084
16260TIP3    H270196   5.479   0.679  12.940 -1.4765 -0.6523 -1.7554
16261TIP3   OH270197   5.527   3.621  14.727 -0.2263 -0.4352 -0.1284
16261TIP3    H170198   5.453   3.666  14.687 -0.3379 -0.6295 -0.1407
16261TIP3    H270199   5.502   3.529  14.728 -0.0825 -0.4722  0.0819
16262TIP3   OH270200   1.705   4.369   2.700  0.4385  0.5445  0.2355
16262TIP3    H170201   1.708   4.277   2.675 -2.6244  0.4290 -0.1896
16262TIP3    H270202   1.675   4.414   2.621 -0.5011  1.5058  1.0974
16263TIP3   OH270203   6.043   1.203  14.676 -0.6945  0.0551 -0.1336
16263TIP3    H170204   5.951   1.198  14.701 -0.6776  0.3521 -0.0144
16263TIP3    H270205   6.068   1.294  14.691 -0.2862 -0.1009  0.1649
16264TIP3   OH270206   4.699   0.583   0.068 -0.2754  0.1013 -0.3142
16264TIP3    H170207   4.768   0.648   0.074 -1.3127  1.7045 -3.5269
16264TIP3    H270208   4.710   0.529   0.146  0.5970  4.1258  2.6736
16265TIP3   OH270209   6.207   0.465   2.396  0.3583  0.0167  0.1830
16265TIP3    H170210   6.243   0.553   2.391 -1.0328  0.6823  1.3790
16265TIP3    H270211   6.125   0.474   2.444 -0.7404 -1.6676 -1.2227
16266TIP3   OH270212   4.729   4.103  13.126  0.3236  0.0956 -0.2903
16266TIP3    H170213   4.641   4.118  13.161  0.2720  1.3431 -0.8890
16266TIP3    H270214   4.733   4.009  13.110 -1.3926  0.1715 -1.4898
16267TIP3   OH270215   1.135   4.579  13.614 -0.3777  0.1501 -0.0748
16267TIP3    H170216   1.170   4.649  13.669 -0.9173  0.0834  0.3566
16267TIP3    H270217   1.195   4.506  13.627  0.5926  0.7409 -1.0682
16268TIP3   OH270218   0.319   0.143  12.757 -0.2785  0.5674 -0.7148
16268TIP3    H170219   0.239   0.196  12.760  0.1257  1.1558  1.1348
16268TIP3    H270220   0.310   0.082  12.830 -0.1122 -1.0447 -1.9853
16269TIP3   OH270221   3.863   0.238  14.171  0.9104  0.5149 -0.1056
16269TIP3    H170222   3.826   0.165  14.221 -0.4503  1.9384  1.0438
16269TIP3    H270223   3.807   0.244  14.093  0.4118  0.9086  0.2721
16270TIP3   OH270224   2.632   3.210   5.355  0.0908 -0.6495  0.1557
16270TIP3    H170225   2.710   3.159   5.378  0.8707  1.3774  2.4461
16270TIP3    H270226   2.559   3.157   5.387  0.6580 -1.5554  0.0067
16271TIP3   OH270227   4.159   5.388   5.354 -0.3672 -0.0833 -0.1116
16271TIP3    H170228   4.073   5.416   5.324 -0.2823  1.3666  0.8943
16271TIP3    H270229   4.141   5.317   5.416 -0.5733 -2.6198 -2.8455
16272TIP3   OH270230   2.816   1.474   2.542 -0.3008  0.7527 -0.3663
16272TIP3    H170231   2.830   1.539   2.473  2.7466 -0.0288 -0.6453
16272TIP3    H270232   2.823   1.390   2.497 -1.7165  0.2074  0.3918
16273TIP3   OH270233   2.786   0.590  16.448 -0.2227 -0.2264 -0.3310
16273TIP3    H170234   2.824   0.615  16.532  2.3301 -1.2529 -1.0852
16273TIP3    H270235   2.808   0.662  16.389  0.6335 -0.8351 -0.7791
16274TIP3   OH270236   5.556   4.311  10.849  0.4200 -0.2012 -0.2750
16274TIP3    H170237   5.476   4.343  10.807  0.9472  1.1359 -0.3273
16274TIP3    H270238   5.580   4.232  10.800 -1.6129 -1.4604  0.6411
16275TIP3   OH270239   3.254   5.159   5.907  0.0002  0.3633 -0.0326
16275TIP3    H170240   3.163   5.131   5.891  0.1265  0.7758 -1.7478
16275TIP3    H270241   3.253   5.197   5.995 -1.1620 -0.9306  0.5434
16276TIP3   OH270242   3.745   2.757  14.144 -0.1104 -0.4450  0.3762
16276TIP3    H170243   3.651   2.749  14.163 -1.0769  1.8346 -2.5708
16276TIP3    H270244   3.773   2.831  14.198 -1.0123  1.2769 -1.4077
16277TIP3   OH270245   2.316   4.838  10.663 -0.1464  0.0399 -0.1225
16277TIP3    H170246   2.289   4.917  10.710  1.8455  0.1897  0.8744
16277TIP3    H270247   2.373   4.792  10.725  1.4102 -0.4924 -1.8668
16278TIP3   OH270248   0.837   6.282   2.104 -0.1050  0.0540  0.8439
16278TIP3    H170249   0.831   6.260   2.197  2.1262 -1.0305  0.7888
16278TIP3    H270250   0.902   6.352   2.099  0.0750 -0.1521  0.0751
16279TIP3   OH270251   5.379   4.836   4.046 -0.1435  0.1384 -0.2396
16279TIP3    H170252   5.292   4.797   4.051 -0.9332  1.9548  3.6831
16279TIP3    H270253   5.363   4.930   4.037  1.4593  0.4307 -0.4120
16280TIP3   OH270254   1.275   5.789   0.349  0.2375  0.8222 -0.1990
16280TIP3    H170255   1.241   5.715   0.300 -1.2482  1.2906  0.0359
16280TIP3    H270256   1.369   5.775   0.355  0.0222 -0.8576 -0.4402
16281TIP3   OH270257   6.768   4.537   4.446  0.2468  0.7013  0.0851
16281TIP3    H170258   6.796   4.616   4.402  0.5083 -0.5918 -2.1982
16281TIP3    H270259   6.805   4.544   4.534  0.7807  2.7902 -0.2624
16282TIP3   OH270260   6.337   4.850  16.160  0.2615  1.1214  0.1048
16282TIP3    H170261   6.327   4.868  16.253  1.4992 -1.7729  0.9022
16282TIP3    H270262   6.430   4.861  16.143  0.1633  0.9075 -0.6255
16283TIP3   OH270263   4.715   5.943  16.418  0.4491  0.6629  0.1633
16283TIP3    H170264   4.623   5.934  16.442  0.4974 -2.5300 -0.4408
16283TIP3    H270265   4.714   5.997  16.339 -1.0658 -0.3645 -0.5618
16284TIP3   OH270266   6.252   5.100   5.914  0.5073  0.0281  0.8531
16284TIP3    H170267   6.252   5.047   5.835 -1.4099  0.5044  0.4849
16284TIP3    H270268   6.294   5.182   5.889 -0.9373  0.5418  0.0341
16285TIP3   OH270269   0.929   6.331   2.789 -0.2433 -0.2867  0.0965
16285TIP3    H170270   0.924   6.387   2.711  2.2413  0.9686  0.7343
16285TIP3    H270271   0.878   6.378   2.855 -0.0164  0.0992  0.0011
16286TIP3   OH270272   5.161   5.071  11.723  0.0756  0.1250  0.2562
16286TIP3    H170273   5.236   5.085  11.780 -0.2119  0.0680  0.6522
16286TIP3    H270274   5.188   5.109  11.639  0.4240  0.3959  0.4850
16287TIP3   OH270275   1.817   2.474   3.253  0.6850  0.2221 -0.3283
16287TIP3    H170276   1.870   2.451   3.330  1.0096 -1.1737 -0.9327
16287TIP3    H270277   1.763   2.548   3.282  3.7778  2.5740 -0.0173
16288TIP3   OH270278   1.031   0.947   4.008 -0.1019  0.1662  0.0486
16288TIP3    H170279   1.096   0.999   4.056 -0.9413  0.6687  0.6820
16288TIP3    H270280   1.062   0.947   3.917  1.5930 -0.9167  0.5814
16289TIP3   OH270281   0.741   4.399  12.895 -0.2545 -0.1473  0.1125
16289TIP3    H170282   0.722   4.328  12.833  1.1836 -0.1585 -0.3449
16289TIP3    H270283   0.680   4.384  12.968  0.9537 -2.7120  0.7064
16290TIP3   OH270284   5.614   2.499   2.396  0.0143  0.0894 -0.6950
16290TIP3    H170285   5.709   2.489   2.382 -0.1434 -1.3608 -0.8871
16290TIP3    H270286   5.578   2.506   2.307 -0.0378  0.9867 -0.6100
16291TIP3   OH270287   1.197   0.804   4.273 -0.4124  0.1869 -0.0975
16291TIP3    H170288   1.210   0.898   4.271 -2.6266  0.5604  0.4719
16291TIP3    H270289   1.191   0.782   4.367 -0.4500 -0.4462 -0.2405
16292TIP3   OH270290   0.143   2.167  12.531  0.1881 -0.1416 -0.0240
16292TIP3    H170291   0.054   2.134  12.545 -0.6842  2.0533 -0.0972
16292TIP3    H270292   0.172   2.123  12.451 -1.3341  0.0528 -0.7193
16293TIP3   OH270293   4.720   0.770  16.549 -0.0722  0.4261  0.3101
16293TIP3    H170294   4.677   0.853  16.527 -0.2077  0.2189 -0.2225
16293TIP3    H270295   4.715   0.719  16.469 -0.4291 -0.2850  0.7767
16294TIP3   OH270296   3.427   3.737  15.762  0.8132  0.1836  0.1330
16294TIP3    H170297   3.342   3.761  15.798  0.8288 -1.3130  1.2859
16294TIP3    H270298   3.445   3.803  15.695 -1.0837  0.7225  0.1103
16295TIP3   OH270299   5.678   0.642  15.516  0.0468 -0.0598 -0.1780
16295TIP3    H170300   5.667   0.715  15.455 -0.1309  0.4853  0.4939
16295TIP3    H270301   5.618   0.661  15.588 -0.3693 -1.1333 -0.2262
16296TIP3   OH270302   3.515   3.078   2.776  0.0001  0.5848  0.2877
16296TIP3    H170303   3.506   2.987   2.749 -1.8312  0.8798 -0.2478
16296TIP3    H270304   3.600   3.082   2.818 -0.7654 -1.9123  2.3605
16297TIP3   OH270305   4.216   4.120   1.532  0.4484 -0.4649 -0.5829
16297TIP3    H170306   4.260   4.182   1.589 -2.2241  1.5265 -0.4684
16297TIP3    H270307   4.282   4.054   1.512  2.5876  0.8347  1.6643
16298TIP3   OH270308   6.306   5.844  11.417  0.0931 -0.4338 -0.2011
16298TIP3    H170309   6.238   5.828  11.352 -0.2312  0.4940 -0.1026
16298TIP3    H270310   6.267   5.813  11.499 -1.5991  2.9948  0.4890
16299TIP3   OH270311   3.965   1.543   4.021  0.2099  0.2110 -0.4579
16299TIP3    H170312   4.044   1.555   4.073 -0.7389  0.1963  1.0258
16299TIP3    H270313   3.923   1.465   4.058  0.4355 -0.9518 -2.4740
16300TIP3   OH270314   0.370   5.739   2.811  0.0599 -0.4204  0.4954
16300TIP3    H170315   0.417   5.695   2.740  1.1636 -1.4942  1.8366
16300TIP3    H270316   0.292   5.686   2.824  1.3239 -2.0116  2.0217
16301TIP3   OH270317   0.627   1.215  14.605  0.2534 -0.2158  0.1522
16301TIP3    H170318   0.549   1.256  14.643  0.2090 -1.0129  0.9613
16301TIP3    H270319   0.603   1.197  14.514 -1.1455 -1.9734  0.8130
16302TIP3   OH270320   2.610   3.171  12.298  0.2386 -0.5349 -0.1866
16302TIP3    H170321   2.699   3.138  12.295  0.5850  0.1416  1.3171
16302TIP3    H270322   2.617   3.264  12.277 -0.1553 -0.5375 -0.3522
16303TIP3   OH270323   5.557   2.677   3.268  0.5698 -0.0585 -0.3261
16303TIP3    H170324   5.600   2.757   3.299  1.1702 -0.0490 -1.1469
16303TIP3    H270325   5.528   2.697   3.179 -0.2440 -0.4025 -0.1445
16304TIP3   OH270326   5.631   0.431   1.466  0.0922 -0.4473 -0.1095
16304TIP3    H170327   5.653   0.339   1.477 -1.4521 -0.8748 -0.3745
16304TIP3    H270328   5.607   0.439   1.373  1.1382  0.4435 -0.3252
16305TIP3   OH270329   3.533   1.805   5.420  0.1390 -0.1974  0.4399
16305TIP3    H170330   3.574   1.872   5.366 -1.4144 -0.3409 -1.0099
16305TIP3    H270331   3.516   1.733   5.360 -0.6188 -0.8215  1.3772
16306TIP3   OH270332   1.129   1.542  16.149  0.7001  0.2016 -0.3150
16306TIP3    H170333   1.073   1.599  16.202 -0.9772 -2.5353  1.0790
16306TIP3    H270334   1.073   1.515  16.076  1.6058  0.5930 -1.1771
16307TIP3   OH270335   5.558   3.152  14.350 -0.6463 -0.5124  0.0842
16307TIP3    H170336   5.619   3.127  14.420 -2.6056  1.5626  2.7223
16307TIP3    H270337   5.506   3.073  14.334 -0.5938 -0.8424  1.4590
16308TIP3   OH270338   3.176   4.104  12.597 -0.0972  0.3196  0.2764
16308TIP3    H170339   3.107   4.076  12.656 -0.9108  0.7980 -0.4268
16308TIP3    H270340   3.211   4.184  12.636  0.8379 -0.5241  1.2164
16309TIP3   OH270341   3.024   4.697   0.462 -0.1923  0.1043 -0.2768
16309TIP3    H170342   2.976   4.775   0.490 -0.7841 -1.1088  2.4635
16309TIP3    H270343   2.960   4.626   0.469  1.0503 -1.0255  0.0287
16310TIP3   OH270344   3.214   6.236  16.188  0.4039  0.4078 -0.4587
16310TIP3    H170345   3.174   6.267  16.269  0.4903  0.7147 -0.5324
16310TIP3    H270346   3.189   6.301  16.123  1.0524  0.6186 -0.5001
16311TIP3   OH270347   4.802   3.283  15.822 -0.3937  0.0484 -0.0713
16311TIP3    H170348   4.798   3.248  15.733 -0.6543 -0.3831  0.1038
16311TIP3    H270349   4.864   3.355  15.818  0.9935 -1.1284 -0.2202
16312TIP3   OH270350   0.993   6.279   6.274  0.2175  0.1189 -0.3681
16312TIP3    H170351   0.928   6.237   6.219  0.9418  0.4731 -1.5440
16312TIP3    H270352   1.071   6.224   6.265 -0.1913 -0.9722  1.9513
16313TIP3   OH270353   2.947   3.018   5.072  0.3133 -0.4196  0.6538
16313TIP3    H170354   3.009   3.080   5.112 -0.6857  0.5636  0.7373
16313TIP3    H270355   3.003   2.948   5.037  1.7695  1.6175 -1.4710
16314TIP3   OH270356   1.841   1.968   0.583 -0.3624 -0.4020  0.6999
16314TIP3    H170357   1.852   1.964   0.488  0.4594  1.5862  0.6488
16314TIP3    H270358   1.922   1.930   0.618 -0.4236 -0.6225  0.6041
16315TIP3   OH270359   2.108   2.579  14.408  0.2398 -0.6280  0.2736
16315TIP3    H170360   2.070   2.638  14.473 -2.2704 -1.2236 -0.5632
16315TIP3    H270361   2.075   2.611  14.324  2.9241 -0.2431 -0.7306
16316TIP3   OH270362   3.118   1.692  10.702  0.1260  0.2767 -0.0795
16316TIP3    H170363   3.086   1.778  10.730  0.1412 -0.0228  0.9090
16316TIP3    H270364   3.097   1.634  10.775  0.6590 -0.4408 -0.4812
16317TIP3   OH270365   4.431   4.809  12.907  0.0221  0.1490  0.0118
16317TIP3    H170366   4.505   4.754  12.881 -0.4897  0.1248 -1.4614
16317TIP3    H270367   4.356   4.771  12.862 -0.9229  0.1459  1.5181
16318TIP3   OH270368   5.812   4.040   0.099  0.4566  0.2384  0.2827
16318TIP3    H170369   5.859   4.076   0.024 -0.3609 -0.9500 -0.8544
16318TIP3    H270370   5.857   3.957   0.118 -0.5431 -0.4285 -0.1875
16319TIP3   OH270371   4.577   5.276  16.206  0.5253  0.1907 -0.0351
16319TIP3    H170372   4.530   5.358  16.225 -1.2071 -1.0770  1.4670
16319TIP3    H270373   4.571   5.267  16.111 -4.2082 -0.8728  0.1307
16320TIP3   OH270374   6.551   1.850   5.420  0.2367  0.5771 -0.0196
16320TIP3    H170375   6.615   1.906   5.464 -0.9162  1.4375  0.6226
16320TIP3    H270376   6.568   1.864   5.326  0.1909  1.7727  0.1296
16321TIP3   OH270377   0.641   3.610  10.201  0.1273 -0.0029 -0.2704
16321TIP3    H170378   0.715   3.645  10.251 -0.4115  0.1771  0.4054
16321TIP3    H270379   0.576   3.588  10.267 -0.2901 -0.4890 -0.8414
16322TIP3   OH270380   5.965   5.145  14.643  0.1884 -0.1514 -0.1837
16322TIP3    H170381   5.909   5.093  14.585 -0.8579  1.7450 -0.9904
16322TIP3    H270382   5.917   5.227  14.654  2.4837  1.2892 -0.2962
16323TIP3   OH270383   3.700   6.295  11.018 -0.2570 -1.0412 -0.4587
16323TIP3    H170384   3.675   6.378  10.978  0.2859 -1.2114 -1.1756
16323TIP3    H270385   3.648   6.290  11.098  0.9916  0.8523  0.5579
16324TIP3   OH270386   1.531   5.068  16.234  0.0752 -0.4217 -0.3143
16324TIP3    H170387   1.596   5.000  16.251  1.1707  0.8835  1.0549
16324TIP3    H270388   1.475   5.068  16.311 -0.6397 -0.5561 -0.8295
16325TIP3   OH270389   0.454   0.212   5.988  0.3034  0.2311 -0.0881
16325TIP3    H170390   0.407   0.291   6.014  1.5321  1.7439 -2.1384
16325TIP3    H270391   0.531   0.244   5.941  2.3545 -2.1760  1.3860
16326TIP3   OH270392   4.947   2.612   6.008 -0.1140 -0.6512  0.4499
16326TIP3    H170393   5.031   2.591   6.047  2.3434  2.8436 -2.2848
16326TIP3    H270394   4.940   2.707   6.016 -2.0294 -0.3929 -2.5329
16327TIP3   OH270395   5.424   1.636  12.245  0.0987 -0.1175  0.0606
16327TIP3    H170396   5.445   1.582  12.169 -0.9633 -0.4620 -0.0055
16327TIP3    H270397   5.453   1.724  12.221  0.4370 -0.3654 -0.4494
16328TIP3   OH270398   3.377   4.973  12.487  0.2722 -0.1410  0.3812
16328TIP3    H170399   3.370   5.042  12.552  2.1092 -1.3713  1.9780
16328TIP3    H270400   3.426   5.012  12.415 -1.3850  1.0911 -0.1351
16329TIP3   OH270401   0.856   1.941  12.721  0.3459 -0.0473  0.2533
16329TIP3    H170402   0.916   1.957  12.794  2.5556  1.0717 -1.6663
16329TIP3    H270403   0.828   2.029  12.694 -2.3377 -0.5349  1.1139
16330TIP3   OH270404   6.467   4.350   4.876 -0.0551 -0.0196 -0.6356
16330TIP3    H170405   6.545   4.388   4.835  0.3854 -0.8377 -0.5730
16330TIP3    H270406   6.420   4.425   4.912  0.2630  0.5713 -1.4188
16331TIP3   OH270407   2.066   6.777   3.998  0.1658  0.7379  0.5268
16331TIP3    H170408   2.027   6.721   3.931 -0.3364  2.0675 -0.3290
16331TIP3    H270409   2.020   6.860   3.989  2.7382  2.2013 -0.1221
16332TIP3   OH270410   6.141   0.468   3.456 -0.5868  0.1950  0.2373
16332TIP3    H170411   6.050   0.438   3.451 -0.5756  0.2002  0.0202
16332TIP3    H270412   6.188   0.394   3.496 -0.2636 -0.7289 -1.7284
16333TIP3   OH270413   2.258   0.799   4.006  0.2998 -0.1917 -0.3842
16333TIP3    H170414   2.291   0.792   4.096  2.3185  0.4640 -1.0090
16333TIP3    H270415   2.246   0.709   3.977  0.7626 -0.4369  0.1753
16334TIP3   OH270416   5.780   2.378  12.659  0.7902 -0.1765  0.0346
16334TIP3    H170417   5.776   2.314  12.730 -1.1682  2.3649  2.4097
16334TIP3    H270418   5.851   2.437  12.685  0.3849  0.4991 -0.3795
16335TIP3   OH270419   0.489   2.359  12.409 -0.6171 -0.1203 -0.2407
16335TIP3    H170420   0.397   2.386  12.415 -0.1492  1.4239  0.3309
16335TIP3    H270421   0.538   2.427  12.456  0.7684 -1.2689  0.0696
16336TIP3   OH270422   1.368   0.741  13.181 -0.3065  0.0522 -0.3321
16336TIP3    H170423   1.441   0.788  13.141 -0.6042 -0.3757 -1.4310
16336TIP3    H270424   1.377   0.756  13.275  0.7481  0.6329 -0.5172
16337TIP3   OH270425   3.084   5.313  10.733  0.5176 -0.2849  0.3706
16337TIP3    H170426   3.131   5.303  10.816  1.6867 -1.2785 -0.3705
16337TIP3    H270427   3.105   5.401  10.703  0.7564 -0.2130  0.7458
16338TIP3   OH270428   6.147   6.157  14.727  0.2118 -0.4121  0.2207
16338TIP3    H170429   6.139   6.098  14.801  1.0195 -0.6105  0.1632
16338TIP3    H270430   6.059   6.162  14.690  0.0515 -1.2684  0.4655
16339TIP3   OH270431   5.228   5.768   1.157  0.6021 -0.1874  0.1113
16339TIP3    H170432   5.153   5.795   1.211 -0.0092 -1.1016 -0.2480
16339TIP3    H270433   5.192   5.702   1.097  1.2410  0.8486 -1.4830
16340TIP3   OH270434   2.036   5.501   5.678  0.5697  0.4329 -0.2247
16340TIP3    H170435   1.972   5.467   5.615  0.6488 -0.5058  0.1788
16340TIP3    H270436   2.074   5.422   5.717  0.8745  1.0031  0.6409
16341TIP3   OH270437   5.766   2.161  14.296  0.6121  0.0157  0.6629
16341TIP3    H170438   5.673   2.151  14.277  0.7710  0.7050 -0.6428
16341TIP3    H270439   5.810   2.126  14.218  1.4144  0.4891  0.8885
16342TIP3   OH270440   6.715   0.286   5.475  0.0660 -0.4561  0.1838
16342TIP3    H170441   6.726   0.374   5.438  1.2500 -0.5791  0.2116
16342TIP3    H270442   6.659   0.241   5.412  0.5797 -0.1026 -0.5384
16343TIP3   OH270443   2.876   1.751  14.166  0.4264 -0.2496 -0.3306
16343TIP3    H170444   2.962   1.713  14.182  1.3842  2.0023  0.2359
16343TIP3    H270445   2.868   1.822  14.230 -2.3183 -1.0107  0.3405
16344TIP3   OH270446   5.742   4.760  14.398 -0.1313 -0.5007 -0.4938
16344TIP3    H170447   5.654   4.737  14.370 -0.1808 -0.8582 -0.0672
16344TIP3    H270448   5.783   4.676  14.420  0.2903 -0.3329 -0.6158
16345TIP3   OH270449   4.991   3.082   1.905 -0.0444  0.2113 -0.0412
16345TIP3    H170450   5.073   3.084   1.856  0.1326  0.3529  0.2579
16345TIP3    H270451   4.977   2.990   1.926  0.0917  0.1996 -0.0035
16346TIP3   OH270452   4.650   1.852   0.090 -0.0915  0.3338  0.0460
16346TIP3    H170453   4.699   1.920   0.044  0.7703 -0.2112  0.1428
16346TIP3    H270454   4.675   1.863   0.182  1.8725 -1.5383 -0.1891
16347TIP3   OH270455   5.468   1.471  16.575 -0.2068 -0.3374 -0.3483
16347TIP3    H170456   5.490   1.403  16.511 -1.8197 -1.8166  0.5921
16347TIP3    H270457   5.506   1.439  16.657 -0.3551  0.2584 -0.0474
16348TIP3   OH270458   1.975   1.165   2.138  0.2388  0.5412  0.7929
16348TIP3    H170459   2.052   1.116   2.170 -1.0948  0.5023  4.3923
16348TIP3    H270460   1.973   1.244   2.192 -0.1211  2.5854 -1.9839
16349TIP3   OH270461   0.917   5.087  10.886  0.4186 -0.1580  0.2566
16349TIP3    H170462   0.999   5.048  10.915  1.1030  0.0599 -1.2820
16349TIP3    H270463   0.901   5.048  10.800 -0.6077  0.4923  0.1378
16350TIP3   OH270464   2.746   4.383  15.040  0.1286 -0.0200 -0.1454
16350TIP3    H170465   2.809   4.315  15.064 -0.6498 -1.1322 -1.1314
16350TIP3    H270466   2.801   4.456  15.009  0.9602 -0.5038  0.1538
16351TIP3   OH270467   6.185   6.229  12.304 -0.1114 -0.0671 -0.0085
16351TIP3    H170468   6.206   6.299  12.242  3.4326 -1.7477 -0.9502
16351TIP3    H270469   6.168   6.152  12.249 -2.3034 -0.4285  1.0556
16352TIP3   OH270470   6.420   5.834   2.316  0.5788 -0.0571  0.6695
16352TIP3    H170471   6.503   5.868   2.352 -0.6634  1.5016  2.2311
16352TIP3    H270472   6.397   5.895   2.247 -0.2455  0.7283  1.6029
16353TIP3   OH270473   3.084   2.857  11.690  0.1113  0.0316 -0.1236
16353TIP3    H170474   3.103   2.767  11.663 -1.3651 -0.7641  1.2852
16353TIP3    H270475   3.170   2.899  11.694  0.7700 -1.0948 -1.5001
16354TIP3   OH270476   4.661   5.998  12.249 -0.0751  0.2129  0.1253
16354TIP3    H170477   4.663   5.924  12.310  0.5287 -0.1673 -0.3403
16354TIP3    H270478   4.572   5.997  12.213  0.2133 -0.8903 -0.5888
16355TIP3   OH270479   0.869   3.297  11.448 -0.4885  0.4394  0.2148
16355TIP3    H170480   0.917   3.375  11.422  0.4884 -0.6404 -1.4325
16355TIP3    H270481   0.799   3.289  11.383 -0.1456 -0.4010 -0.0764
16356TIP3   OH270482   0.215   0.086   0.297 -0.4507 -0.2730 -0.0689
16356TIP3    H170483   0.229  -0.006   0.275  0.4066 -0.0030 -0.6890
16356TIP3    H270484   0.302   0.120   0.315 -0.8263  0.2764  0.7715
16357TIP3   OH270485   6.614   3.579  15.249  0.1053  0.9965  0.1246
16357TIP3    H170486   6.693   3.526  15.261 -0.7967 -0.8553 -1.5069
16357TIP3    H270487   6.592   3.569  15.157 -0.5484  3.7249 -0.0945
16358TIP3   OH270488   3.262   0.377  14.843 -0.1496  0.5862 -0.3076
16358TIP3    H170489   3.353   0.396  14.820  0.3197 -1.6496 -0.5481
16358TIP3    H270490   3.219   0.361  14.758  0.0162 -1.3297 -0.0815
16359TIP3   OH270491   4.272   3.255  10.732  0.6022 -0.7636 -0.5941
16359TIP3    H170492   4.278   3.171  10.779  2.1238 -0.0153  0.6290
16359TIP3    H270493   4.180   3.263  10.709 -0.2709 -1.1148  2.4299
16360TIP3   OH270494   3.508   6.709   0.292 -0.0366 -0.1451  0.2788
16360TIP3    H170495   3.462   6.631   0.323  1.7881 -0.7502  1.6509
16360TIP3    H270496   3.589   6.676   0.254  0.6913  1.0707  0.7228
16361TIP3   OH270497   0.601   0.925   6.715  0.5339  0.1283  0.2472
16361TIP3    H170498   0.511   0.919   6.684  0.3203 -0.1962  0.9295
16361TIP3    H270499   0.615   0.845   6.765  1.3553 -0.0421 -0.2389
16362TIP3   OH270500   3.400   5.892  15.262  0.0823 -0.2694  0.1922
16362TIP3    H170501   3.459   5.966  15.273  0.2051 -0.5219  1.3077
16362TIP3    H270502   3.454   5.815  15.280 -0.4469 -0.5289  0.7041
16363TIP3   OH270503   4.792   2.720   4.337  0.1036  0.1355 -0.7200
16363TIP3    H170504   4.792   2.807   4.298 -0.5891 -0.4852 -2.2247
16363TIP3    H270505   4.860   2.672   4.289  0.0558 -0.3222 -0.3432
16364TIP3   OH270506   6.376   2.160   5.163 -0.2175  0.4154 -0.0806
16364TIP3    H170507   6.293   2.206   5.147 -1.3283 -1.5870 -0.3661
16364TIP3    H270508   6.371   2.135   5.256 -0.5482 -0.8015 -0.4080
16365TIP3   OH270509   5.687   6.069   3.215  0.0323 -0.1471 -0.2570
16365TIP3    H170510   5.702   6.150   3.167 -0.6219  0.4710  0.5440
16365TIP3    H270511   5.593   6.068   3.233  0.4582  0.5894  2.5537
16366TIP3   OH270512   0.423   1.836  15.283  0.5691 -0.0225 -0.2090
16366TIP3    H170513   0.491   1.798  15.338 -0.4078 -0.6618  0.6087
16366TIP3    H270514   0.382   1.761  15.240 -0.0807  0.2756 -0.1270
16367TIP3   OH270515   5.226   0.834   0.217  0.3561  0.1325 -0.2999
16367TIP3    H170516   5.301   0.879   0.254  0.5612  0.4628 -1.0852
16367TIP3    H270517   5.159   0.902   0.208 -0.3831 -0.3424  1.2499
16368TIP3   OH270518   6.739   3.379  16.863  0.3382  0.5590 -0.2400
16368TIP3    H170519   6.788   3.459  16.884  0.1493  0.6326 -0.0737
16368TIP3    H270520   6.784   3.342  16.787  0.8326  0.4639  0.0944
16369TIP3   OH270521   2.404   3.716   2.574 -0.2234 -0.1281 -0.0296
16369TIP3    H170522   2.458   3.735   2.651 -0.2185  0.7253 -0.2355
16369TIP3    H270523   2.451   3.646   2.528  0.2733  0.0333  0.2311
16370TIP3   OH270524   5.698   0.579  16.855 -0.0795  0.2403 -0.0455
16370TIP3    H170525   5.749   0.623  16.786 -1.4962  3.2669  0.6567
16370TIP3    H270526   5.609   0.614  16.845 -0.4744  0.3275  2.8743
16371TIP3   OH270527   2.467   0.139  16.825  0.1954 -0.2761  0.6302
16371TIP3    H170528   2.548   0.133  16.876  1.7316 -0.0470 -1.6338
16371TIP3    H270529   2.404   0.086  16.874  1.0439  1.1705  3.5521
16372TIP3   OH270530   4.307   5.755   0.397  0.0984 -0.2774  0.0661
16372TIP3    H170531   4.312   5.676   0.343  2.4399 -0.4548  0.4293
16372TIP3    H270532   4.244   5.811   0.352  0.7127 -1.1107 -1.9337
16373TIP3   OH270533   2.343   3.929  17.034 -0.3783 -0.2961  0.0262
16373TIP3    H170534   2.310   4.000  16.980  0.2761 -0.6002 -0.7989
16373TIP3    H270535   2.265   3.889  17.072 -0.8910 -0.3398 -1.0351
16374TIP3   OH270536   4.712   2.872  13.324 -0.4309 -0.1419 -0.1472
16374TIP3    H170537   4.772   2.921  13.268  0.2974 -0.0181  0.7068
16374TIP3    H270538   4.633   2.862  13.272  0.4098 -0.5201 -1.4076
16375TIP3   OH270539   2.563   0.020  11.522  0.4972  0.1836 -0.1589
16375TIP3    H170540   2.632   0.078  11.553 -1.4343  2.9994 -0.7444
16375TIP3    H270541   2.582   0.008  11.429  0.2882  0.8217 -0.2844
16376TIP3   OH270542   5.796   4.970  13.409 -0.1843  0.5730  0.2902
16376TIP3    H170543   5.849   5.040  13.372 -0.0025  0.4237  0.2648
16376TIP3    H270544   5.860   4.905  13.438 -0.3343  0.6209  0.7255
16377TIP3   OH270545   1.058   4.585  11.416  0.1120 -0.3619 -0.2928
16377TIP3    H170546   0.999   4.534  11.472  0.7547  0.7981  1.5398
16377TIP3    H270547   1.100   4.520  11.359 -0.4505 -1.6287  0.6833
16378TIP3   OH270548   4.988   0.966   4.234 -0.1042 -0.6837  0.0489
16378TIP3    H170549   4.934   0.910   4.178  0.4710  0.1977 -1.4490
16378TIP3    H270550   4.925   1.019   4.282 -0.6549  0.4403 -1.7939
16379TIP3   OH270551   0.271   5.205  11.770 -0.5003 -0.8120 -0.5624
16379TIP3    H170552   0.176   5.217  11.764 -0.5505 -1.1219 -0.4129
16379TIP3    H270553   0.282   5.111  11.783 -0.2574 -0.5705  1.2752
16380TIP3   OH270554   2.597   4.837  10.206  0.0024 -0.1622 -0.4127
16380TIP3    H170555   2.514   4.789  10.216 -0.5324  0.6764 -0.6534
16380TIP3    H270556   2.577   4.925  10.238  1.0821 -0.2046  0.4300
16381TIP3   OH270557   5.111   6.353  13.559  0.3678  0.5033 -0.4793
16381TIP3    H170558   5.062   6.381  13.637 -0.3646 -0.9947 -0.3731
16381TIP3    H270559   5.111   6.430  13.502 -0.9584  0.9474  0.0881
16382TIP3   OH270560   4.777   0.009   0.529 -0.2004 -0.4380 -0.3067
16382TIP3    H170561   4.794   0.102   0.547  0.0569 -0.4006 -0.7188
16382TIP3    H270562   4.686   0.007   0.498 -0.0348 -0.2457 -0.8182
16383TIP3   OH270563   0.479   5.526  13.632  0.7546  0.4579 -0.2004
16383TIP3    H170564   0.472   5.490  13.720  0.4073  0.4622 -0.2236
16383TIP3    H270565   0.514   5.614  13.645 -0.9849  1.1494  0.1075
16384TIP3   OH270566   1.420   2.487  10.927 -0.0757  0.0067 -0.1340
16384TIP3    H170567   1.334   2.445  10.931 -0.0389 -0.1006 -0.4131
16384TIP3    H270568   1.468   2.451  11.001  0.6986 -2.1335 -1.5712
16385TIP3   OH270569   0.409   5.508  15.824  1.0062  0.2799  0.3563
16385TIP3    H170570   0.464   5.481  15.898 -1.1282  0.7239  2.1975
16385TIP3    H270571   0.334   5.449  15.828  0.5041  0.8080 -1.0172
16386TIP3   OH270572   0.517   4.860   3.416  0.1342 -0.0462 -0.6719
16386TIP3    H170573   0.589   4.811   3.376 -0.3476  0.0885 -1.7424
16386TIP3    H270574   0.554   4.947   3.433  1.0043 -0.7259  1.2721
16387TIP3   OH270575   1.379   1.422   3.916  0.0844  0.1843 -0.5873
16387TIP3    H170576   1.463   1.398   3.876  1.5260  0.3586  2.0904
16387TIP3    H270577   1.363   1.512   3.886  0.0989 -0.3197 -2.2051
16388TIP3   OH270578   5.419   3.815   0.800 -0.3994 -0.1363 -0.2283
16388TIP3    H170579   5.364   3.740   0.823 -0.1355 -0.8800 -1.8892
16388TIP3    H270580   5.360   3.891   0.803 -0.6388 -0.3490  1.5946
16389TIP3   OH270581   1.428   2.799   1.444  0.1062 -0.6634  0.2544
16389TIP3    H170582   1.334   2.789   1.425  0.0294  0.2929  0.0550
16389TIP3    H270583   1.462   2.849   1.369  0.9384 -1.6380 -0.0451
16390TIP3   OH270584   1.805   6.083  13.623  0.0759 -0.5476 -0.0145
16390TIP3    H170585   1.819   6.164  13.672  0.7130  0.2633 -1.4694
16390TIP3    H270586   1.859   6.018  13.668  0.3139  0.0560  0.5993
16391TIP3   OH270587   6.320   5.958  13.819 -0.0653  0.6760 -0.2381
16391TIP3    H170588   6.333   5.928  13.909  1.1661  2.0454  0.0673
16391TIP3    H270589   6.372   5.898  13.765  2.6525  2.2903  0.3964
16392TIP3   OH270590   6.603   6.373   2.199  0.5938 -0.2613 -0.1490
16392TIP3    H170591   6.619   6.333   2.285  2.2160  0.6782  0.0332
16392TIP3    H270592   6.546   6.448   2.218 -1.0503 -1.4308 -0.2620
16393TIP3   OH270593   1.360   0.206  12.282 -0.3304 -0.0813 -0.3351
16393TIP3    H170594   1.441   0.252  12.300 -0.2764  0.5406 -2.0205
16393TIP3    H270595   1.384   0.139  12.217 -0.3890 -2.6112  2.0547
16394TIP3   OH270596   0.223   0.732   4.353  0.0357 -0.1736 -0.3367
16394TIP3    H170597   0.132   0.704   4.349  0.0338 -0.5019  1.3486
16394TIP3    H270598   0.273   0.651   4.356  0.5247 -0.0304 -2.6742
16395TIP3   OH270599   1.982   4.139  13.479 -0.1395  0.5193 -0.2298
16395TIP3    H170600   2.036   4.080  13.531 -0.7828 -1.1450 -1.3483
16395TIP3    H270601   2.043   4.206  13.446  0.6424  0.3920  0.9173
16396TIP3   OH270602   3.367   2.221  13.744  0.3423  0.8149  0.2102
16396TIP3    H170603   3.405   2.284  13.683  1.1877  0.8861  0.7903
16396TIP3    H270604   3.289   2.265  13.778  0.2778  1.0713 -0.2611
16397TIP3   OH270605   5.710   0.897   1.049  0.3162  0.9383 -0.0159
16397TIP3    H170606   5.731   0.932   1.135  1.0194  1.2626 -0.3101
16397TIP3    H270607   5.784   0.840   1.027  0.7705  1.8342 -0.9229
16398TIP3   OH270608   1.105   5.642  14.903 -0.0415  0.0270 -0.0645
16398TIP3    H170609   1.079   5.720  14.952  1.2786 -0.5924  1.7051
16398TIP3    H270610   1.129   5.675  14.816 -2.0515  1.1950 -0.2369
16399TIP3   OH270611   5.660   5.038   2.361 -0.1108  0.3108 -0.0282
16399TIP3    H170612   5.678   4.952   2.324  0.0465  0.1194  0.4843
16399TIP3    H270613   5.733   5.092   2.331 -0.5991  0.4682 -0.9782
16400TIP3   OH270614   4.350   0.987  12.426 -0.3102  0.4460 -0.9760
16400TIP3    H170615   4.286   1.028  12.484  1.8422  0.8539  1.2900
16400TIP3    H270616   4.377   1.057  12.367 -1.3955  0.4430 -1.5099
16401TIP3   OH270617   4.424   1.505  16.282  0.4612  0.1040 -0.2600
16401TIP3    H170618   4.388   1.555  16.209 -0.1995  0.9149  0.5956
16401TIP3    H270619   4.377   1.538  16.359  0.9540 -0.9122  0.4979
16402TIP3   OH270620   5.786   4.448   5.898  0.0158 -0.8580  0.2203
16402TIP3    H170621   5.861   4.412   5.947  0.2687  0.1029  0.5482
16402TIP3    H270622   5.762   4.378   5.838  3.2746 -0.0747 -2.2775
16403TIP3   OH270623   0.931   5.018   5.907  0.3944 -0.5323 -0.3813
16403TIP3    H170624   0.976   5.041   5.988 -1.4526 -2.3018  1.2537
16403TIP3    H270625   0.889   5.099   5.880  1.5955  0.2578 -0.0015
16404TIP3   OH270626   1.477   1.502  14.378 -0.1324  0.1053  0.8118
16404TIP3    H170627   1.384   1.487  14.361  0.2220 -0.4531 -0.8028
16404TIP3    H270628   1.486   1.491  14.473 -1.6980  0.1418  0.9857
16405TIP3   OH270629   2.576   0.099   2.301  0.0689  0.2028 -0.2033
16405TIP3    H170630   2.551   0.007   2.295 -0.5934  0.2528  1.3596
16405TIP3    H270631   2.610   0.120   2.214 -1.6346 -0.9590 -1.2011
16406TIP3   OH270632   0.015   6.355  11.276  0.1938 -1.1380  0.6998
16406TIP3    H170633  -0.040   6.279  11.294  1.2622 -1.8920  0.8563
16406TIP3    H270634   0.073   6.328  11.205 -0.8444  0.2722 -0.7640
16407TIP3   OH270635   6.275   1.362  15.510 -0.0706 -0.3925  0.5461
16407TIP3    H170636   6.352   1.389  15.561  0.2389  1.6255 -0.8551
16407TIP3    H270637   6.310   1.303  15.444  0.2761  0.3798  0.0242
16408TIP3   OH270638   6.375   6.170   0.115 -0.2303  0.4071  0.3924
16408TIP3    H170639   6.310   6.239   0.100 -0.2345  0.5316  0.9480
16408TIP3    H270640   6.444   6.213   0.165  0.8251  0.5523 -1.1359
16409TIP3   OH270641   4.106   2.945  12.769  0.2988  0.2113 -0.3341
16409TIP3    H170642   4.116   2.978  12.680  0.8316  0.8734 -0.0425
16409TIP3    H270643   4.148   2.859  12.768 -0.3753 -0.1220 -0.9024
16410TIP3   OH270644   3.175   2.676   6.051  0.7425  0.1929 -0.0291
16410TIP3    H170645   3.125   2.754   6.027  1.6081  0.4355 -1.1116
16410TIP3    H270646   3.138   2.606   5.996  1.2882  0.2770 -0.5059
16411TIP3   OH270647   2.780   0.064  15.150 -0.4611 -0.3595  0.0786
16411TIP3    H170648   2.875   0.064  15.165 -0.1718  1.7808 -1.3154
16411TIP3    H270649   2.745   0.118  15.221 -0.2149  1.3987 -1.0501
16412TIP3   OH270650   1.671   0.978  12.326 -0.0047 -0.0376  0.4207
16412TIP3    H170651   1.725   0.903  12.301 -1.4157 -1.2525  0.8709
16412TIP3    H270652   1.712   1.011  12.406  0.4315 -0.5586  0.4217
16413TIP3   OH270653   1.442   5.048   3.782 -0.0745 -0.0925  0.0765
16413TIP3    H170654   1.421   4.956   3.765 -1.3043 -0.0931  1.4170
16413TIP3    H270655   1.526   5.045   3.828 -0.7814 -0.6639  1.3602
16414TIP3   OH270656   2.670   0.578   1.098  0.1935 -0.4809  0.6533
16414TIP3    H170657   2.650   0.578   1.004 -2.2033 -1.7829  1.0613
16414TIP3    H270658   2.635   0.662   1.129  4.7555  2.0108 -0.1157
16415TIP3   OH270659   3.035   1.171  15.926  0.2265 -0.0091  0.1759
16415TIP3    H170660   2.958   1.203  15.974 -0.8138  0.4960 -1.7280
16415TIP3    H270661   3.108   1.224  15.959 -0.8850  2.0856 -0.5240
16416TIP3   OH270662   3.770   4.950   4.321  0.1805 -0.4345 -0.6252
16416TIP3    H170663   3.737   4.861   4.328 -0.0744 -0.2427  0.9996
16416TIP3    H270664   3.765   4.970   4.228 -0.8924 -1.6855 -0.8674
16417TIP3   OH270665   4.679   5.773   2.968  0.0504  0.0952  0.3188
16417TIP3    H170666   4.618   5.844   2.954  1.6701  1.3625 -0.6570
16417TIP3    H270667   4.676   5.722   2.887 -0.0383 -0.1193  0.4541
16418TIP3   OH270668   2.985   3.627  11.943 -0.3157 -0.6602  0.2287
16418TIP3    H170669   2.906   3.656  11.988 -0.5288 -0.8449 -0.0204
16418TIP3    H270670   3.052   3.623  12.012 -0.8152 -1.6393  0.6766
16419TIP3   OH270671   4.166   1.386  12.459 -0.5209 -0.0911 -0.2989
16419TIP3    H170672   4.151   1.318  12.392 -0.1900  1.4181 -1.9859
16419TIP3    H270673   4.216   1.453  12.413  0.7441  0.5005  1.8295
16420TIP3   OH270674   4.785   1.211   3.306 -0.3176 -0.2382 -0.0347
16420TIP3    H170675   4.788   1.129   3.256 -1.3935  1.3930 -3.0341
16420TIP3    H270676   4.727   1.191   3.379 -1.3850 -1.9181 -1.2435
16421TIP3   OH270677   4.943   2.290  11.965 -0.2240 -0.3326  0.1921
16421TIP3    H170678   5.010   2.242  12.013 -0.4266  0.0669  0.8764
16421TIP3    H270679   4.911   2.227  11.900  1.0302 -0.4293 -0.3611
16422TIP3   OH270680   4.656   2.742  15.977  0.8228 -0.5712  0.1147
16422TIP3    H170681   4.582   2.715  15.923  0.5038  0.0827  0.2271
16422TIP3    H270682   4.701   2.660  15.998  0.3035 -0.9390 -0.1990
16423TIP3   OH270683   2.225   4.619   0.231 -0.0060  0.5263 -0.5776
16423TIP3    H170684   2.309   4.656   0.207 -0.2415  1.5127  0.0698
16423TIP3    H270685   2.174   4.693   0.263 -0.5288 -0.3365  0.6527
16424TIP3   OH270686   0.183   0.723   1.339  0.3358  0.0404  0.2723
16424TIP3    H170687   0.238   0.802   1.334 -0.8965  0.9546  0.7173
16424TIP3    H270688   0.186   0.686   1.250 -0.2118  1.3984 -0.3414
16425TIP3   OH270689   2.621   4.394   4.041 -0.1147  0.3489  0.1877
16425TIP3    H170690   2.532   4.366   4.064  0.5358 -2.3411 -0.2436
16425TIP3    H270691   2.668   4.312   4.025  1.3249  1.7575 -3.8523
16426TIP3   OH270692   0.053   0.524  15.849 -0.5292  0.2783  0.1730
16426TIP3    H170693  -0.004   0.601  15.849 -0.3280  0.4575 -1.1064
16426TIP3    H270694   0.142   0.559  15.843 -0.3668 -0.0290  0.7367
16427TIP3   OH270695   6.664   3.144  14.227 -0.6517  0.2871 -0.1166
16427TIP3    H170696   6.744   3.168  14.274  0.0876 -1.8117 -0.2373
16427TIP3    H270697   6.633   3.065  14.271 -2.3268  0.6855 -0.5057
16428TIP3   OH270698   2.376   4.397  16.587 -0.4214 -0.3727 -0.0127
16428TIP3    H170699   2.412   4.310  16.602  1.3781  0.2001 -0.6629
16428TIP3    H270700   2.364   4.433  16.675 -0.4597 -1.0098  0.2487
16429TIP3   OH270701   4.086   2.673  17.218 -0.3459  0.0508 -0.1411
16429TIP3    H170702   4.145   2.742  17.187  0.3824 -0.1434  0.7420
16429TIP3    H270703   4.082   2.611  17.146  1.0933 -0.2598  0.0136
16430TIP3   OH270704   3.592   2.819  13.092 -0.9018 -0.2026 -0.2878
16430TIP3    H170705   3.683   2.843  13.072 -1.2159  0.4085 -1.0344
16430TIP3    H270706   3.546   2.831  13.010 -1.6216 -0.7240  0.0380
16431TIP3   OH270707   1.382   6.681   0.764 -0.5672 -0.1561 -0.2826
16431TIP3    H170708   1.296   6.706   0.797 -0.9520 -1.0930 -0.5451
16431TIP3    H270709   1.439   6.753   0.789 -1.0998 -0.2618  1.3339
16432TIP3   OH270710   3.519   2.483  12.439 -0.3439  0.5073 -0.4458
16432TIP3    H170711   3.444   2.437  12.403  0.3522 -0.5063 -0.6427
16432TIP3    H270712   3.576   2.499  12.364 -0.9961  2.5872 -0.5532
16433TIP3   OH270713   6.728   6.202  14.723  0.1550 -0.3681 -0.3108
16433TIP3    H170714   6.674   6.184  14.800  0.7630 -0.3182  0.1382
16433TIP3    H270715   6.768   6.117  14.702  0.3344 -0.2890 -0.2952
16434TIP3   OH270716   3.916   0.418   1.730 -0.0432 -0.6521  0.0515
16434TIP3    H170717   3.913   0.360   1.653 -1.9246 -0.9662  0.3061
16434TIP3    H270718   3.846   0.386   1.787 -1.7061  2.2944 -0.1276
16435TIP3   OH270719   6.773   3.253   0.323 -0.1363 -0.3782  0.1426
16435TIP3    H170720   6.720   3.225   0.397  0.4702  0.6470  0.9930
16435TIP3    H270721   6.759   3.186   0.256  1.3199 -2.7876  2.1085
16436TIP3   OH270722   1.735   3.601   1.772  0.1817 -0.7544  0.1248
16436TIP3    H170723   1.735   3.538   1.844  0.1734 -1.4745 -0.4928
16436TIP3    H270724   1.662   3.659   1.792  1.0296 -0.0872  1.4120
16437TIP3   OH270725   3.399   1.958  13.722  0.1756 -0.4198 -0.0447
16437TIP3    H170726   3.410   2.053  13.726 -0.2306 -0.4038  2.3514
16437TIP3    H270727   3.486   1.923  13.743 -0.1786 -0.5136  1.3603
16438TIP3   OH270728   6.700   0.701  15.482  0.2856  0.0180  0.3772
16438TIP3    H170729   6.650   0.657  15.551 -1.6744  1.6739  0.0871
16438TIP3    H270730   6.714   0.790  15.515  0.2324  0.5333 -0.9291
16439TIP3   OH270731   6.609   4.246   5.769  0.6010 -0.3378 -0.5491
16439TIP3    H170732   6.545   4.178   5.754 -0.7289  0.7213  0.0962
16439TIP3    H270733   6.585   4.285   5.853  0.5763  1.6759 -1.4093
16440TIP3   OH270734   5.539   6.145   2.027  0.1304 -0.6166 -0.2685
16440TIP3    H170735   5.634   6.130   2.025  0.0938 -1.3214  1.3681
16440TIP3    H270736   5.527   6.227   1.980  1.5264 -0.6503 -0.7372
16441TIP3   OH270737   5.501   3.431   5.491  0.8649 -0.4559  0.6365
16441TIP3    H170738   5.468   3.388   5.570 -1.2219 -0.5998 -0.2253
16441TIP3    H270739   5.428   3.487   5.462  1.3180 -0.8671 -1.5022
16442TIP3   OH270740   3.810   1.935   3.781  0.6938 -0.0845 -0.5164
16442TIP3    H170741   3.824   1.916   3.874 -1.4204  0.9904  0.0849
16442TIP3    H270742   3.893   1.973   3.752  1.3982 -0.4653  0.9213
16443TIP3   OH270743   1.621   0.435  14.247 -0.2477 -0.7429 -0.5622
16443TIP3    H170744   1.583   0.365  14.194 -0.3844 -1.4636  0.4550
16443TIP3    H270745   1.571   0.433  14.329 -1.4526  1.7030 -1.1392
16444TIP3   OH270746   1.768   5.774  13.750  0.0736 -0.3219  0.1533
16444TIP3    H170747   1.735   5.818  13.672 -0.3197  0.5958  0.8178
16444TIP3    H270748   1.838   5.831  13.782  1.1255 -1.3546 -0.2413
16445TIP3   OH270749   4.419   0.880   2.767 -0.0647 -0.1399 -0.2240
16445TIP3    H170750   4.499   0.839   2.734  0.6695  0.0869  1.1895
16445TIP3    H270751   4.392   0.823   2.839 -1.6837 -0.6930 -1.2237
16446TIP3   OH270752   1.457   5.026   4.424  0.7257  0.3166 -0.1062
16446TIP3    H170753   1.386   4.987   4.476  0.6405 -0.7138 -0.9376
16446TIP3    H270754   1.420   5.031   4.335  1.1446  1.2760 -0.2360
16447TIP3   OH270755   4.157   0.648   2.767  0.3814  0.2778 -0.2321
16447TIP3    H170756   4.172   0.671   2.858 -0.1030 -0.4696  0.0423
16447TIP3    H270757   4.245   0.628   2.733  0.6069  0.9164 -0.0426
16448TIP3   OH270758   5.670   4.093  15.504  0.4235 -0.3226 -0.1491
16448TIP3    H170759   5.687   4.009  15.461  1.6367 -0.5995  0.7915
16448TIP3    H270760   5.644   4.069  15.593 -2.2197  0.2359 -0.6918
16449TIP3   OH270761   4.667   3.454   6.551  0.3664  0.0364  0.5401
16449TIP3    H170762   4.630   3.445   6.463  1.4204 -0.1524  0.0991
16449TIP3    H270763   4.592   3.443   6.610 -0.3579  0.1921 -0.3277
16450TIP3   OH270764   4.951   1.067   2.462  0.2963  0.2732  0.2101
16450TIP3    H170765   4.971   1.076   2.369  1.3006 -0.3078  0.3541
16450TIP3    H270766   5.034   1.087   2.506  0.5889 -2.1208  0.8552
16451TIP3   OH270767   3.863   3.558   6.099 -0.3073 -0.3791  0.6957
16451TIP3    H170768   3.807   3.630   6.069 -1.4551 -1.3316  0.4796
16451TIP3    H270769   3.802   3.495   6.138  0.3574 -2.2593 -1.1233
16452TIP3   OH270770   2.393   0.446  16.326 -0.1838 -0.2702 -1.2321
16452TIP3    H170771   2.405   0.509  16.396 -1.3665 -0.2700 -0.9977
16452TIP3    H270772   2.480   0.410  16.309 -0.0450 -1.2356  1.1400
16453TIP3   OH270773   6.171   5.771  16.259  0.2618  0.4275 -0.4925
16453TIP3    H170774   6.177   5.734  16.171 -0.0239  0.8932 -0.7092
16453TIP3    H270775   6.112   5.845  16.250 -1.4464 -0.7544  0.4979
16454TIP3   OH270776   3.192   4.679   0.738 -0.0986 -0.1751 -0.0153
16454TIP3    H170777   3.164   4.644   0.823  0.7564  2.0151  1.2533
16454TIP3    H270778   3.145   4.761   0.729 -0.7888 -0.7234 -2.1131
16455TIP3   OH270779   1.684   1.776   2.618  0.5663  0.7056  0.0219
16455TIP3    H170780   1.655   1.736   2.700 -0.0132  1.6709  0.3109
16455TIP3    H270781   1.763   1.728   2.594 -0.7591 -1.4651 -0.3454
16456TIP3   OH270782   4.629   2.719   3.070  0.6601  0.1711 -0.1033
16456TIP3    H170783   4.696   2.784   3.051  1.9426 -1.0245  0.2061
16456TIP3    H270784   4.560   2.769   3.114  1.6419  1.3205  0.1978
16457TIP3   OH270785   0.355   1.856  14.267  0.9346 -0.1316  0.0468
16457TIP3    H170786   0.378   1.941  14.304 -0.4007  0.1744  0.2368
16457TIP3    H270787   0.437   1.807  14.263  1.4876  0.6916  1.1628
16458TIP3   OH270788   6.026   4.545  15.077  0.4693 -0.0555 -0.0751
16458TIP3    H170789   6.075   4.483  15.130  0.1379  0.1945  0.5296
16458TIP3    H270790   6.090   4.613  15.056  1.0003 -0.8884 -1.2590
16459TIP3   OH270791   0.652   4.473  15.914  0.0339 -0.0923 -0.2157
16459TIP3    H170792   0.685   4.533  15.847  1.4943 -0.8692 -0.2280
16459TIP3    H270793   0.619   4.531  15.983 -1.0433  0.7144 -1.3632
16460TIP3   OH270794   0.285   4.502   0.188 -0.2180  0.0018  0.2304
16460TIP3    H170795   0.229   4.511   0.111  1.7397 -1.6485 -1.5229
16460TIP3    H270796   0.225   4.484   0.260 -2.0962  1.2935 -0.9320
16461TIP3   OH270797   3.704   3.725   1.854  0.3155  0.0998  0.0546
16461TIP3    H170798   3.778   3.667   1.835  0.8808  0.7122  0.3377
16461TIP3    H270799   3.679   3.760   1.768  0.5521  0.1228 -0.0071
16462TIP3   OH270800   1.743   5.315  15.793 -0.1637  0.4839 -0.1574
16462TIP3    H170801   1.654   5.280  15.792  0.2340 -0.5458  0.0275
16462TIP3    H270802   1.737   5.392  15.850 -0.8683  0.2528  0.0916
16463TIP3   OH270803   4.744   4.917   0.334  0.0175 -0.1339  0.6150
16463TIP3    H170804   4.817   4.931   0.394  1.3676 -0.1689 -0.9383
16463TIP3    H270805   4.734   4.822   0.330 -0.7124 -0.1047  1.4866
16464TIP3   OH270806   2.497   6.130   3.656 -0.2907  0.1143 -0.1881
16464TIP3    H170807   2.478   6.048   3.701 -1.6599  0.7554  0.4636
16464TIP3    H270808   2.592   6.140   3.664  0.4410 -2.9301 -3.0249
16465TIP3   OH270809   0.840   6.353   3.611 -0.6004 -0.6468 -0.2471
16465TIP3    H170810   0.748   6.324   3.617 -0.6062 -0.8820 -1.2757
16465TIP3    H270811   0.889   6.273   3.596 -0.2410 -0.4895  0.0674
16466TIP3   OH270812   6.769   0.196  13.365  0.0644  0.3721  0.0501
16466TIP3    H170813   6.810   0.181  13.450  0.0586  1.4212  0.2472
16466TIP3    H270814   6.792   0.118  13.314  1.0021  0.2301  0.6560
16467TIP3   OH270815   5.172   2.744   1.290 -0.5478  0.0571 -0.0313
16467TIP3    H170816   5.110   2.767   1.221 -1.2933  0.2555  0.6903
16467TIP3    H270817   5.214   2.827   1.313  0.4110 -0.1630 -0.8994
16468TIP3   OH270818   0.738   3.556   0.620 -0.5574 -0.7188 -0.3256
16468TIP3    H170819   0.701   3.628   0.569 -2.0661 -0.9869  0.3235
16468TIP3    H270820   0.739   3.482   0.558  0.6391 -0.2737 -0.8774
16469TIP3   OH270821   0.365   4.081   6.590  0.1982 -0.2362 -0.4024
16469TIP3    H170822   0.426   4.037   6.650 -0.1293 -0.5408 -0.2896
16469TIP3    H270823   0.420   4.109   6.517  0.6956  0.5459  0.2404
16470TIP3   OH270824   0.326   5.399   1.523 -0.1708 -0.2652  0.5069
16470TIP3    H170825   0.234   5.389   1.547 -0.2547  0.8484  0.7287
16470TIP3    H270826   0.329   5.380   1.429 -0.6865 -0.0063  0.4359
16471TIP3   OH270827   0.822   3.148   3.232 -0.4241  0.3942  0.4024
16471TIP3    H170828   0.802   3.055   3.233  0.0079  0.2789 -0.5414
16471TIP3    H270829   0.798   3.179   3.320 -0.8498 -0.5359  0.6258
16472TIP3   OH270830   5.703   4.352  13.657  0.4277  0.2891  0.5239
16472TIP3    H170831   5.621   4.315  13.689  0.2484  0.0057 -0.2303
16472TIP3    H270832   5.769   4.286  13.676  0.5737  0.7054  1.5381
16473TIP3   OH270833   4.412   6.453  11.119  0.2325  0.1297 -0.0550
16473TIP3    H170834   4.422   6.363  11.090 -1.0953  0.0257 -0.2634
16473TIP3    H270835   4.330   6.482  11.079 -0.6515  0.6352  1.9949
16474TIP3   OH270836   0.935   0.223  10.562  0.6218  0.9167  0.2580
16474TIP3    H170837   0.906   0.301  10.515 -0.6303 -0.6584 -1.7295
16474TIP3    H270838   1.029   0.218  10.545  1.0018  2.6871  1.5649
16475TIP3   OH270839   4.459   5.708   5.533 -0.3689  0.0087 -0.8459
16475TIP3    H170840   4.513   5.643   5.578 -0.2985 -0.8350 -2.0813
16475TIP3    H270841   4.381   5.659   5.507 -1.2590  0.9483 -0.0194
16476TIP3   OH270842   1.442   2.932  11.983  0.0567 -0.1932  0.0332
16476TIP3    H170843   1.355   2.962  11.955 -0.4350 -2.2810 -0.8351
16476TIP3    H270844   1.432   2.837  11.994  1.6636 -0.1925  2.1144
16477TIP3   OH270845   6.032   0.886  16.029 -0.0043 -0.4118  0.3786
16477TIP3    H170846   6.072   0.973  16.020 -1.3957  0.3700  1.3765
16477TIP3    H270847   6.103   0.825  16.009  1.7600  0.9088  2.1508
16478TIP3   OH270848   3.817   3.197   4.363 -0.2104  0.7132 -0.3184
16478TIP3    H170849   3.748   3.151   4.411 -0.6597  1.5252 -0.1643
16478TIP3    H270850   3.870   3.238   4.431  0.3115  0.2517 -0.4446
16479TIP3   OH270851   2.143   2.873   0.588 -0.0318 -0.3821  0.4257
16479TIP3    H170852   2.077   2.934   0.555  0.1041 -0.1083  0.6595
16479TIP3    H270853   2.158   2.812   0.515  0.1594  0.1302  0.0278
16480TIP3   OH270854   3.176   4.953  11.323 -0.7141  0.0809  0.2190
16480TIP3    H170855   3.222   5.033  11.295 -1.6899  0.5075 -0.2003
16480TIP3    H270856   3.151   4.971  11.413  1.1047 -0.6971  0.9250
16481TIP3   OH270857   5.919   3.467   1.410  0.2681 -0.3349 -0.0380
16481TIP3    H170858   5.960   3.429   1.332 -1.4020 -1.2100 -0.5208
16481TIP3    H270859   5.868   3.541   1.377  0.0235 -0.3426  0.3120
16482TIP3   OH270860   6.156   2.711   0.627  0.0701 -0.3327 -0.0757
16482TIP3    H170861   6.080   2.683   0.577  0.7223 -0.9666 -0.7323
16482TIP3    H270862   6.159   2.652   0.702 -0.6134  0.2960  0.4683
16483TIP3   OH270863   3.442   4.013  13.271 -0.0696 -0.2160 -0.0165
16483TIP3    H170864   3.471   3.927  13.241  0.6690 -0.0857  0.2964
16483TIP3    H270865   3.432   4.003  13.366  0.9040  0.2696  0.1547
16484TIP3   OH270866   5.209   3.387  11.471  0.4747  0.0857 -0.2770
16484TIP3    H170867   5.126   3.392  11.423  1.4829  1.5513 -2.0035
16484TIP3    H270868   5.221   3.475  11.506  1.7152  0.1440 -0.8124
16485TIP3   OH270869   5.226   6.167   4.203 -0.0417  0.1357 -0.3032
16485TIP3    H170870   5.250   6.075   4.214 -0.6756  0.0531  0.4506
16485TIP3    H270871   5.259   6.189   4.116  2.7657  0.0477  0.6320
16486TIP3   OH270872   0.455   2.404   3.554  0.0263 -0.2232  0.2073
16486TIP3    H170873   0.415   2.369   3.633 -0.6442  2.2991  1.0787
16486TIP3    H270874   0.390   2.386   3.485  0.9134 -3.0435 -0.0184
16487TIP3   OH270875   5.630   5.286   2.650 -0.8232 -0.4002 -0.3779
16487TIP3    H170876   5.715   5.268   2.611  0.4614  0.1913  1.9407
16487TIP3    H270877   5.589   5.200   2.661  2.0492 -1.5302  3.7649
16488TIP3   OH270878   4.221   4.567  13.139  0.1327 -0.0156  0.4790
16488TIP3    H170879   4.275   4.548  13.063 -0.0771  1.8487 -0.1909
16488TIP3    H270880   4.131   4.550  13.110 -0.2198  3.0127 -0.6308
16489TIP3   OH270881   1.732   4.002  12.511  0.1023  0.1727 -0.0139
16489TIP3    H170882   1.657   3.972  12.460 -0.0304 -0.7708  0.6989
16489TIP3    H270883   1.805   3.998  12.450 -0.3687  0.8399 -0.6404
16490TIP3   OH270884   4.762   2.254  11.587 -0.2810 -0.0687 -0.3663
16490TIP3    H170885   4.685   2.300  11.619 -0.5532 -1.2291  0.7487
16490TIP3    H270886   4.728   2.174  11.547  0.2536  0.1490 -1.3052
16491TIP3   OH270887   6.237   5.848  10.358 -0.0089 -0.5784  0.3319
16491TIP3    H170888   6.196   5.803  10.432 -0.6348 -0.2045  0.2201
16491TIP3    H270889   6.269   5.778  10.302 -0.0772 -0.8733  0.6558
16492TIP3   OH270890   5.106   3.180   6.524  0.2983  0.4643  0.6863
16492TIP3    H170891   5.172   3.245   6.499 -0.1028  1.0732  1.1792
16492TIP3    H270892   5.026   3.230   6.536  0.0371 -0.0832  1.3148
16493TIP3   OH270893   3.617   3.404  14.062  0.3926 -0.6902  0.0602
16493TIP3    H170894   3.638   3.353  13.983  0.7557 -2.0091  0.9682
16493TIP3    H270895   3.702   3.434  14.094  0.4485 -1.6514  0.8863
16494TIP3   OH270896   1.502   6.011   1.842 -0.1506 -0.0087 -0.0761
16494TIP3    H170897   1.563   6.072   1.800 -0.8199  1.1893  0.6462
16494TIP3    H270898   1.557   5.954   1.895  0.3988  0.6043  0.0153
16495TIP3   OH270899   4.456   4.955  13.140  0.4563 -0.9486 -0.1265
16495TIP3    H170900   4.472   4.883  13.079 -0.9703 -1.6668  0.3071
16495TIP3    H270901   4.542   4.976  13.176  1.5630  0.2277 -3.1160
16496TIP3   OH270902   5.567   0.853   0.586 -0.0669  0.3917 -0.2592
16496TIP3    H170903   5.565   0.848   0.682  1.8691  1.6800 -0.0797
16496TIP3    H270904   5.546   0.765   0.556  0.7703 -0.4173  1.4139
16497TIP3   OH270905   4.487   1.374   6.170 -0.3630  0.5045  0.5178
16497TIP3    H170906   4.522   1.423   6.245  1.6106 -0.2001  0.1145
16497TIP3    H270907   4.461   1.290   6.207 -0.3454  0.5291  0.5870
16498TIP3   OH270908   0.472   3.733   4.392  0.0199  0.7378 -0.0108
16498TIP3    H170909   0.384   3.702   4.371  0.7214 -1.8484  0.5177
16498TIP3    H270910   0.505   3.768   4.310 -1.0184  0.4803 -0.5608
16499TIP3   OH270911   2.536   6.038   0.988  0.0154 -0.0991 -0.6104
16499TIP3    H170912   2.511   5.946   0.989 -0.6138  0.0637 -0.8126
16499TIP3    H270913   2.569   6.053   0.900  1.1453 -0.3907 -0.2482
16500TIP3   OH270914   3.800   0.013   5.657  0.1959 -0.0597  0.3547
16500TIP3    H170915   3.817  -0.041   5.734  2.7041  0.7183  0.4458
16500TIP3    H270916   3.748  -0.043   5.600  1.0469 -1.8661  1.2705
16501TIP3   OH270917   2.423   0.418  15.624 -0.7539 -0.0640 -1.1605
16501TIP3    H170918   2.375   0.422  15.706  2.2304  0.4355  0.7441
16501TIP3    H270919   2.449   0.509  15.607  1.1040 -0.5271 -1.0070
16502TIP3   OH270920   3.282   0.954  14.747 -0.1176 -0.3010  0.4212
16502TIP3    H170921   3.314   0.885  14.690 -0.8167 -1.4162  1.3419
16502TIP3    H270922   3.313   0.929  14.834  2.2789  2.1612  0.4343
16503TIP3   OH270923   6.719   0.570  13.311 -0.0579  0.0195  0.7999
16503TIP3    H170924   6.631   0.548  13.282  0.3448 -1.3871  0.5527
16503TIP3    H270925   6.774   0.557  13.233  0.8098 -2.2830  1.7170
16504TIP3   OH270926   0.103   2.076  13.254 -0.1099  0.2819 -0.6601
16504TIP3    H170927   0.015   2.081  13.217 -0.9963  0.8177  1.3870
16504TIP3    H270928   0.135   2.166  13.252 -0.3464  0.3913  0.2639
16505TIP3   OH270929   5.353   4.583   3.415  0.2151 -0.4774 -0.0672
16505TIP3    H170930   5.304   4.516   3.366 -2.4529  2.0162 -1.1346
16505TIP3    H270931   5.391   4.536   3.489 -0.4303 -3.3715 -1.4289
16506TIP3   OH270932   5.117   1.571  11.625  0.5424  0.2156 -0.2370
16506TIP3    H170933   5.199   1.611  11.596  0.7632  0.1914  0.3473
16506TIP3    H270934   5.063   1.645  11.652  0.4200  0.2224 -0.5012
16507TIP3   OH270935   4.699   2.474   3.686 -0.1878 -0.1419  0.3195
16507TIP3    H170936   4.616   2.520   3.703  0.1482  0.3588  0.6312
16507TIP3    H270937   4.752   2.537   3.637  0.4284 -0.0284  1.1003
16508TIP3   OH270938   3.430   4.010  11.779  0.4808 -0.1806 -0.0020
16508TIP3    H170939   3.347   3.986  11.737  0.0419  1.9356 -0.4687
16508TIP3    H270940   3.406   4.033  11.869  0.1395  2.3699 -0.6653
16509TIP3   OH270941   0.520   1.494  15.645  0.1997  0.2542 -0.5322
16509TIP3    H170942   0.531   1.543  15.726 -1.0219 -0.6650  0.2249
16509TIP3    H270943   0.454   1.427  15.665 -0.2708  0.1027 -2.3249
16510TIP3   OH270944   0.351   3.706   3.272 -0.0184  0.0612 -0.6490
16510TIP3    H170945   0.335   3.748   3.187  0.2158  1.9063  0.1756
16510TIP3    H270946   0.272   3.655   3.288  0.9540 -2.5136 -3.1304
16511TIP3   OH270947   2.586   4.578  13.419 -0.1940 -0.2788 -0.0339
16511TIP3    H170948   2.548   4.592  13.333 -1.5363 -1.4567  0.3244
16511TIP3    H270949   2.518   4.531  13.468  0.5242  0.3741  1.6794
16512TIP3   OH270950   5.538   5.840   0.703  0.1962  0.0215 -0.2719
16512TIP3    H170951   5.503   5.928   0.690 -1.3243 -0.4078  0.7113
16512TIP3    H270952   5.567   5.839   0.794 -2.6379 -1.3687  0.7203
16513TIP3   OH270953   2.772   1.364  15.349 -0.0149  0.0518 -0.5584
16513TIP3    H170954   2.777   1.451  15.310  0.4928  0.7630  1.0228
16513TIP3    H270955   2.686   1.331  15.323  0.7783 -0.0716 -3.3203
16514TIP3   OH270956   0.219   0.759  14.052 -0.5622  0.0863 -0.6368
16514TIP3    H170957   0.205   0.684  13.994 -1.2148  0.3805 -0.8735
16514TIP3    H270958   0.132   0.800  14.059 -0.3005  0.5667 -0.1658
16515TIP3   OH270959   3.164   3.178   3.677 -0.0392 -0.1561  0.2944
16515TIP3    H170960   3.101   3.243   3.645  0.6486 -0.0821 -0.9623
16515TIP3    H270961   3.201   3.139   3.598  1.9674  0.2602  0.9698
16516TIP3   OH270962   2.305   1.323  12.853  0.5453  0.5645 -0.3104
16516TIP3    H170963   2.291   1.394  12.916  0.9069  2.7531 -2.5096
16516TIP3    H270964   2.223   1.317  12.804  0.7418 -0.0733 -0.5724
16517TIP3   OH270965   4.204   4.036   3.355  0.1615  0.1751  0.8296
16517TIP3    H170966   4.115   4.019   3.324  0.7014 -0.6574 -0.3443
16517TIP3    H270967   4.250   3.954   3.340  1.2140  0.6987  1.1287
16518TIP3   OH270968   1.056   1.836  16.435 -0.9232  0.2692  0.1550
16518TIP3    H170969   1.121   1.789  16.487  0.0056  0.8948 -0.4057
16518TIP3    H270970   1.025   1.905  16.493 -0.1525  0.7416  0.0267
16519TIP3   OH270971   1.393   0.498  14.422  0.2388  0.0418  0.2872
16519TIP3    H170972   1.314   0.463  14.464 -0.6206  0.8499 -0.5827
16519TIP3    H270973   1.422   0.569  14.479  0.5319 -0.4720  0.7790
16520TIP3   OH270974   4.628   4.594   3.169  0.3726  0.9561 -0.2617
16520TIP3    H170975   4.570   4.520   3.185  1.2116  0.5261  0.9122
16520TIP3    H270976   4.688   4.563   3.101  0.1307  0.9109 -0.4575
16521TIP3   OH270977   2.336   0.846   0.509  0.2133 -0.9413  0.0489
16521TIP3    H170978   2.333   0.905   0.584 -0.1634 -0.5298 -0.2837
16521TIP3    H270979   2.298   0.764   0.540 -1.5373 -0.2431 -0.1513
16522TIP3   OH270980   4.856   4.569   3.891  0.3837 -0.3466  0.3477
16522TIP3    H170981   4.841   4.477   3.914  1.7750 -1.1779 -1.7610
16522TIP3    H270982   4.940   4.569   3.846  0.0876  1.8740 -0.3239
16523TIP3   OH270983   3.350   4.643  15.110 -0.2080  0.3073  0.4835
16523TIP3    H170984   3.350   4.689  15.194 -0.0409  0.3499  0.4584
16523TIP3    H270985   3.257   4.630  15.091 -0.2425  0.0384  0.8168
16524TIP3   OH270986   6.105   4.793  16.372 -0.1647  0.0586 -0.2878
16524TIP3    H170987   6.157   4.823  16.446 -1.6373  2.4861 -0.1014
16524TIP3    H270988   6.024   4.761  16.412  0.5341 -2.3589 -0.6602
16525TIP3   OH270989   1.502   3.840   3.925 -0.7356  0.3475  0.0424
16525TIP3    H170990   1.495   3.882   3.839  1.6695  0.9636  0.0659
16525TIP3    H270991   1.489   3.911   3.988 -0.0034  0.4134  0.1295
16526TIP3   OH270992   3.366   6.684   4.201 -0.0774 -0.5589 -0.4317
16526TIP3    H170993   3.364   6.626   4.125  1.2701 -0.9428 -0.1887
16526TIP3    H270994   3.397   6.629   4.272 -1.7543 -0.3293  0.5389
16527TIP3   OH270995   1.690   3.777  16.442 -0.0871 -0.8524 -0.2870
16527TIP3    H170996   1.716   3.814  16.358 -1.8844  1.7409  0.1844
16527TIP3    H270997   1.737   3.831  16.507 -0.2871 -1.4940  0.4006
16528TIP3   OH270998   2.701   2.543   2.609  0.0212 -0.6137 -0.1069
16528TIP3    H170999   2.786   2.576   2.582 -0.2988 -0.6390 -1.2234
16528TIP3    H271000   2.688   2.576   2.698 -0.6403  3.0099 -1.3763
16529TIP3   OH271001   4.464   4.233   4.200  0.4578 -0.1143  0.3354
16529TIP3    H171002   4.483   4.320   4.163  1.3714 -0.6325 -0.4393
16529TIP3    H271003   4.548   4.201   4.231  0.0465 -0.5641  1.0242
16530TIP3   OH271004   4.931   4.058   0.950 -0.2682  0.0521 -0.2174
16530TIP3    H171005   5.025   4.040   0.961 -0.4660 -0.2653  1.0442
16530TIP3    H271006   4.916   4.046   0.856  1.0606  0.6593 -0.5439
16531TIP3   OH271007   4.992   1.068   5.630 -0.0921  0.0755 -0.2974
16531TIP3    H171008   4.931   1.119   5.683 -1.9657  0.2227 -2.4201
16531TIP3    H271009   5.016   0.994   5.686 -0.6511  1.0578  1.3095
16532TIP3   OH271010   4.742   2.299   4.967  0.3459 -0.2070 -0.3512
16532TIP3    H171011   4.700   2.385   4.961  0.9872  0.4547  2.6512
16532TIP3    H271012   4.688   2.242   4.914 -1.6267  1.5520 -0.3582
16533TIP3   OH271013   3.914   0.391  16.116  0.0201 -0.5339  0.4346
16533TIP3    H171014   3.923   0.321  16.051  1.4314 -0.3080  0.3506
16533TIP3    H271015   3.942   0.470  16.070  2.5299 -0.6010  1.6855
16534TIP3   OH271016   6.414   3.842   0.945  0.3465  0.0736 -0.0436
16534TIP3    H171017   6.344   3.862   0.883  0.2851 -0.1950 -0.0627
16534TIP3    H271018   6.466   3.774   0.902  0.7517  0.4286 -0.1243
16535TIP3   OH271019   6.765   2.675   2.792  0.3758 -0.0844  0.4425
16535TIP3    H171020   6.815   2.647   2.715  0.2578 -0.7237  0.5917
16535TIP3    H271021   6.720   2.596   2.822  0.1466  0.2348  0.9661
16536TIP3   OH271022   2.068   6.679  11.917 -0.2827 -0.1451  0.0504
16536TIP3    H171023   2.090   6.592  11.883  2.3726  0.3383  0.2887
16536TIP3    H271024   2.037   6.663  12.006 -0.0191 -0.8765  0.0197
16537TIP3   OH271025   4.710   2.689  17.144 -0.2678 -0.9340 -0.0917
16537TIP3    H171026   4.796   2.729  17.149 -0.7130 -0.0671  1.1373
16537TIP3    H271027   4.688   2.689  17.051  0.5766 -0.1171 -0.3003
16538TIP3   OH271028   4.982   2.943  12.190  0.0292 -0.2071 -0.0621
16538TIP3    H171029   5.060   2.892  12.167  2.2967  2.2483  1.6674
16538TIP3    H271030   5.009   2.997  12.265 -2.8324  1.9997 -0.4418
16539TIP3   OH271031   2.261   1.219   3.959 -0.2337  0.6239  0.2931
16539TIP3    H171032   2.356   1.219   3.945 -0.2915  0.1397 -0.1324
16539TIP3    H271033   2.226   1.168   3.886 -0.9642  2.1451 -0.4517
16540TIP3   OH271034   5.500   4.069   4.372 -0.1292 -0.5360 -0.5750
16540TIP3    H171035   5.491   4.050   4.465 -0.0837  1.3114 -0.1445
16540TIP3    H271036   5.417   4.042   4.333 -0.3033 -0.9533  0.0806
16541TIP3   OH271037   2.361   1.510  17.180  0.0858  0.3641  0.0880
16541TIP3    H171038   2.375   1.443  17.113  0.0794 -0.9524  1.3523
16541TIP3    H271039   2.370   1.463  17.262  0.9899  2.1190  1.0375
16542TIP3   OH271040   2.942   3.094  15.494 -0.1742  0.1910 -0.3373
16542TIP3    H171041   2.900   3.083  15.409 -0.7017  0.9121 -0.1794
16542TIP3    H271042   3.009   3.026  15.497  0.2868  0.5644 -1.6005
16543TIP3   OH271043   5.445   5.444  15.140 -0.1723 -0.7010 -0.0536
16543TIP3    H171044   5.422   5.497  15.216  0.9978 -0.4227  0.1274
16543TIP3    H271045   5.396   5.362  15.152  0.5840 -0.9693  1.4164
16544TIP3   OH271046   4.250   5.598  16.090 -0.0985  0.2956  0.4748
16544TIP3    H171047   4.219   5.509  16.072 -1.3758  0.2832  2.4030
16544TIP3    H271048   4.344   5.594  16.075 -0.0697 -1.4896  0.8669
16545TIP3   OH271049   0.118   5.658   4.171  0.0880  0.2070 -0.2223
16545TIP3    H171050   0.185   5.725   4.152 -0.2751  0.4121 -0.7979
16545TIP3    H271051   0.167   5.587   4.213  0.7087  0.2767 -0.8013
16546TIP3   OH271052   4.548   1.840   5.861  0.8332  0.6384  0.3943
16546TIP3    H171053   4.566   1.934   5.859  3.3283  0.2211  0.2173
16546TIP3    H271054   4.588   1.809   5.942 -0.5448 -0.2213  0.7894
16547TIP3   OH271055   3.394   0.946   6.445  0.5256 -0.0345 -0.1743
16547TIP3    H171056   3.460   0.985   6.387  0.1389 -0.6786 -1.0516
16547TIP3    H271057   3.322   1.009   6.444  0.2633 -0.3446 -0.8882
16548TIP3   OH271058   0.176   4.501  14.865  0.8114 -0.0468 -0.1350
16548TIP3    H171059   0.100   4.478  14.919 -1.8266  4.1108 -1.6120
16548TIP3    H271060   0.167   4.445  14.787 -1.0840  0.6235 -0.4598
16549TIP3   OH271061   1.160   6.518  15.523  0.1950  0.3131  0.0282
16549TIP3    H171062   1.171   6.567  15.442  1.9618  0.6391  0.4104
16549TIP3    H271063   1.235   6.458  15.525  0.6171  0.8259  1.7451
16550TIP3   OH271064   3.693   5.130   5.380 -0.3385  0.6186 -0.6590
16550TIP3    H171065   3.604   5.100   5.398 -1.0546  2.8200 -0.2544
16550TIP3    H271066   3.749   5.068   5.428 -1.8246  1.2013  2.0498
16551TIP3   OH271067   3.987   1.294  16.722  0.3324  0.0316  0.1557
16551TIP3    H171068   4.017   1.381  16.746 -0.4656  0.7968 -1.4773
16551TIP3    H271069   3.995   1.291  16.626 -3.8077 -0.0224 -0.3454
16552TIP3   OH271070   4.865   1.922   2.341 -0.1308  0.0082 -0.3061
16552TIP3    H171071   4.857   1.999   2.397 -0.4329  0.5211 -1.0405
16552TIP3    H271072   4.959   1.914   2.325 -0.0713  0.0451  0.0101
16553TIP3   OH271073   0.302   2.677   2.147 -0.4991  0.2938  0.4337
16553TIP3    H171074   0.296   2.771   2.160 -1.9209  0.4019 -0.7186
16553TIP3    H271075   0.391   2.663   2.114  0.3656  0.9566  2.3734
16554TIP3   OH271076   3.082   6.762   4.235  0.2202  0.3880  0.3886
16554TIP3    H171077   3.154   6.703   4.256  1.3770  2.2041  1.7953
16554TIP3    H271078   3.119   6.826   4.174 -1.2128 -0.6394 -1.7076
16555TIP3   OH271079   4.606   5.506   4.171 -0.3200  0.0761 -0.0745
16555TIP3    H171080   4.687   5.455   4.177  1.1313  1.8978 -2.3609
16555TIP3    H271081   4.551   5.472   4.242  2.6679 -0.7610  2.0462
16556TIP3   OH271082   1.554   6.632   0.541 -0.2886  0.1074 -0.4577
16556TIP3    H171083   1.496   6.642   0.466  0.0800  0.3471 -0.7151
16556TIP3    H271084   1.502   6.658   0.616 -0.2176  1.2604 -0.7917
16557TIP3   OH271085   5.572   3.730   2.474 -0.6855  0.0981 -0.3096
16557TIP3    H171086   5.629   3.712   2.399  0.0019 -0.1947  0.2764
16557TIP3    H271087   5.532   3.646   2.495  1.4790 -0.5545  1.5628
16558TIP3   OH271088   3.784   3.406   2.898 -0.0591  0.2210 -0.0718
16558TIP3    H171089   3.793   3.333   2.837  1.0478 -1.2096  1.7030
16558TIP3    H271090   3.860   3.462   2.880  0.7519 -0.6562  0.5346
16559TIP3   OH271091   0.835   3.330  16.171  0.0733  0.4253 -0.0882
16559TIP3    H171092   0.871   3.414  16.198  0.9883  0.8257 -2.2976
16559TIP3    H271093   0.850   3.271  16.245 -0.0117  2.0260  1.2537
16560TIP3   OH271094   0.153   6.620   2.980 -0.3601  0.9305  0.1641
16560TIP3    H171095   0.075   6.586   3.024  1.4208 -0.7253  2.2599
16560TIP3    H271096   0.167   6.706   3.021 -0.8698  1.0827  0.0279
16561TIP3   OH271097   0.267   6.718  13.311  0.0198  0.2442 -0.5209
16561TIP3    H171098   0.267   6.666  13.392 -1.6772  0.5581 -0.2881
16561TIP3    H271099   0.360   6.724  13.287  0.4642 -0.7852  0.7955
16562TIP3   OH271100   1.959   3.050  11.761  0.4036  0.5091 -0.3481
16562TIP3    H171101   1.897   3.121  11.780  1.1489  1.3469 -0.9571
16562TIP3    H271102   1.920   2.973  11.801 -0.8467  1.0973 -0.3817
16563TIP3   OH271103   0.995   0.923  13.808  0.1171 -0.0736 -0.5966
16563TIP3    H171104   0.945   0.993  13.767 -0.3015 -0.4288 -0.6944
16563TIP3    H271105   0.931   0.856  13.829  0.7064 -1.0347 -1.7674
16564TIP3   OH271106   2.243   3.077   5.135 -0.6323 -0.1927 -0.3488
16564TIP3    H171107   2.178   3.145   5.155 -0.3345 -0.3653  1.3725
16564TIP3    H271108   2.292   3.067   5.216  4.0222  2.4730 -2.3862
16565TIP3   OH271109   4.647   6.506  16.780 -0.1258 -0.2041 -0.1272
16565TIP3    H171110   4.568   6.506  16.726  0.2473  1.1819 -0.7193
16565TIP3    H271111   4.656   6.597  16.809  1.5369 -0.2218 -0.5011
16566TIP3   OH271112   0.287   3.871  13.257 -0.0616 -0.6773 -0.6638
16566TIP3    H171113   0.268   3.778  13.259 -1.8087 -0.3833 -1.1131
16566TIP3    H271114   0.246   3.906  13.336 -1.6285  0.0223 -1.7331
16567TIP3   OH271115   1.473   6.764  14.930 -0.5909  0.2747  0.1999
16567TIP3    H171116   1.542   6.793  14.870  1.3348 -2.3724  0.9442
16567TIP3    H271117   1.454   6.841  14.984  1.2741  1.3008 -0.5131
16568TIP3   OH271118   0.313   1.429  12.598  0.3202 -0.4609  0.6193
16568TIP3    H171119   0.319   1.363  12.529  3.3366  0.2185  0.0632
16568TIP3    H271120   0.290   1.380  12.676 -2.4909 -1.3563 -0.6594
16569TIP3   OH271121   4.679   1.288  13.014  0.4762  0.6868 -0.5843
16569TIP3    H171122   4.600   1.251  12.974 -0.0641  2.1007 -0.9118
16569TIP3    H271123   4.748   1.274  12.949  0.7248 -1.2817  0.0400
16570TIP3   OH271124   5.166   3.006  12.672 -0.0616  0.2055  0.4457
16570TIP3    H171125   5.199   3.051  12.749  0.1842  1.1481 -0.1877
16570TIP3    H271126   5.147   2.917  12.702 -1.5110  0.9822  1.9748
16571TIP3   OH271127   3.359   3.332   2.125 -0.3873  0.3973  0.1276
16571TIP3    H171128   3.392   3.421   2.116  1.3354  0.1649  3.0375
16571TIP3    H271129   3.270   3.343   2.158 -0.6876  1.0095 -0.8492
16572TIP3   OH271130   3.834   2.049  14.933 -0.9978  0.2439  0.0524
16572TIP3    H171131   3.883   2.041  15.015  1.3204 -1.0797 -1.3448
16572TIP3    H271132   3.868   2.129  14.893 -2.1882  0.9347  0.3911
16573TIP3   OH271133   4.847   2.760  16.474  0.8880  0.0154 -0.8535
16573TIP3    H171134   4.789   2.711  16.531 -1.4890  2.0616 -1.3406
16573TIP3    H271135   4.872   2.699  16.405  1.3372 -1.5991  0.6869
16574TIP3   OH271136   2.028   5.796  14.768 -0.1315 -0.7716 -0.0863
16574TIP3    H171137   2.014   5.759  14.856 -1.5195 -0.5580 -0.1950
16574TIP3    H271138   1.978   5.739  14.710 -0.1913 -0.2129 -0.5858
16575TIP3   OH271139   5.819   3.865  15.378 -0.4281 -0.0984  0.2623
16575TIP3    H171140   5.796   3.871  15.285 -1.8274 -0.7320  0.5437
16575TIP3    H271141   5.855   3.777  15.388  0.5498  0.2808  0.1638
16576TIP3   OH271142   5.728   6.333  13.723  0.1934 -0.6556 -0.4547
16576TIP3    H171143   5.707   6.407  13.780 -0.1138 -0.7306 -0.4675
16576TIP3    H271144   5.776   6.272  13.780  1.4683  0.0508 -0.7346
16577TIP3   OH271145   2.215   2.257   4.057  0.0417 -0.1327  0.9265
16577TIP3    H171146   2.283   2.256   4.124  0.3560 -1.3481  0.6096
16577TIP3    H271147   2.219   2.346   4.021  1.7448 -0.2888  0.6500
16578TIP3   OH271148   6.109   3.043   1.466  0.3559  0.0587  0.2125
16578TIP3    H171149   6.138   3.021   1.377  2.3879  0.5065  0.7060
16578TIP3    H271150   6.164   3.117   1.491  0.2990 -0.4788  2.0899
16579TIP3   OH271151   0.243   1.953  15.857  0.4352 -0.2163 -0.1951
16579TIP3    H171152   0.238   1.875  15.801 -1.9607 -1.3389  1.4402
16579TIP3    H271153   0.204   2.022  15.804 -1.4581 -1.1798 -0.1381
16580TIP3   OH271154   3.572   3.802   1.625 -0.3495  0.1358  0.0465
16580TIP3    H171155   3.600   3.737   1.560 -0.1137  0.1869  0.0982
16580TIP3    H271156   3.483   3.775   1.648 -0.6399  0.4350 -0.6999
16581TIP3   OH271157   3.295   0.405   1.355 -0.0067  0.8161 -0.6789
16581TIP3    H171158   3.205   0.433   1.338  0.1738  1.6227 -0.3702
16581TIP3    H271159   3.314   0.341   1.287 -0.4712  1.4018 -1.3680
16582TIP3   OH271160   6.399   2.503   3.257  0.1067  0.4688 -0.7304
16582TIP3    H171161   6.342   2.480   3.184  0.6759 -0.5136 -0.8785
16582TIP3    H271162   6.347   2.486   3.335  0.6844 -2.0158 -0.7990
16583TIP3   OH271163   4.407   1.290   1.364 -0.2501  0.1842  0.0173
16583TIP3    H171164   4.331   1.287   1.305 -0.0916 -0.5273 -0.1531
16583TIP3    H271165   4.455   1.368   1.336 -1.8271  1.7019  1.2720
16584TIP3   OH271166   4.985   1.554  12.966  0.2012 -0.0777 -0.0942
16584TIP3    H171167   4.956   1.514  12.884  1.4709 -1.5740  0.1475
16584TIP3    H271168   4.979   1.484  13.031  0.6428  0.6671  0.7713
16585TIP3   OH271169   4.468   6.270  11.917 -0.2616 -0.1299 -0.3049
16585TIP3    H171170   4.416   6.290  11.995 -0.2580 -0.1160 -0.3064
16585TIP3    H271171   4.409   6.217  11.862 -0.0029 -0.8110  0.0578
16586TIP3   OH271172   3.008   0.412   5.557  0.2511 -0.5805  0.3177
16586TIP3    H171173   2.963   0.433   5.639  0.8446 -2.9937  1.3207
16586TIP3    H271174   2.984   0.321   5.539  2.3364 -0.9788 -0.7105
16587TIP3   OH271175   2.674   5.236   1.885  0.1602 -0.2288 -0.2344
16587TIP3    H171176   2.607   5.264   1.947  1.0540 -0.3865  0.8130
16587TIP3    H271177   2.625   5.219   1.804 -1.4349 -2.3602  1.0614
16588TIP3   OH271178   5.565   4.349   2.141 -0.1765 -0.3687  0.5489
16588TIP3    H171179   5.629   4.358   2.211 -0.9034 -0.7344  1.2827
16588TIP3    H271180   5.575   4.258   2.111  0.6801  0.0179 -0.3830
16589TIP3   OH271181   3.719   0.939   2.701 -0.2210  0.3060 -0.5782
16589TIP3    H171182   3.807   0.905   2.718 -0.5441 -1.4262 -1.9930
16589TIP3    H271183   3.726   1.033   2.714  1.6360  0.1197  0.0957
16590TIP3   OH271184   5.207   3.798   1.368  0.4905  0.0433 -0.4501
16590TIP3    H171185   5.124   3.772   1.408  1.1573 -1.7143 -0.1415
16590TIP3    H271186   5.217   3.891   1.391 -1.2350  0.2061 -0.2563
16591TIP3   OH271187   2.166   5.532   0.273  0.1159  0.1602 -0.9864
16591TIP3    H171188   2.140   5.624   0.270  0.4337  0.2285 -2.4252
16591TIP3    H271189   2.111   5.490   0.206 -0.1593 -0.7375 -0.2198
16592TIP3   OH271190   2.581   5.354   0.596 -0.0486 -0.6237 -0.8688
16592TIP3    H171191   2.623   5.420   0.541 -1.5865  0.9516 -0.2548
16592TIP3    H271192   2.489   5.358   0.571 -0.5138 -0.9965  0.6974
16593TIP3   OH271193   4.780   1.289   2.910 -0.0911  0.1335  0.1922
16593TIP3    H171194   4.815   1.201   2.895 -0.2740  0.2121 -0.7522
16593TIP3    H271195   4.713   1.300   2.843  1.2278  1.7078 -0.9627
16594TIP3   OH271196   0.045   4.152   3.082  0.3777 -0.4867  0.1324
16594TIP3    H171197   0.020   4.061   3.099 -0.3299 -0.7051 -1.7669
16594TIP3    H271198   0.140   4.153   3.096  0.0174 -0.7098  3.1940
16595TIP3   OH271199   6.638   4.334  12.720 -0.4024  0.1109 -0.6771
16595TIP3    H171200   6.660   4.394  12.791 -0.4707  1.3591 -1.6842
16595TIP3    H271201   6.544   4.322  12.726 -0.2513 -0.8669  0.2362
16596TIP3   OH271202   4.286   0.808  11.638  0.2141  0.5679 -0.1012
16596TIP3    H171203   4.233   0.840  11.565 -2.1097 -0.9408  0.8024
16596TIP3    H271204   4.230   0.744  11.681  2.3839 -0.2440  1.6785
16597TIP3   OH271205   4.879   2.230   2.092 -1.0525  0.4082 -0.1367
16597TIP3    H171206   4.831   2.256   2.013 -1.3584  1.8193  0.4753
16597TIP3    H271207   4.834   2.151   2.122  0.1312 -1.1715 -2.2821
16598TIP3   OH271208   6.387   1.443   4.290  0.0058 -0.1006  0.0613
16598TIP3    H171209   6.356   1.514   4.345  2.1340 -0.4734  1.8543
16598TIP3    H271210   6.309   1.415   4.241 -1.7516  0.8914  2.1447
16599TIP3   OH271211   5.271   2.218  12.873  0.3567 -0.4919 -0.3226
16599TIP3    H171212   5.291   2.167  12.795 -2.7501 -0.5305 -1.2353
16599TIP3    H271213   5.233   2.155  12.934 -0.6550  0.1645 -0.2524
16600TIP3   OH271214   3.597   2.982  15.770 -1.0752 -0.0365 -0.0037
16600TIP3    H171215   3.672   2.923  15.782  0.1692  1.6051  0.7803
16600TIP3    H271216   3.587   2.989  15.675 -0.2551 -0.3522 -0.1266
16601TIP3   OH271217   0.866   4.805  14.820  0.2282 -0.5588  0.2901
16601TIP3    H171218   0.784   4.774  14.782  0.3839 -0.5134 -0.0839
16601TIP3    H271219   0.911   4.849  14.748  0.5053 -0.4336  0.5369
16602TIP3   OH271220   6.579   0.422   1.779 -0.5319 -0.0512  0.4843
16602TIP3    H171221   6.541   0.339   1.808 -1.5512  0.4894  0.7387
16602TIP3    H271222   6.506   0.484   1.780  0.1891  0.8317  0.1986
16603TIP3   OH271223   1.673   4.335   4.782 -0.3865 -0.0075 -0.3235
16603TIP3    H171224   1.630   4.252   4.761  3.3698 -2.0041 -1.1173
16603TIP3    H271225   1.681   4.380   4.698  2.3778 -1.5257 -0.9833
16604TIP3   OH271226   5.841   4.991   0.223 -0.0977  0.3449  0.6295
16604TIP3    H171227   5.814   5.040   0.300 -1.7548 -0.6986  0.7571
16604TIP3    H271228   5.759   4.958   0.185  0.8037 -0.5593 -0.6308
16605TIP3   OH271229   6.019   1.256   3.982  0.7273 -1.0380 -0.0472
16605TIP3    H171230   5.964   1.190   4.024  0.8466 -0.2798  1.3629
16605TIP3    H271231   5.956   1.318   3.945  0.6224 -1.3598 -0.4126
16606TIP3   OH271232   3.307   4.536  10.285 -0.2701  0.1043 -0.0387
16606TIP3    H171233   3.373   4.503  10.225  1.2719  0.7351  1.2373
16606TIP3    H271234   3.268   4.611  10.240  1.2372  0.9053 -0.0779
16607TIP3   OH271235   3.141   1.175  14.273 -0.0081 -0.2176  0.4829
16607TIP3    H171236   3.201   1.117  14.228 -1.7991 -0.9507 -1.0986
16607TIP3    H271237   3.115   1.128  14.352  1.2737  0.0116  1.0550
16608TIP3   OH271238   2.372   0.688  11.376 -0.2665  0.1550 -0.2527
16608TIP3    H171239   2.379   0.739  11.295 -0.3490 -0.5391 -0.7090
16608TIP3    H271240   2.438   0.619  11.366  1.1594  1.2449  1.1827
16609TIP3   OH271241   3.302   5.666  12.705  0.2007  0.1136 -0.1943
16609TIP3    H171242   3.339   5.663  12.617  0.9003  0.5932  0.0744
16609TIP3    H271243   3.230   5.604  12.703  0.7087 -0.4734 -0.8814
16610TIP3   OH271244   0.034   0.529   4.301  0.2874 -0.3008  0.2405
16610TIP3    H171245   0.046   0.439   4.331  1.7888  0.0570  0.8250
16610TIP3    H271246  -0.039   0.525   4.239  0.6264 -1.9857 -0.0893
16611TIP3   OH271247   5.625   1.759  14.631  0.1667  0.3629  0.2932
16611TIP3    H171248   5.631   1.780  14.538  1.4255  2.9966  0.8768
16611TIP3    H271249   5.554   1.814  14.664 -0.2321 -0.5008  0.9191
16612TIP3   OH271250   4.025   4.438  15.657  0.3323 -0.2666 -0.0389
16612TIP3    H171251   3.963   4.471  15.722  1.0030  0.7760  0.0987
16612TIP3    H271252   4.095   4.399  15.708  0.7648  0.3747 -0.1348
16613TIP3   OH271253   5.156   2.077  14.647 -0.2586  0.5325 -0.0999
16613TIP3    H171254   5.151   2.138  14.573 -0.6077  0.0053 -0.5224
16613TIP3    H271255   5.087   2.105  14.707  0.9063  1.8031  0.6924
16614TIP3   OH271256   5.353   2.491   4.327 -0.3348  0.0526 -0.7160
16614TIP3    H171257   5.395   2.421   4.377  0.6132  0.1037 -1.4025
16614TIP3    H271258   5.262   2.464   4.317 -0.2009 -0.6132 -0.1552
16615TIP3   OH271259   1.760   4.387  16.441 -0.0396  0.0679  0.3032
16615TIP3    H171260   1.686   4.328  16.455 -0.1732  0.3524  0.8101
16615TIP3    H271261   1.831   4.351  16.494 -0.5702  1.1895  1.8641
16616TIP3   OH271262   1.460   0.475   3.866 -0.1044 -0.2480 -0.3148
16616TIP3    H171263   1.424   0.536   3.930 -0.2711 -0.6729 -0.0022
16616TIP3    H271264   1.409   0.394   3.877  2.6869 -1.8812  2.1150
16617TIP3   OH271265   2.136   3.974   0.733  0.6735  0.3955 -0.3465
16617TIP3    H171266   2.229   3.961   0.749  0.5910  0.2115 -0.0006
16617TIP3    H271267   2.124   3.955   0.640  0.9594  0.3009 -0.3635
16618TIP3   OH271268   0.663   0.423   2.639 -0.5162  0.1601 -0.0898
16618TIP3    H171269   0.623   0.509   2.621 -0.3386  0.2002 -0.2934
16618TIP3    H271270   0.702   0.397   2.555 -0.1483  0.1041  0.0972
16619TIP3   OH271271   4.037   6.711  13.277 -0.0071  0.9521  0.6143
16619TIP3    H171272   4.019   6.749  13.191  2.5298 -1.0386 -0.9393
16619TIP3    H271273   4.106   6.767  13.314  0.7641  0.3435  0.1446
16620TIP3   OH271274   3.581   3.145   2.048 -0.2252 -0.4044  0.2546
16620TIP3    H171275   3.624   3.212   1.995 -1.2022 -0.2144 -0.3246
16620TIP3    H271276   3.535   3.194   2.115 -0.3733 -0.5401  0.2520
16621TIP3   OH271277   1.892   0.052   2.859  0.4842 -0.0510 -0.1460
16621TIP3    H171278   1.926   0.098   2.936 -0.6804  1.1499 -0.3142
16621TIP3    H271279   1.822   0.109   2.826  0.1902 -1.1052 -1.4189
16622TIP3   OH271280   5.089   1.476  13.569  0.0168 -0.6537  0.0037
16622TIP3    H171281   5.111   1.480  13.662  1.4320  0.6153 -0.3521
16622TIP3    H271282   5.076   1.383  13.552 -0.4123 -0.8947  1.4897
16623TIP3   OH271283   5.469   2.028  13.872 -0.9371  0.0970  0.7203
16623TIP3    H171284   5.511   2.104  13.831 -0.6042 -0.5252 -0.1182
16623TIP3    H271285   5.380   2.056  13.890 -0.9188  0.5762  0.0853
16624TIP3   OH271286   6.761   5.528  14.401 -0.5039  0.4705  0.3459
16624TIP3    H171287   6.842   5.532  14.351  0.7274 -0.0408  2.1976
16624TIP3    H271288   6.725   5.441  14.381  0.2669  0.0468  0.7728
16625TIP3   OH271289   2.608   0.511  14.286  0.1394 -0.8087  0.1799
16625TIP3    H171290   2.604   0.514  14.382  1.7098 -1.1932  0.2862
16625TIP3    H271291   2.655   0.591  14.262 -0.6052 -0.5121 -0.2982
16626TIP3   OH271292   1.248   6.258  11.202 -0.0962 -0.2842  0.7780
16626TIP3    H171293   1.278   6.168  11.212 -1.2875 -1.1861 -2.4345
16626TIP3    H271294   1.310   6.297  11.141 -1.3637 -0.0040 -0.3996
16627TIP3   OH271295   4.350   6.753   5.765 -0.2396 -0.4014 -0.0312
16627TIP3    H171296   4.361   6.692   5.692  0.5871 -0.2588 -0.0363
16627TIP3    H271297   4.310   6.831   5.726  0.8647 -0.0461 -0.4805
16628TIP3   OH271298   3.545   3.006  15.502 -0.0931 -0.7317 -0.4637
16628TIP3    H171299   3.512   2.928  15.458  0.0101 -0.4919 -0.9691
16628TIP3    H271300   3.599   3.050  15.437 -0.1178 -0.2577 -0.1709
16629TIP3   OH271301   1.030   5.219   5.424  0.5142  0.7144  0.1117
16629TIP3    H171302   0.960   5.242   5.363 -1.0789  1.3519  2.0452
16629TIP3    H271303   1.010   5.269   5.503  1.9756 -0.7059  1.4605
16630TIP3   OH271304   6.392   3.803   2.141 -0.2277  0.8113 -0.0109
16630TIP3    H171305   6.359   3.862   2.073 -1.3220 -2.0561 -2.1795
16630TIP3    H271306   6.454   3.746   2.094  0.3631 -0.1431  1.8443
16631TIP3   OH271307   2.047   5.216   5.139  0.1543  0.1212  0.1220
16631TIP3    H171308   2.094   5.141   5.176  1.1560  1.1763  1.0849
16631TIP3    H271309   2.044   5.198   5.045  1.6172 -0.4690  0.1485
16632TIP3   OH271310   1.360   2.246  10.571 -0.1319  0.4885 -0.4190
16632TIP3    H171311   1.293   2.194  10.526  0.3427 -0.5882  0.0869
16632TIP3    H271312   1.311   2.312  10.620 -0.7157  0.9442 -1.5772
16633TIP3   OH271313   2.484   4.328   1.637  0.7813 -0.2185  0.2316
16633TIP3    H171314   2.542   4.258   1.667  1.2374 -0.3508 -0.9072
16633TIP3    H271315   2.437   4.356   1.716  1.2635 -1.1717  0.8757
16634TIP3   OH271316   3.105   6.372   3.123 -0.2916 -0.6106 -0.3567
16634TIP3    H171317   3.017   6.403   3.144 -0.3022 -2.0615  2.1702
16634TIP3    H271318   3.162   6.446   3.142 -0.8785  0.1086 -1.3183
16635TIP3   OH271319   2.973   5.731   6.018  0.3404 -0.1351  0.7862
16635TIP3    H171320   2.907   5.775   6.071 -0.0421 -2.8335  2.7757
16635TIP3    H271321   2.995   5.652   6.068  1.0217 -2.1618 -2.4166
16636TIP3   OH271322   4.868   1.114   3.595 -0.1523  0.6314 -0.0931
16636TIP3    H171323   4.778   1.116   3.563  0.1573 -0.7722 -1.1268
16636TIP3    H271324   4.886   1.022   3.613  0.8480  0.9772  0.8215
16637TIP3   OH271325   4.277   4.159  15.553  0.7223 -0.0341 -0.2695
16637TIP3    H171326   4.275   4.114  15.638  2.1062 -0.2502 -0.3380
16637TIP3    H271327   4.329   4.237  15.568  1.2171 -0.2219 -0.9899
16638TIP3   OH271328   1.437   4.859   3.352 -0.1266  0.4764 -0.2990
16638TIP3    H171329   1.414   4.783   3.299 -1.2054 -0.1479  1.0108
16638TIP3    H271330   1.358   4.877   3.403  0.4792  1.8203  0.1991
16639TIP3   OH271331   3.301   3.415  14.341 -0.0730  0.6871 -0.1418
16639TIP3    H171332   3.231   3.475  14.367  0.9394  2.3169 -0.9884
16639TIP3    H271333   3.325   3.370  14.422 -1.0516  1.2203  0.4688
16640TIP3   OH271334   2.990   4.726   5.030 -1.0578 -0.3525 -0.4711
16640TIP3    H171335   3.063   4.769   5.074 -1.2083  0.1968 -0.7450
16640TIP3    H271336   3.029   4.650   4.987 -1.1557 -1.8131  1.8677
16641TIP3   OH271337   2.196   3.392   6.139 -0.5236 -0.2432 -0.4841
16641TIP3    H171338   2.276   3.374   6.188 -0.4650 -1.1708 -0.8995
16641TIP3    H271339   2.139   3.436   6.201  0.2859  0.3749 -0.1684
16642TIP3   OH271340   2.066   0.828   5.549  0.2692 -0.2820 -0.2037
16642TIP3    H171341   2.000   0.860   5.610 -0.6077  2.1309 -2.2225
16642TIP3    H271342   2.027   0.750   5.510 -0.9632  0.4709 -0.5504
16643TIP3   OH271343   2.384   0.213  17.166 -0.4023  0.3944  0.1927
16643TIP3    H171344   2.443   0.234  17.093 -1.3537  0.9857 -0.4326
16643TIP3    H271345   2.379   0.118  17.166 -0.2048  0.3766 -0.3707
16644TIP3   OH271346   4.114   2.942   2.248 -0.2028  0.3001 -0.2422
16644TIP3    H171347   4.049   2.880   2.215  0.5077 -0.1796 -0.7648
16644TIP3    H271348   4.160   2.973   2.170 -0.1366  1.0135  0.0764
16645TIP3   OH271349   6.722   0.721   6.428  0.1169 -0.1101  0.0015
16645TIP3    H171350   6.731   0.786   6.358 -1.2409  0.5482  0.3963
16645TIP3    H271351   6.649   0.753   6.481  1.3105 -0.4329  1.9332
16646TIP3   OH271352   4.359   1.788   2.115 -0.1441  0.9945  0.3208
16646TIP3    H171353   4.275   1.743   2.098 -0.6211  1.4914  1.2639
16646TIP3    H271354   4.336   1.881   2.118  0.6604  1.2281 -0.5788
16647TIP3   OH271355   2.815   1.734  14.903 -0.2296  0.5362  0.8387
16647TIP3    H171356   2.816   1.655  14.847 -3.4803  1.1191 -0.2553
16647TIP3    H271357   2.879   1.792  14.862 -0.3403 -0.2153 -0.4810
16648TIP3   OH271358   5.049   0.861  16.667  0.1385 -0.0996  0.5767
16648TIP3    H171359   5.065   0.826  16.579 -1.2104 -1.3686  0.8014
16648TIP3    H271360   5.053   0.785  16.724 -0.0445  0.5550  1.4737
16649TIP3   OH271361   6.101   4.019  16.660 -0.2194 -0.1361 -0.4819
16649TIP3    H171362   6.063   4.107  16.659 -0.7619 -0.2036  2.6707
16649TIP3    H271363   6.050   3.972  16.726  2.9642 -1.3315  1.3945
16650TIP3   OH271364   1.356   4.049  17.188 -0.6752  0.3196 -0.0025
16650TIP3    H171365   1.338   3.956  17.174 -1.1543  0.5848 -1.3308
16650TIP3    H271366   1.450   4.058  17.172 -0.1949 -0.2544  2.1795
16651TIP3   OH271367   3.701   5.748  10.657 -0.0777  0.3595 -0.0425
16651TIP3    H171368   3.621   5.760  10.605  0.2004  0.1321 -0.5284
16651TIP3    H271369   3.685   5.667  10.705 -1.1234  1.5222  1.7093
16652TIP3   OH271370   0.925   0.386  11.839 -0.0543 -0.0792 -0.6993
16652TIP3    H171371   0.990   0.436  11.887 -1.5281  2.4459 -1.1279
16652TIP3    H271372   0.841   0.410  11.880 -1.0171 -0.4992 -2.3260
16653TIP3   OH271373   2.141   1.430   1.024 -0.0289 -0.6746 -0.1765
16653TIP3    H171374   2.050   1.410   1.003 -0.1946  0.0920 -0.2240
16653TIP3    H271375   2.137   1.517   1.065  0.4175 -1.5463  1.8394
16654TIP3   OH271376   3.890   5.832  12.129  0.2694 -0.4259  0.2472
16654TIP3    H171377   3.845   5.850  12.046  0.8301 -0.3812 -0.0476
16654TIP3    H271378   3.883   5.737  12.140 -0.6082 -0.3362  0.6172
16655TIP3   OH271379   3.906   6.756  15.156  0.0252 -0.3042  0.5386
16655TIP3    H171380   3.895   6.847  15.184  0.7321  0.3637 -1.2197
16655TIP3    H271381   3.824   6.735  15.112 -0.6405 -0.9729  2.0511
16656TIP3   OH271382   1.927   4.787  16.080  0.2907 -0.0464  0.4053
16656TIP3    H171383   1.942   4.697  16.108 -0.0085  0.2838  1.6913
16656TIP3    H271384   1.832   4.793  16.067  0.2209  0.2395  0.9717
16657TIP3   OH271385   1.128   3.972   2.531 -0.2073  0.0912 -0.2302
16657TIP3    H171386   1.095   3.890   2.569 -1.2880  0.3506 -0.5812
16657TIP3    H271387   1.128   3.957   2.437  0.1421  0.3079 -0.2691
16658TIP3   OH271388   6.164   0.048  15.578 -0.2425 -0.2024  0.2640
16658TIP3    H171389   6.250   0.085  15.557 -0.8645  1.1424  0.0178
16658TIP3    H271390   6.172   0.021  15.670 -0.2005  1.9469  0.9462
16659TIP3   OH271391   1.494   3.038   4.878  0.3346  0.0629  0.4542
16659TIP3    H171392   1.579   2.998   4.856  0.2489 -0.0085  0.2534
16659TIP3    H271393   1.496   3.046   4.973  1.8466  2.8650  0.3004
16660TIP3   OH271394   5.781   4.210   5.462  0.1139  0.0715 -0.4951
16660TIP3    H171395   5.730   4.229   5.541 -0.7880 -1.0719 -0.7760
16660TIP3    H271396   5.718   4.171   5.401  1.1432 -0.5536 -1.1915
16661TIP3   OH271397   3.445   2.039   1.328 -0.0506  0.0190 -0.0754
16661TIP3    H171398   3.483   1.983   1.262  1.8152  1.4672 -0.3120
16661TIP3    H271399   3.371   1.989   1.363  1.3310 -2.4250 -0.4497
16662TIP3   OH271400   3.620   6.469   6.411  0.4213 -0.4999  0.1344
16662TIP3    H171401   3.694   6.528   6.418  0.4996 -0.6610  0.8022
16662TIP3    H271402   3.656   6.383   6.432  0.0810 -0.6046  0.2981
16663TIP3   OH271403   0.845   5.593   5.856  0.5488  0.3053  0.4024
16663TIP3    H171404   0.926   5.554   5.824  0.6684  0.6819  0.2402
16663TIP3    H271405   0.809   5.528   5.917  1.2094  0.3431  0.8344
16664TIP3   OH271406   4.351   6.287   5.309 -0.4850 -0.5085  0.1016
16664TIP3    H171407   4.426   6.266   5.252 -1.1813 -2.1300 -0.2646
16664TIP3    H271408   4.383   6.271   5.397  0.5478  1.8457  0.2419
16665TIP3   OH271409   3.704   4.284  14.849 -0.0033 -0.3347  0.8130
16665TIP3    H171410   3.709   4.208  14.791 -0.8312  0.8949 -0.9624
16665TIP3    H271411   3.792   4.322  14.847 -0.6015  1.1547 -1.8183
16666TIP3   OH271412   4.548   5.582   3.478 -0.3833  0.1937 -0.3675
16666TIP3    H171413   4.562   5.645   3.549  2.5353 -0.5911 -0.1088
16666TIP3    H271414   4.551   5.634   3.398 -0.0418  0.6482 -0.0629
16667TIP3   OH271415   4.606   0.818   3.001 -0.9725  0.0795 -0.0051
16667TIP3    H171416   4.598   0.732   3.042 -2.1154  0.5846  0.8721
16667TIP3    H271417   4.632   0.798   2.911 -0.7059 -1.1592  0.3203
16668TIP3   OH271418   5.977   1.777  13.610 -0.2321 -0.3755 -0.8845
16668TIP3    H171419   6.001   1.689  13.641  1.1470  0.0751 -0.6103
16668TIP3    H271420   5.980   1.770  13.514  0.9978 -0.3568 -0.8641
16669TIP3   OH271421   5.368   0.428  14.093  0.5220  0.0684 -0.1180
16669TIP3    H171422   5.297   0.456  14.035  0.0974  0.3020  0.5073
16669TIP3    H271423   5.403   0.348  14.051  0.2681  0.2660 -0.7214
16670TIP3   OH271424   1.263   3.364  12.054  0.0667  0.1321  0.4581
16670TIP3    H171425   1.286   3.349  11.962 -1.3687 -1.6861  0.3438
16670TIP3    H271426   1.278   3.279  12.097 -3.3581 -0.3407  0.9710
16671TIP3   OH271427   2.641   4.275   1.938 -0.4296  0.2082  0.1632
16671TIP3    H171428   2.710   4.221   1.899 -2.1518 -0.9343 -1.4966
16671TIP3    H271429   2.679   4.306   2.020  0.4659 -4.1862  1.7105
16672TIP3   OH271430   0.703   3.784   3.670 -0.4741 -0.4837  0.1167
16672TIP3    H171431   0.665   3.832   3.744 -0.0644 -0.6543  0.4423
16672TIP3    H271432   0.640   3.795   3.599  0.5882  2.4343 -0.5360
16673TIP3   OH271433   5.563   0.230   1.107  0.5857  0.5187 -0.5217
16673TIP3    H171434   5.572   0.325   1.118 -0.6888  0.7274 -1.0959
16673TIP3    H271435   5.588   0.214   1.016  2.1181  0.0889 -0.0572
16674TIP3   OH271436   6.658   6.294  16.869  0.3916 -0.7514  0.0561
16674TIP3    H171437   6.715   6.370  16.873 -0.7517  0.1293 -0.0326
16674TIP3    H271438   6.711   6.222  16.903  1.8010 -0.1239 -0.7487
16675TIP3   OH271439   6.031   4.294  11.576 -0.4759 -0.3268  0.1380
16675TIP3    H171440   6.031   4.340  11.660  0.3983 -1.3243  0.7137
16675TIP3    H271441   5.947   4.317  11.536  1.2310  4.6874 -1.2992
16676TIP3   OH271442   5.704   2.710  12.649  0.2068 -0.0332 -0.1533
16676TIP3    H171443   5.785   2.754  12.674  1.3363 -1.6673 -0.7386
16676TIP3    H271444   5.658   2.696  12.731  1.6738 -1.1992  0.5093
16677TIP3   OH271445   0.422   1.808   5.736  0.0570 -0.0708  0.4623
16677TIP3    H171446   0.491   1.768   5.683 -0.0931  0.1631  0.0863
16677TIP3    H271447   0.464   1.827   5.819  0.3171 -0.3693  0.4028
16678TIP3   OH271448   2.034   0.115  10.706 -0.2919 -0.6117  0.0893
16678TIP3    H171449   2.097   0.106  10.635 -1.3267  0.2361 -0.9849
16678TIP3    H271450   1.973   0.042  10.692 -0.0862 -0.8715  0.5468
16679TIP3   OH271451   4.118   1.768  11.880  0.5001 -0.4337  0.0702
16679TIP3    H171452   4.097   1.697  11.941  1.6676 -2.8317 -2.1075
16679TIP3    H271453   4.206   1.746  11.847 -0.1860  0.5293 -2.6559
16680TIP3   OH271454   5.011   5.091   1.093  0.3051  0.0403 -0.1199
16680TIP3    H171455   4.975   5.151   1.159 -0.5476 -0.0312 -0.5163
16680TIP3    H271456   4.960   5.109   1.014  1.6601  0.4891 -0.9213
16681TIP3   OH271457   4.300   3.197   1.246  0.0337  0.0191 -0.3847
16681TIP3    H171458   4.367   3.200   1.315  0.5607  0.7213 -0.9089
16681TIP3    H271459   4.343   3.152   1.173 -0.3814 -0.3470 -0.4070
16682TIP3   OH271460   4.345   0.658   3.215 -0.0133  0.2941  0.1822
16682TIP3    H171461   4.426   0.693   3.251  1.1949 -0.6987 -1.3945
16682TIP3    H271462   4.325   0.581   3.269  0.3764  0.2700  0.2918
16683TIP3   OH271463   6.464   2.510  12.070 -0.1715 -0.3007 -0.0698
16683TIP3    H171464   6.400   2.476  12.133 -0.7262 -0.3083 -0.6274
16683TIP3    H271465   6.549   2.491  12.110 -0.5040 -0.8986  0.3719
16684TIP3   OH271466   2.713   5.530  13.299 -0.0982 -0.3171 -0.5663
16684TIP3    H171467   2.645   5.573  13.351  0.7434  0.4361 -0.0449
16684TIP3    H271468   2.779   5.505  13.364 -0.0802 -1.4549 -1.0012
16685TIP3   OH271469   1.324   1.679  12.002 -0.0481  0.2534 -0.2398
16685TIP3    H171470   1.256   1.744  11.983 -2.3577 -1.9098  0.0208
16685TIP3    H271471   1.313   1.660  12.095 -0.8989 -1.9709 -0.7382
16686TIP3   OH271472   1.132   0.218  12.818 -0.1654 -0.1300 -0.5694
16686TIP3    H171473   1.138   0.298  12.871 -0.9109  1.6945 -3.0272
16686TIP3    H271474   1.220   0.207  12.781 -0.2108 -0.0783 -0.6948
16687TIP3   OH271475   4.660   0.728  16.964  0.0225 -0.4547 -0.2858
16687TIP3    H171476   4.741   0.770  16.994 -1.6951  1.8407  1.4391
16687TIP3    H271477   4.690   0.656  16.908  3.2288  0.3922  0.1578
16688TIP3   OH271478   4.829   4.186  10.895  0.1061  0.8990 -0.1966
16688TIP3    H171479   4.797   4.097  10.878  1.7360  0.3597 -0.5612
16688TIP3    H271480   4.817   4.232  10.811 -1.9545  1.4612  0.3410
16689TIP3   OH271481   1.407   2.785  14.636 -0.2518  0.0724  0.0317
16689TIP3    H171482   1.466   2.747  14.570  0.1907  1.0679 -0.1718
16689TIP3    H271483   1.442   2.754  14.720 -1.2476 -1.8057 -0.1836
16690TIP3   OH271484   6.561   3.357  11.677  0.2318 -0.4695  0.1547
16690TIP3    H171485   6.546   3.432  11.734 -0.3557 -1.3766  1.2260
16690TIP3    H271486   6.493   3.364  11.610  0.6356  0.3451 -0.1827
16691TIP3   OH271487   4.212   0.203  15.368 -0.0267 -0.3584 -0.3261
16691TIP3    H171488   4.241   0.293  15.358  0.9991 -0.6867 -0.4323
16691TIP3    H271489   4.258   0.170  15.444 -0.7496 -0.6652 -0.0065
16692TIP3   OH271490   0.557   6.329   0.705 -0.1062 -0.5720 -0.1510
16692TIP3    H171491   0.550   6.406   0.649 -0.2939 -1.3327 -1.2024
16692TIP3    H271492   0.559   6.255   0.645 -1.2499 -1.4899  0.8678
16693TIP3   OH271493   1.622   4.150  14.570 -0.0112 -0.0851 -0.0951
16693TIP3    H171494   1.635   4.239  14.603 -1.8268 -0.6638  2.4611
16693TIP3    H271495   1.530   4.132  14.585  0.4891 -2.7028  0.2961
16694TIP3   OH271496   1.601   6.264  13.144  0.1300  0.3712  0.6228
16694TIP3    H171497   1.520   6.314  13.150 -0.0895 -0.0696  1.5895
16694TIP3    H271498   1.661   6.307  13.204  0.2062 -0.0355  0.8418
16695TIP3   OH271499   6.604   4.546   1.297  0.9966  0.3400 -0.3133
16695TIP3    H171500   6.660   4.483   1.342  1.9405  0.7228 -0.9085
16695TIP3    H271501   6.524   4.549   1.349  1.0435 -1.1190 -0.0995
16696TIP3   OH271502   2.986   1.190   0.705  0.1582  0.1773 -0.0031
16696TIP3    H171503   3.069   1.147   0.724 -0.3627 -0.0033  2.1007
16696TIP3    H271504   2.987   1.203   0.610  1.8848 -1.2390 -0.2318
16697TIP3   OH271505   0.512   4.329  11.543  0.5130  0.1105 -0.1234
16697TIP3    H171506   0.557   4.388  11.603  1.3417 -1.2053  0.5974
16697TIP3    H271507   0.501   4.380  11.463 -0.1431  1.7377  0.9447
16698TIP3   OH271508   5.462   5.000   4.698 -0.1314  0.0156 -0.4320
16698TIP3    H171509   5.405   4.980   4.773 -1.1957 -0.0023 -1.2275
16698TIP3    H271510   5.546   5.022   4.738 -0.9566  1.0129  0.8307
16699TIP3   OH271511   0.196   5.973   2.747  0.1294  0.4774 -0.2627
16699TIP3    H171512   0.232   5.887   2.770  0.4286  0.8726  0.8091
16699TIP3    H271513   0.114   5.954   2.700  0.3868 -0.3890 -0.3664
16700TIP3   OH271514   4.541   2.021  11.585 -0.4164 -0.4514 -0.3101
16700TIP3    H171515   4.503   2.100  11.546 -0.0598 -0.2306 -0.2159
16700TIP3    H271516   4.475   1.953  11.571 -0.8375 -0.0769 -0.1669
16701TIP3   OH271517   1.544   3.236   5.087  0.4288  0.2866 -0.5517
16701TIP3    H171518   1.474   3.276   5.035  2.4677  2.2105 -1.9966
16701TIP3    H271519   1.520   3.254   5.178 -1.5893 -0.3381 -0.8925
16702TIP3   OH271520   4.336   6.252   4.198 -0.7304 -0.2614  0.3388
16702TIP3    H171521   4.380   6.235   4.114 -1.1786  0.3251 -0.0206
16702TIP3    H271522   4.408   6.265   4.260 -0.2206 -4.6317  1.0104
16703TIP3   OH271523   0.171   4.546  16.466 -0.0607 -0.1036 -0.2245
16703TIP3    H171524   0.147   4.639  16.474  1.7752  0.5022 -1.3107
16703TIP3    H271525   0.089   4.503  16.441 -0.6725  1.4320 -1.0353
16704TIP3   OH271526   3.973   5.301   3.274 -0.3732  0.5622 -0.4479
16704TIP3    H171527   4.049   5.259   3.234  0.0021  1.3361 -0.5732
16704TIP3    H271528   3.987   5.394   3.259 -0.7186  0.8032  0.6170
16705TIP3   OH271529   5.454   3.952   4.606  0.3987 -0.1421 -0.0863
16705TIP3    H171530   5.465   3.971   4.699 -2.4507 -2.0531  0.7898
16705TIP3    H271531   5.363   3.923   4.598  0.2462  0.7815 -3.6550
16706TIP3   OH271532   2.219   2.474  13.619  0.0354  0.4876 -0.5451
16706TIP3    H171533   2.191   2.558  13.581  0.5400  0.3833 -1.1677
16706TIP3    H271534   2.301   2.454  13.573  0.4870  0.1876  0.3680
16707TIP3   OH271535   3.997   1.992  13.395  0.3451 -0.2500  0.6560
16707TIP3    H171536   4.000   2.086  13.375 -0.4132 -0.7901 -2.4938
16707TIP3    H271537   3.903   1.972  13.401  0.4031 -1.1719 -1.0214
16708TIP3   OH271538   3.843   5.115  12.113  0.1398  0.4380 -0.3506
16708TIP3    H171539   3.924   5.113  12.063  0.7802  0.4550  0.6545
16708TIP3    H271540   3.871   5.108  12.204 -1.0347 -0.4026 -0.0311
16709TIP3   OH271541   1.626   4.591  12.981  0.0763 -0.2156 -0.9174
16709TIP3    H171542   1.531   4.577  12.986  0.1205 -0.1147  1.1231
16709TIP3    H271543   1.659   4.514  12.935 -0.8089 -1.3611  0.2561
16710TIP3   OH271544   5.545   0.249  13.302  0.1512 -0.3796  0.2537
16710TIP3    H171545   5.499   0.276  13.222  1.4466  0.2581 -0.3033
16710TIP3    H271546   5.485   0.274  13.373 -1.1684 -1.2735 -0.5067
16711TIP3   OH271547   4.807   1.501  12.772  0.1621 -0.1743  0.1930
16711TIP3    H171548   4.820   1.505  12.678 -0.8545 -0.2503  0.0410
16711TIP3    H271549   4.720   1.538  12.786  0.6654  0.6978  1.1958
16712TIP3   OH271550   1.790   1.691   4.058 -0.3084 -0.0455  0.0271
16712TIP3    H171551   1.765   1.781   4.037 -0.1990  0.0675  0.3743
16712TIP3    H271552   1.883   1.696   4.079 -0.0619 -0.4060 -0.9059
16713TIP3   OH271553   4.107   6.662  12.964 -0.6045 -0.6884  0.5641
16713TIP3    H171554   4.045   6.660  12.891  1.1251 -0.2816 -0.9891
16713TIP3    H271555   4.096   6.577  13.007 -3.6250  0.1218  1.6485
16714TIP3   OH271556   0.843   5.765   5.294  0.2174  0.2827 -0.3949
16714TIP3    H171557   0.775   5.817   5.251 -0.7150  1.7643  2.5691
16714TIP3    H271558   0.904   5.829   5.331  0.7797 -0.8292  0.7318
16715TIP3   OH271559   4.608   2.587  14.791 -0.5132  0.0634  0.5624
16715TIP3    H171560   4.608   2.495  14.765 -0.9690 -0.3345  1.8862
16715TIP3    H271561   4.700   2.611  14.794 -0.3319 -0.6674  1.2362
16716TIP3   OH271562   2.641   2.134   0.922  0.3207 -0.5796 -0.1393
16716TIP3    H171563   2.574   2.128   0.990  1.1329 -3.3690  0.5678
16716TIP3    H271564   2.607   2.081   0.850  0.1459  1.1081 -1.3704
16717TIP3   OH271565   3.339   4.403  10.520  0.0448  0.4149  0.6567
16717TIP3    H171566   3.432   4.406  10.498  0.0639 -1.1809  0.4283
16717TIP3    H271567   3.297   4.453  10.451  0.8393  2.5733  1.6376
16718TIP3   OH271568   5.960   1.124   1.942 -0.7476  0.1040  0.5506
16718TIP3    H171569   6.051   1.094   1.940 -0.7499  0.1254 -0.9364
16718TIP3    H271570   5.945   1.149   2.033  0.8100  0.3344  0.7732
16719TIP3   OH271571   1.469   0.508  16.175 -0.0029 -0.4679  0.1305
16719TIP3    H171572   1.535   0.573  16.200  0.5840 -1.2524  0.6691
16719TIP3    H271573   1.469   0.508  16.080  0.2786  0.0426  0.1287
16720TIP3   OH271574   2.493   4.646  14.940 -0.0620  0.3457 -0.3510
16720TIP3    H171575   2.516   4.689  15.022 -1.0912  1.3613 -0.5721
16720TIP3    H271576   2.455   4.562  14.967  2.2852 -0.6610  0.0637
16721TIP3   OH271577   6.757   4.548   6.298  0.6185  0.1970  0.5815
16721TIP3    H171578   6.742   4.517   6.388  0.7761  0.6090  0.7556
16721TIP3    H271579   6.670   4.555   6.260  0.6175 -1.3735  0.2062
16722TIP3   OH271580   3.065   2.157  11.212  0.2867 -0.0119 -0.3354
16722TIP3    H171581   2.984   2.200  11.184  2.1875  4.5061  0.1784
16722TIP3    H271582   3.099   2.115  11.134 -0.1698  2.4092 -1.9498
16723TIP3   OH271583   5.414   6.377  16.284 -0.1242  0.7344  0.1966
16723TIP3    H171584   5.406   6.422  16.200 -2.2652 -0.9792 -0.6176
16723TIP3    H271585   5.483   6.313  16.271 -1.2477 -0.3309 -0.7085
16724TIP3   OH271586   6.777   5.017   3.906  0.1496 -0.3065 -0.2128
16724TIP3    H171587   6.726   4.963   3.846  0.6830 -0.0829 -0.8828
16724TIP3    H271588   6.843   5.059   3.851  0.8234 -0.2964  0.5760
16725TIP3   OH271589   5.739   6.367   1.456  0.1945 -0.1345  0.0765
16725TIP3    H171590   5.645   6.347   1.464  0.4786 -1.6885 -0.2368
16725TIP3    H271591   5.742   6.438   1.393 -0.9651  2.0739  2.3024
16726TIP3   OH271592   0.103   0.382   1.300  0.1476 -0.2914  0.1066
16726TIP3    H171593   0.194   0.406   1.317 -0.5289  1.4874  1.5853
16726TIP3    H271594   0.073   0.446   1.236 -0.4448  0.0361  0.6985
16727TIP3   OH271595   4.468   5.260   3.322  0.0906 -0.9152  0.5858
16727TIP3    H171596   4.452   5.166   3.307 -0.4363 -0.7636  0.1513
16727TIP3    H271597   4.562   5.271   3.307  0.2206 -1.4339  0.9785
16728TIP3   OH271598   6.749   3.737  13.171  0.0523 -0.7450 -0.0892
16728TIP3    H171599   6.831   3.767  13.130 -0.1269 -0.7392 -0.4470
16728TIP3    H271600   6.716   3.814  13.218  0.4689 -0.8662  0.4096
16729TIP3   OH271601   5.128   2.357   3.440 -0.4295 -0.2568 -0.0931
16729TIP3    H171602   5.055   2.303   3.469 -0.7184 -0.3458 -0.9406
16729TIP3    H271603   5.087   2.433   3.398 -0.1073 -1.2180 -2.2945
16730TIP3   OH271604   1.974   2.894  15.174 -0.1543 -0.2532  0.1236
16730TIP3    H171605   2.034   2.821  15.182 -1.1913 -1.2155 -0.5134
16730TIP3    H271606   1.961   2.904  15.080 -0.1493  0.6589  0.2101
16731TIP3   OH271607   6.448   6.373  17.050  0.0544  0.4613  0.2128
16731TIP3    H171608   6.511   6.346  16.983 -2.0491 -0.1602 -1.6391
16731TIP3    H271609   6.376   6.310  17.043  0.2416 -0.4601  4.0307
16732TIP3   OH271610   3.013   0.722  15.943 -0.2584  0.2435 -0.5194
16732TIP3    H171611   2.960   0.756  16.015  0.1702  1.0877 -0.5913
16732TIP3    H271612   3.018   0.794  15.880  1.0004  0.1888 -0.4992
16733TIP3   OH271613   4.549   3.753   0.233 -0.1092  0.5785 -0.5277
16733TIP3    H171614   4.457   3.755   0.262 -0.0642  0.4719 -0.3757
16733TIP3    H271615   4.598   3.792   0.304  0.0311  0.0764 -0.3413
16734TIP3   OH271616   2.104   6.612   6.049 -0.5261 -0.2186 -0.0273
16734TIP3    H171617   2.169   6.677   6.073 -1.3098  1.0962 -1.2943
16734TIP3    H271618   2.081   6.569   6.131  0.0980  1.0302  0.8258
16735TIP3   OH271619   0.735   4.550   5.865 -0.1895 -0.5370  0.4068
16735TIP3    H171620   0.729   4.554   5.960 -1.2923  0.5406  0.3134
16735TIP3    H271621   0.805   4.612   5.842  0.3203 -1.0594  0.5201
16736TIP3   OH271622   4.317   2.360   1.126 -0.2540  0.4458 -0.4027
16736TIP3    H171623   4.331   2.352   1.220  1.2656 -1.0817 -0.7139
16736TIP3    H271624   4.264   2.284   1.102  1.9927 -0.9775 -1.1946
16737TIP3   OH271625   2.723   1.513   1.806 -0.3822 -0.0582  0.0503
16737TIP3    H171626   2.812   1.530   1.838 -1.2256  0.4626  2.3192
16737TIP3    H271627   2.717   1.418   1.801  0.5367 -0.0916 -0.9614
16738TIP3   OH271628   4.850   3.468   0.872 -0.1753  0.2052  0.2098
16738TIP3    H171629   4.767   3.435   0.835  0.5490 -0.9503 -0.4633
16738TIP3    H271630   4.915   3.448   0.805  0.6272  1.2872  0.6485
16739TIP3   OH271631   5.286   6.418   1.275  0.3911 -0.2030  0.1863
16739TIP3    H171632   5.200   6.456   1.258 -0.1888 -1.1284  0.9560
16739TIP3    H271633   5.299   6.354   1.205  0.7767  0.4513 -0.3439
16740TIP3   OH271634   6.585   2.129   3.272 -0.0610 -0.1607 -0.0911
16740TIP3    H171635   6.530   2.157   3.345  0.2385  2.3019 -0.7202
16740TIP3    H271636   6.524   2.089   3.210 -0.7773  0.4141  0.2273
16741TIP3   OH271637   6.058   4.683   0.672  0.1723 -0.5495 -0.4837
16741TIP3    H171638   6.048   4.740   0.596  0.2524  0.2656  0.0995
16741TIP3    H271639   6.152   4.664   0.675  0.4237  0.7086  0.3006
16742TIP3   OH271640   1.401   1.058  12.439  0.0496  0.6667  0.5973
16742TIP3    H171641   1.383   0.965  12.425 -0.4856  0.2752  3.4018
16742TIP3    H271642   1.496   1.066  12.431  0.4170 -0.6754  2.8306
16743TIP3   OH271643   1.850   2.878   4.337  0.5287  0.2041  0.3168
16743TIP3    H171644   1.789   2.926   4.392 -0.2056 -0.1259 -0.1909
16743TIP3    H271645   1.931   2.928   4.342  0.3811  0.3633  1.4200
16744TIP3   OH271646   5.727   3.522  11.092 -0.1419 -0.0909 -0.5270
16744TIP3    H171647   5.777   3.441  11.093 -0.5779 -0.4542  2.4232
16744TIP3    H271648   5.785   3.586  11.050  0.1647 -1.8681 -3.0103
16745TIP3   OH271649   3.601   6.556   6.165 -0.0434 -0.3305 -0.8229
16745TIP3    H171650   3.604   6.527   6.256 -2.2302  0.0521 -0.5713
16745TIP3    H271651   3.508   6.557   6.143  0.2631  1.6483 -2.3761
16746TIP3   OH271652   1.692   1.452  13.662  0.4246 -0.0668 -0.1888
16746TIP3    H171653   1.680   1.420  13.751 -0.2567 -1.4925 -0.7614
16746TIP3    H271654   1.611   1.500  13.643  0.7438  0.5989  0.0830
16747TIP3   OH271655   4.231   2.218   5.322 -0.1366  0.1844  0.2421
16747TIP3    H171656   4.274   2.297   5.356 -1.2604  0.8563  0.1556
16747TIP3    H271657   4.206   2.169   5.401  0.1899  0.1108  0.3026
16748TIP3   OH271658   1.684   0.093  15.877  0.0459 -0.2683 -0.2398
16748TIP3    H171659   1.769   0.075  15.917 -0.3205 -1.7777 -0.0818
16748TIP3    H271660   1.705   0.143  15.798  1.0549 -0.3715 -0.0525
16749TIP3   OH271661   4.163   1.724   3.331 -0.5811  0.8452 -0.3753
16749TIP3    H171662   4.180   1.659   3.263 -1.6339 -1.0781  1.1008
16749TIP3    H271663   4.221   1.797   3.309  1.1177 -0.8150 -1.7912
16750TIP3   OH271664   4.069   5.831  11.003  0.1543  0.1820 -0.2863
16750TIP3    H171665   4.108   5.918  11.013 -0.3961  0.3768  0.2507
16750TIP3    H271666   3.975   5.846  11.013 -0.3460  0.0633 -3.6675
16751TIP3   OH271667   5.290   5.595  16.546 -0.2358  0.4015  0.1695
16751TIP3    H171668   5.209   5.546  16.555  0.4694 -0.6647  0.9613
16751TIP3    H271669   5.266   5.673  16.496 -1.8912  0.4701  1.0071
16752TIP3   OH271670   0.281   5.066   3.445 -0.2027  0.2586 -0.0492
16752TIP3    H171671   0.312   4.978   3.422 -0.7435 -0.2511  1.0533
16752TIP3    H271672   0.188   5.053   3.466 -0.0126  0.8675  1.2556
16753TIP3   OH271673   6.115   2.038   1.725 -0.2485 -0.5802  0.3231
16753TIP3    H171674   6.181   2.047   1.794 -0.1266  0.3124  0.1024
16753TIP3    H271675   6.053   2.109   1.742 -0.3193 -0.4702 -0.3752
16754TIP3   OH271676   2.386   0.667  11.659 -0.2131 -0.4541 -0.4314
16754TIP3    H171677   2.319   0.607  11.691 -2.0653 -0.2337 -3.4908
16754TIP3    H271678   2.375   0.667  11.564  1.7870  2.3550 -0.7951
16755TIP3   OH271679   5.236   1.811  17.222  0.6018  0.4978 -0.3645
16755TIP3    H171680   5.260   1.881  17.282 -1.5202  1.8898 -1.0207
16755TIP3    H271681   5.272   1.837  17.138  0.6890  0.2681 -0.4008
16756TIP3   OH271682   3.179   4.213  10.641  0.4659 -0.6373 -0.0653
16756TIP3    H171683   3.093   4.253  10.627  0.1328 -0.1828  2.6176
16756TIP3    H271684   3.242   4.284  10.627  0.2361 -0.4086  0.0555
16757TIP3   OH271685   2.935   1.072  10.726 -0.0406  0.2217  0.0185
16757TIP3    H171686   2.892   1.008  10.783  1.5272  0.0144  1.0224
16757TIP3    H271687   2.867   1.136  10.707 -0.5181  0.5547  2.5246
16758TIP3   OH271688   1.213   5.843   3.484  0.0195  0.0713  0.0289
16758TIP3    H171689   1.137   5.815   3.434 -1.2047 -0.7873  2.2254
16758TIP3    H271690   1.288   5.803   3.439 -1.1124 -1.5092 -0.5329
16759TIP3   OH271691   5.041   6.629  10.851  0.6188 -0.0956  0.0804
16759TIP3    H171692   4.999   6.649  10.767  0.3110  0.8448  0.4446
16759TIP3    H271693   5.134   6.623  10.830  0.3926 -1.4904 -0.6096
16760TIP3   OH271694   1.787   5.219  15.348  0.5412 -0.0334  0.3469
16760TIP3    H171695   1.718   5.273  15.385 -0.6740 -0.1006 -1.7092
16760TIP3    H271696   1.748   5.131  15.343  0.8019 -0.0896 -0.7514
16761TIP3   OH271697   1.724   3.120   5.666  0.6360 -0.2576  0.3026
16761TIP3    H171698   1.794   3.094   5.726 -0.6172 -2.1013  1.0760
16761TIP3    H271699   1.680   3.192   5.711  0.6864 -0.5783  0.8917
16762TIP3   OH271700   1.115   3.019  11.226 -0.0666  0.2977  0.0860
16762TIP3    H171701   1.035   3.002  11.276 -0.5659  0.4114 -0.6517
16762TIP3    H271702   1.102   2.970  11.144  0.7686  0.0519  0.0990
16763TIP3   OH271703   4.503   5.166   0.023  0.4540 -0.9083  0.2350
16763TIP3    H171704   4.509   5.204  -0.065 -0.4764 -0.3126  0.4129
16763TIP3    H271705   4.409   5.158   0.039  0.6146 -0.9878  1.1853
16764TIP3   OH271706   6.381   1.411   5.194 -0.4431  0.0732  0.2503
16764TIP3    H171707   6.296   1.434   5.233 -1.4655 -2.8988  0.0504
16764TIP3    H271708   6.437   1.486   5.212 -2.3815  1.0736  2.7232
16765TIP3   OH271709   4.819   1.892   3.871 -0.6251 -0.4814 -0.5283
16765TIP3    H171710   4.864   1.952   3.812  1.6134 -0.3486  1.1767
16765TIP3    H271711   4.749   1.944   3.910 -0.1279  0.3688 -0.7497
16766TIP3   OH271712   4.759   4.438   3.653  0.3163 -0.0645 -0.0153
16766TIP3    H171713   4.828   4.451   3.588 -0.3933 -0.1103 -0.7941
16766TIP3    H271714   4.797   4.379   3.718  0.2723 -1.9698 -1.6182
16767TIP3   OH271715   4.159   2.309   4.860  0.3764  0.4614  0.2194
16767TIP3    H171716   4.122   2.296   4.947 -1.3707 -1.9133 -0.7959
16767TIP3    H271717   4.225   2.240   4.851 -0.9152 -0.6803 -1.0357
16768TIP3   OH271718   0.793   4.240   1.827  0.0332 -0.0517 -0.3770
16768TIP3    H171719   0.879   4.271   1.799  0.1614  0.3250  0.4035
16768TIP3    H271720   0.743   4.319   1.845 -0.4163 -0.2715 -0.6258
16769TIP3   OH271721   6.486   2.673   1.980  0.3782  0.1678 -0.1102
16769TIP3    H171722   6.536   2.754   1.987 -0.6606  0.6753  2.5675
16769TIP3    H271723   6.552   2.606   1.958  1.4350  1.5112 -1.1881
16770TIP3   OH271724   4.397   3.797  16.160 -0.0570  0.3656  0.0841
16770TIP3    H171725   4.321   3.747  16.189  0.7167  0.1745  1.8764
16770TIP3    H271726   4.363   3.886  16.147 -0.7311  0.1284  0.1799
16771TIP3   OH271727   0.015   0.278   4.448 -0.4783  0.8294 -0.2224
16771TIP3    H171728   0.056   0.211   4.394  2.0288  1.8218  0.3166
16771TIP3    H271729   0.078   0.294   4.519 -0.9929  3.6648 -0.2767
16772TIP3   OH271730   4.247   1.238  15.705  0.1999  0.1410  0.9512
16772TIP3    H171731   4.284   1.251  15.618 -0.1195 -2.7345  0.2789
16772TIP3    H271732   4.309   1.180  15.749 -1.1944 -1.0765  1.4063
16773TIP3   OH271733   2.624   0.663   0.837  0.2138  0.2387  0.1301
16773TIP3    H171734   2.656   0.752   0.822  5.1554 -1.1253  0.9154
16773TIP3    H271735   2.628   0.621   0.751  0.5730  0.0881  0.2161
16774TIP3   OH271736   6.200   4.920   4.681  0.2402  0.1254  0.2888
16774TIP3    H171737   6.291   4.938   4.704 -0.0382 -1.0653  2.6551
16774TIP3    H271738   6.185   4.830   4.709 -1.7184  0.3162  0.0547
16775TIP3   OH271739   1.869   6.721  10.611 -0.4416 -0.3387 -0.1027
16775TIP3    H171740   1.801   6.774  10.570 -0.2440 -0.6509 -0.8454
16775TIP3    H271741   1.881   6.646  10.552 -0.1361 -0.7873  0.5106
16776TIP3   OH271742   5.992   3.762  13.688 -0.1389 -0.7503 -0.0208
16776TIP3    H171743   5.918   3.740  13.745 -1.0985  0.3180 -0.8130
16776TIP3    H271744   6.013   3.853  13.709  0.4026 -0.7826 -0.3945
16777TIP3   OH271745   0.714   6.173  14.814 -0.3485 -0.2148 -0.0743
16777TIP3    H171746   0.741   6.261  14.785  1.8544 -0.4053  1.2203
16777TIP3    H271747   0.756   6.114  14.752  1.4501 -0.4715  1.3222
16778TIP3   OH271748   5.079   5.405   0.512 -0.4105  0.5070 -0.0971
16778TIP3    H171749   5.119   5.336   0.564 -0.1142  0.6898 -0.0811
16778TIP3    H271750   5.040   5.360   0.437 -0.9897  0.2192  0.3666
16779TIP3   OH271751   0.948   0.081  14.893  0.6362 -0.2108 -0.1226
16779TIP3    H171752   0.916  -0.008  14.878 -0.7741  0.0988  0.8439
16779TIP3    H271753   0.871   0.129  14.923  1.3527  1.3798 -0.7600
16780TIP3   OH271754   5.354   1.499   1.471 -0.3827  0.0087  0.0534
16780TIP3    H171755   5.294   1.573   1.469 -0.9347 -0.3853  1.0750
16780TIP3    H271756   5.310   1.430   1.422 -1.6315 -0.8627  2.2570
16781TIP3   OH271757   0.601   6.562   4.971 -0.4022 -0.1455 -0.0550
16781TIP3    H171758   0.619   6.509   4.893  0.5640 -0.0955  0.1205
16781TIP3    H271759   0.548   6.506   5.027  1.6562 -1.4433  0.6902
16782TIP3   OH271760   1.647   0.583  16.521 -0.0561  0.1198  0.6046
16782TIP3    H171761   1.649   0.556  16.430 -1.1926  1.1658  0.2474
16782TIP3    H271762   1.556   0.573  16.548 -0.6361  3.5190  0.4152
16783TIP3   OH271763   5.679   6.442   2.095 -0.6472 -0.0902  0.3547
16783TIP3    H171764   5.692   6.348   2.101 -1.6187 -0.2230  0.4099
16783TIP3    H271765   5.672   6.460   2.001  2.3823  0.3478  0.0971
16784TIP3   OH271766   2.982   0.792  13.656  0.4614  0.0837  0.1267
16784TIP3    H171767   2.929   0.834  13.725  0.4437 -0.2550  0.3201
16784TIP3    H271768   3.066   0.775  13.698 -0.1198 -1.7425  0.6230
16785TIP3   OH271769   3.481   0.639  13.538 -0.0247 -0.5951  0.4063
16785TIP3    H171770   3.438   0.578  13.479 -0.5433 -0.0567  0.2235
16785TIP3    H271771   3.475   0.723  13.494 -1.1545 -0.0255  1.5903
16786TIP3   OH271772   5.555   5.010   3.834  0.1703 -0.1108 -0.5910
16786TIP3    H171773   5.594   4.923   3.840  0.3865 -0.1060 -1.7418
16786TIP3    H271774   5.483   5.000   3.773 -1.4489 -0.0303  1.2238
16787TIP3   OH271775   5.877   3.300  11.057  0.1995  0.0362 -0.1997
16787TIP3    H171776   5.837   3.319  10.972 -1.2511 -1.0380  0.2182
16787TIP3    H271777   5.869   3.206  11.067 -2.6194  0.4027  2.4907
16788TIP3   OH271778   0.535   4.678   6.337  0.0088  0.2456  0.1516
16788TIP3    H171779   0.494   4.609   6.389  0.2610 -0.2832 -0.3355
16788TIP3    H271780   0.479   4.755   6.350 -0.6834 -0.2508  0.1286
16789TIP3   OH271781   3.750   4.542   4.104  0.2346 -0.2325  0.2406
16789TIP3    H171782   3.682   4.610   4.111 -1.8950 -2.3020  1.2351
16789TIP3    H271783   3.813   4.564   4.173  0.1962  1.2982 -0.1635
16790TIP3   OH271784   3.339   3.939  14.534  0.4443  0.0173  0.2835
16790TIP3    H171785   3.417   3.931  14.479 -0.0648 -0.7108 -0.3466
16790TIP3    H271786   3.270   3.967  14.474  0.5658  2.3742  1.1329
16791TIP3   OH271787   1.479   3.700   1.722  0.1041  0.5835  0.0648
16791TIP3    H171788   1.440   3.784   1.748 -0.5869  0.2616  0.1119
16791TIP3    H271789   1.443   3.637   1.786  0.8359  0.2997  0.2030
16792TIP3   OH271790   3.043   5.960  10.443 -0.1821 -0.3411 -0.8415
16792TIP3    H171791   3.123   5.923  10.479 -0.4528  0.2073  0.3727
16792TIP3    H271792   3.039   6.049  10.478 -1.3384 -0.3653 -0.8493
16793TIP3   OH271793   3.297   0.312  12.419 -0.2908 -0.0452 -0.1185
16793TIP3    H171794   3.340   0.345  12.340 -0.7555  2.1137  0.4506
16793TIP3    H271795   3.261   0.390  12.461 -0.8058 -1.2341  1.7917
16794TIP3   OH271796   1.389   2.000  11.327  0.0101  0.0705  0.1112
16794TIP3    H171797   1.401   2.050  11.407 -0.1520  0.4641 -0.1068
16794TIP3    H271798   1.450   1.927  11.335 -0.0726  0.0515  0.6358
16795TIP3   OH271799   0.441   3.632   2.717  0.4702  0.8777  0.1663
16795TIP3    H171800   0.475   3.716   2.689  1.4865 -0.9235 -5.1722
16795TIP3    H271801   0.368   3.615   2.658  0.6689 -2.2159  0.6413
16796TIP3   OH271802   6.244   6.502   2.645  0.6765 -0.0822  0.5219
16796TIP3    H171803   6.318   6.554   2.616  0.4013  0.2962  0.4963
16796TIP3    H271804   6.175   6.518   2.581  0.3851  0.0074  0.8525
16797TIP3   OH271805   3.128   5.187   4.217 -0.3990  0.0914  0.0494
16797TIP3    H171806   3.086   5.219   4.138 -0.1731  1.1038  0.3302
16797TIP3    H271807   3.209   5.146   4.186 -1.2963 -1.3936 -0.4369
16798TIP3   OH271808   0.351   2.497   4.013  0.2575  0.6281 -0.1304
16798TIP3    H171809   0.404   2.534   3.942 -0.7702  0.0403 -1.2322
16798TIP3    H271810   0.286   2.565   4.031 -1.1098 -0.2161 -1.5857
16799TIP3   OH271811   3.699   2.281  14.659  0.0200 -0.0920 -0.6404
16799TIP3    H171812   3.735   2.193  14.647  0.1078  0.1729 -2.7238
16799TIP3    H271813   3.611   2.277  14.620 -1.1974 -0.0034  1.9318
16800TIP3   OH271814   0.899   5.055   6.398 -0.0044 -0.1550  0.6949
16800TIP3    H171815   0.815   5.021   6.367  0.2055  0.8890 -1.2061
16800TIP3    H271816   0.883   5.149   6.410  0.8508  0.0261  0.4447
16801TIP3   OH271817   0.792   3.818  15.839 -0.4966 -0.8612 -0.2684
16801TIP3    H171818   0.794   3.904  15.797 -1.6827  0.1227  1.5384
16801TIP3    H271819   0.711   3.777  15.807 -0.6916 -0.6840 -0.0049
16802TIP3   OH271820   0.013   4.445   5.654 -0.1477  0.8703  0.1534
16802TIP3    H171821  -0.002   4.519   5.712 -0.2047  0.3196  0.8646
16802TIP3    H271822  -0.055   4.382   5.677  0.4204  0.2516  0.1621
16803TIP3   OH271823   1.172   2.985  10.258 -0.5371 -0.5896 -0.2229
16803TIP3    H171824   1.239   2.938  10.308  0.2863  0.2509 -0.4997
16803TIP3    H271825   1.107   3.009  10.323  0.5875  0.6151  0.5177
16804TIP3   OH271826   0.837   1.319  16.146 -0.2930 -0.1768  0.1874
16804TIP3    H171827   0.872   1.281  16.227 -1.8752 -4.7688 -0.9638
16804TIP3    H271828   0.751   1.278  16.135 -1.3351  2.3359 -2.5361
16805TIP3   OH271829   4.791   5.659  13.163  0.0965  0.0812 -0.0912
16805TIP3    H171830   4.881   5.655  13.130 -0.2301 -0.2575 -0.9510
16805TIP3    H271831   4.752   5.575  13.137 -0.1953 -0.1841  1.0989
16806TIP3   OH271832   3.897   5.342   0.803 -0.2916  0.2638 -0.1724
16806TIP3    H171833   3.989   5.365   0.787  0.2359 -0.7642  1.1594
16806TIP3    H271834   3.881   5.267   0.746  0.7128 -1.5711  1.8018
16807TIP3   OH271835   3.499   1.116  13.420 -0.1981 -0.0791 -0.1606
16807TIP3    H171836   3.516   1.210  13.426  0.4512 -0.2352  0.6420
16807TIP3    H271837   3.454   1.095  13.502  1.4362 -0.8079  0.5913
16808TIP3   OH271838   3.137   0.788  13.430 -0.0149  0.3428 -0.1388
16808TIP3    H171839   3.135   0.736  13.510 -1.6423  1.6015  0.6862
16808TIP3    H271840   3.126   0.879  13.459  0.8411  1.0010 -1.6870
16809TIP3   OH271841   0.378   4.666   5.646  0.4937 -1.0786 -0.2646
16809TIP3    H171842   0.442   4.736   5.656  1.2010 -1.2918 -2.6819
16809TIP3    H271843   0.430   4.586   5.641  0.1670 -1.2075 -2.7498
16810TIP3   OH271844   3.197   3.276   5.063 -0.1690  0.3869  0.6541
16810TIP3    H171845   3.152   3.233   5.136 -2.2970  1.8143  0.2629
16810TIP3    H271846   3.289   3.252   5.074 -0.7134 -1.0067  2.6737
16811TIP3   OH271847   6.374   2.357   1.824 -0.3099  0.3104 -0.3851
16811TIP3    H171848   6.429   2.279   1.818  0.9060  0.9696  1.5371
16811TIP3    H271849   6.370   2.377   1.917 -0.5888  2.5635 -0.8277
16812TIP3   OH271850   1.502   5.596   3.617  0.1315  0.0921  0.4944
16812TIP3    H171851   1.416   5.595   3.659 -0.2484  0.6406 -0.2475
16812TIP3    H271852   1.558   5.644   3.678 -0.1742  0.0617  0.8045
16813TIP3   OH271853   2.824   4.825  15.409  0.4877  0.3975  0.7246
16813TIP3    H171854   2.885   4.893  15.439 -0.7574  2.0252 -0.2559
16813TIP3    H271855   2.737   4.862  15.426 -0.2256 -0.2948 -1.1742
16814TIP3   OH271856   3.229   2.261  13.246 -0.1991  0.0217 -0.0052
16814TIP3    H171857   3.251   2.354  13.247 -0.5978  0.1245 -0.5922
16814TIP3    H271858   3.152   2.254  13.302 -0.1570  0.0390  0.0550
16815TIP3   OH271859   2.938   2.305  16.524  0.0571  0.1627 -0.5638
16815TIP3    H171860   2.980   2.324  16.608 -0.5257  1.5606 -0.5664
16815TIP3    H271861   2.860   2.254  16.548  0.7178 -0.7907 -0.4019
16816TIP3   OH271862   3.932   4.378  13.291 -0.1776  0.3999 -0.0363
16816TIP3    H171863   3.876   4.326  13.349 -2.0921  0.3318 -1.8220
16816TIP3    H271864   4.011   4.326  13.281 -0.8568 -0.7853  0.5351
16817TIP3   OH271865   3.183   2.803  14.821 -0.5410 -0.6458 -0.2475
16817TIP3    H171866   3.119   2.860  14.778  0.4689  0.1109 -0.7790
16817TIP3    H271867   3.230   2.761  14.749 -0.0678 -0.7817  0.1390
16818TIP3   OH271868   5.574   6.334  12.949  0.4355 -0.4405 -0.0760
16818TIP3    H171869   5.602   6.409  13.002  1.2544 -0.8208  0.0448
16818TIP3    H271870   5.638   6.266  12.968  1.0739 -0.4171 -1.9764
16819TIP3   OH271871   6.108   6.104  17.166 -0.1578  0.4559  0.2514
16819TIP3    H171872   6.122   6.187  17.121 -2.0784 -0.1422 -1.6354
16819TIP3    H271873   6.039   6.122  17.229  0.3031  0.5588  0.7347
16820TIP3   OH271874   3.994   4.904  13.901 -0.0729  0.4938 -0.8700
16820TIP3    H171875   4.083   4.870  13.902  0.3452  1.4644  1.6419
16820TIP3    H271876   3.942   4.834  13.861  1.6335 -0.5293 -1.3757
16821TIP3   OH271877   2.908   4.991   4.576 -0.1784  0.2379  0.0170
16821TIP3    H171878   2.819   5.025   4.571 -0.1753  0.2157 -0.2027
16821TIP3    H271879   2.918   4.962   4.666 -0.7305 -0.6659 -0.2016
16822TIP3   OH271880   5.064   6.386  16.882 -0.7756 -0.0729 -0.1413
16822TIP3    H171881   4.998   6.411  16.818 -0.0269  1.2801 -0.4114
16822TIP3    H271882   5.014   6.368  16.962 -1.4929  0.6679 -0.4133
16823TIP3   OH271883   5.919   3.711   5.726  0.0296 -0.3400  0.0042
16823TIP3    H171884   5.902   3.803   5.743  1.4213 -0.1911  0.7261
16823TIP3    H271885   5.898   3.666   5.808  0.0753 -0.5564 -0.0997
16824TIP3   OH271886   1.173   2.490   2.028  0.2569 -0.2828  0.0141
16824TIP3    H171887   1.140   2.578   2.015  1.3560  0.0764 -0.4566
16824TIP3    H271888   1.229   2.473   1.952  0.5421 -1.1535  0.3982
16825TIP3   OH271889   1.623   5.751  11.884 -0.4266  0.3967 -0.1942
16825TIP3    H171890   1.691   5.695  11.845 -0.1529  0.3808  0.3082
16825TIP3    H271891   1.541   5.709  11.858 -0.2625  0.6298 -1.1306
16826TIP3   OH271892   5.908   6.137   2.944  0.3884 -0.2614 -0.1731
16826TIP3    H171893   5.813   6.124   2.935 -0.1765  2.6951  0.4542
16826TIP3    H271894   5.919   6.174   3.031  1.9915  0.4027 -0.6148
16827TIP3   OH271895   1.234   1.324   1.165  0.4421 -0.2321 -0.8187
16827TIP3    H171896   1.312   1.369   1.132  1.6485 -2.5261 -1.3034
16827TIP3    H271897   1.196   1.281   1.088 -0.4561 -0.3580 -0.3180
16828TIP3   OH271898   5.788   3.882  15.971  0.4880  0.1239  0.5766
16828TIP3    H171899   5.868   3.871  15.920 -0.0372 -0.1816 -0.1961
16828TIP3    H271900   5.761   3.972  15.953 -0.3527 -0.3502 -0.6855
16829TIP3   OH271901   3.009   4.671   2.227  0.3346 -0.4531 -0.8481
16829TIP3    H171902   2.969   4.708   2.148  0.2273 -1.1792 -1.1434
16829TIP3    H271903   2.960   4.710   2.299 -0.1272 -0.4250 -1.1735
16830TIP3   OH271904   1.291   6.580  17.204 -0.5409 -0.0601  0.2699
16830TIP3    H171905   1.247   6.651  17.252 -0.2855  1.2741 -1.3607
16830TIP3    H271906   1.384   6.591  17.225 -0.5325 -0.0944  0.2506
16831TIP3   OH271907   2.191   5.252   5.545 -0.5707 -0.4929 -0.5860
16831TIP3    H171908   2.232   5.174   5.581 -0.3772 -0.3229 -0.4407
16831TIP3    H271909   2.261   5.297   5.498 -0.6277 -0.2867 -0.4753
16832TIP3   OH271910   5.100   6.343   3.939  0.0585 -0.2437 -0.6265
16832TIP3    H171911   5.052   6.418   3.904  0.5174  0.8808  1.0825
16832TIP3    H271912   5.136   6.373   4.022 -1.4761 -2.9308  1.1977
16833TIP3   OH271913   2.414   5.583  12.300 -0.0780 -0.0025  0.1335
16833TIP3    H171914   2.375   5.504  12.262  0.4666 -0.2083 -0.0078
16833TIP3    H271915   2.410   5.648  12.230  1.4130 -0.5357 -0.4944
16834TIP3   OH271916   1.846   1.350   2.614  0.1274 -0.3614  0.2053
16834TIP3    H171917   1.909   1.282   2.593  1.1432 -0.0677  2.1331
16834TIP3    H271918   1.785   1.309   2.675 -0.2570 -0.0181  0.0613
16835TIP3   OH271919   0.210   2.176   1.478 -0.3314  0.0146 -0.0607
16835TIP3    H171920   0.152   2.138   1.413  0.8728 -0.0615 -1.1279
16835TIP3    H271921   0.199   2.271   1.468 -0.7775 -0.0048  0.2231
16836TIP3   OH271922   0.708   0.698   1.005 -0.0147  0.1519 -0.0657
16836TIP3    H171923   0.795   0.677   1.039 -0.5193 -0.8785  0.6428
16836TIP3    H271924   0.663   0.614   1.003 -0.4536  0.4040 -2.0380
16837TIP3   OH271925   2.075   1.424   0.123 -0.1950 -0.8981 -0.3471
16837TIP3    H171926   2.115   1.506   0.150 -0.5606 -1.0433  0.6637
16837TIP3    H271927   1.997   1.451   0.073 -0.5706 -0.6186  0.3718
16838TIP3   OH271928   5.144   0.813   5.324 -0.2049 -0.0825  0.5580
16838TIP3    H171929   5.074   0.845   5.382  1.7769  1.9424  1.9888
16838TIP3    H271930   5.193   0.892   5.301  0.1699 -1.0947 -2.4933
16839TIP3   OH271931   2.002   1.203  12.252  0.0109  0.1414 -0.9338
16839TIP3    H171932   1.947   1.205  12.174 -2.0961  0.7198  0.4642
16839TIP3    H271933   2.038   1.292  12.257  2.4952 -0.6861 -2.7323
16840TIP3   OH271934   2.201   5.264  15.624  0.2316  0.1522 -0.2382
16840TIP3    H171935   2.143   5.203  15.579 -1.3237  1.3667  0.0596
16840TIP3    H271936   2.237   5.318  15.554  0.4038 -0.0957 -0.3433
16841TIP3   OH271937   4.329   6.138   5.843 -0.0923 -0.3998 -0.0512
16841TIP3    H171938   4.277   6.067   5.807 -1.4357  0.6766 -0.3274
16841TIP3    H271939   4.334   6.120   5.936 -0.8595 -0.5869 -0.0418
16842TIP3   OH271940   3.323   4.641   3.953  0.4713  0.3360 -0.1041
16842TIP3    H171941   3.310   4.730   3.985 -0.9746  1.3897 -3.1918
16842TIP3    H271942   3.235   4.603   3.949  0.9792 -0.9811  0.3833
16843TIP3   OH271943   0.706   2.650   0.645 -0.6339 -0.1786 -0.2271
16843TIP3    H171944   0.744   2.569   0.612 -0.8180  0.4493 -2.1272
16843TIP3    H271945   0.620   2.626   0.678 -1.7652 -0.4713 -3.0653
16844TIP3   OH271946   2.164   5.746  16.063 -0.5082 -0.8002 -0.6960
16844TIP3    H171947   2.198   5.727  16.150 -0.7192  2.3124  0.2103
16844TIP3    H271948   2.069   5.730  16.070 -0.5077 -0.6686 -0.3743
16845TIP3   OH271949   5.241   1.421   0.231 -0.3843 -0.1746 -0.1386
16845TIP3    H171950   5.286   1.352   0.281 -0.5770  0.2069  0.5724
16845TIP3    H271951   5.200   1.375   0.158  1.3668 -0.5116 -0.9601
16846TIP3   OH271952   1.600   2.135   2.821  0.3940  0.0333  0.0383
16846TIP3    H171953   1.574   2.110   2.732  0.4946  1.8102 -0.5225
16846TIP3    H271954   1.582   2.229   2.826  0.7908  0.0489  1.7625
16847TIP3   OH271955   5.388   5.109  12.735 -0.1141  0.4066  0.1195
16847TIP3    H171956   5.441   5.116  12.814  0.5623  2.4052 -0.4263
16847TIP3    H271957   5.441   5.055  12.676  0.7747  1.3078  0.0442
16848TIP3   OH271958   1.775   0.797   2.649  0.0862  0.4349 -0.0245
16848TIP3    H171959   1.736   0.710   2.641 -0.2952  0.6752 -0.8814
16848TIP3    H271960   1.706   0.851   2.688  0.6438  0.1464  1.4000
16849TIP3   OH271961   5.908   2.308   5.683 -0.6255  0.5350  0.5284
16849TIP3    H171962   5.862   2.248   5.742 -0.0389 -1.8963 -1.3408
16849TIP3    H271963   5.838   2.351   5.633 -1.1546  2.8922  3.0603
16850TIP3   OH271964   3.951   4.276   0.666  0.0545 -0.4627 -0.4168
16850TIP3    H171965   3.999   4.200   0.632  0.2411  0.0695 -1.4009
16850TIP3    H271966   3.975   4.347   0.606 -2.1237 -0.2292 -1.0843
16851TIP3   OH271967   5.642   6.571  14.417 -0.0312 -0.0287  0.2391
16851TIP3    H171968   5.595   6.552  14.336  0.2209 -1.3322  0.3670
16851TIP3    H271969   5.609   6.656  14.446 -0.7752  0.0315 -0.7532
16852TIP3   OH271970   4.256   6.510  11.590 -0.5064  0.0213  0.2490
16852TIP3    H171971   4.320   6.545  11.652  0.0399  2.3613 -1.4829
16852TIP3    H271972   4.290   6.535  11.504 -0.5715 -4.1456 -1.1927
16853TIP3   OH271973   6.718   6.142   2.111  0.6141 -0.5332 -0.1403
16853TIP3    H171974   6.807   6.172   2.091  0.7247 -0.5310  0.3530
16853TIP3    H271975   6.676   6.219   2.149  1.0594 -1.1211  1.6370
16854TIP3   OH271976   4.576   5.787  14.383  0.2463  0.4605  0.2502
16854TIP3    H171977   4.614   5.728  14.448 -0.0178 -0.3583 -0.3226
16854TIP3    H271978   4.650   5.818  14.331  0.1494 -1.5650 -1.2246
16855TIP3   OH271979   0.921   3.207   2.975 -0.0051  0.2656  0.3994
16855TIP3    H171980   0.855   3.148   2.938  1.3459 -1.6758  0.9465
16855TIP3    H271981   0.890   3.225   3.064  0.6310 -1.4645  1.0204
16856TIP3   OH271982   0.708   2.418   3.450 -0.0650  0.1416  0.2266
16856TIP3    H171983   0.615   2.402   3.465  0.3770 -1.7221  1.3553
16856TIP3    H271984   0.741   2.449   3.535  0.9343 -2.6138  0.9635
16857TIP3   OH271985   4.509   2.536   5.852  0.3699  0.1772 -0.0209
16857TIP3    H171986   4.446   2.567   5.917 -2.9483  2.1435 -3.7055
16857TIP3    H271987   4.568   2.611   5.838  1.4215 -0.4305  0.9648
16858TIP3   OH271988   0.435   6.299   5.681  0.3954  0.7319  0.5741
16858TIP3    H171989   0.411   6.391   5.672  0.5111  0.5695 -2.7083
16858TIP3    H271990   0.530   6.297   5.667  0.3637  0.1069  0.4243
16859TIP3   OH271991   3.991   5.161  12.348 -0.2557  0.0677  0.2322
16859TIP3    H171992   4.077   5.202  12.360  0.1879 -0.6162 -0.5304
16859TIP3    H271993   3.935   5.203  12.414  0.3133  1.4969 -0.1668
16860TIP3   OH271994   4.712   1.850   2.007  0.0475 -0.0759  0.0797
16860TIP3    H171995   4.663   1.933   2.010  0.5722  0.2741 -0.8105
16860TIP3    H271996   4.764   1.851   2.088 -1.2177 -0.3427  0.9166
16861TIP3   OH271997   6.068   2.891  16.932 -0.1665 -0.5212 -0.2392
16861TIP3    H171998   5.975   2.868  16.935 -0.2112 -0.3156  0.0430
16861TIP3    H271999   6.110   2.825  16.988 -0.2249 -0.2484  0.1317
16862TIP3   OH272000   0.285   3.704   6.670  0.4000 -0.1180 -0.3382
16862TIP3    H172001   0.358   3.734   6.724 -0.7055  0.6033  0.8289
16862TIP3    H272002   0.326   3.663   6.594  2.0077 -0.5440  0.7148
16863TIP3   OH272003   6.392   3.850  11.453 -0.3862 -0.7493  0.8373
16863TIP3    H172004   6.369   3.812  11.537  1.8277  2.5246  3.1409
16863TIP3    H272005   6.486   3.868  11.458 -0.2796  0.1447 -2.1075
16864TIP3   OH272006   6.185   2.244  12.761 -0.1797  0.0381  0.5055
16864TIP3    H172007   6.205   2.275  12.849  0.8206  0.0907  0.2674
16864TIP3    H272008   6.170   2.150  12.772 -0.3494  0.0958  0.7763
16865TIP3   OH272009   4.567   4.772  13.330 -0.2449 -0.0088 -0.2093
16865TIP3    H172010   4.605   4.685  13.341  0.1936  0.2493  0.3465
16865TIP3    H272011   4.473   4.760  13.347 -0.3593 -0.5717 -1.2030
16866TIP3   OH272012   1.760   4.792  11.789  0.0516  0.4639  0.4228
16866TIP3    H172013   1.695   4.789  11.859  0.5655  0.0211  0.8941
16866TIP3    H272014   1.714   4.832  11.715 -1.2739 -1.3409  0.1976
16867TIP3   OH272015   1.074   4.221   4.317  0.1307  0.7867 -0.2872
16867TIP3    H172016   1.065   4.204   4.410  1.0402  1.0015 -0.1417
16867TIP3    H272017   1.016   4.158   4.274 -0.0155  0.4434  0.4065
16868TIP3   OH272018   6.704   1.273   1.499  0.1751  0.2708  0.9149
16868TIP3    H172019   6.749   1.354   1.476 -1.4640  1.1740  0.7204
16868TIP3    H272020   6.748   1.205   1.447  1.0855  1.1410  0.5136
16869TIP3   OH272021   4.307   4.137  11.339 -0.5102  0.6524 -0.5632
16869TIP3    H172022   4.380   4.078  11.358 -1.7851 -0.7940  0.0457
16869TIP3    H272023   4.237   4.079  11.307 -1.1072  2.0980 -2.0044
16870TIP3   OH272024   3.986   1.451   5.549  0.0782 -0.1206 -0.0844
16870TIP3    H172025   4.071   1.411   5.526  0.8828  1.4683 -0.0336
16870TIP3    H272026   3.970   1.514   5.479  0.1095  1.2572  1.1048
16871TIP3   OH272027   5.184   2.553   6.125  0.1511  0.2299 -0.2635
16871TIP3    H172028   5.235   2.483   6.167  0.3421  1.0199  0.8552
16871TIP3    H272029   5.214   2.633   6.167 -1.3473  0.8141 -0.2518
16872TIP3   OH272030   1.241   1.301  16.848 -0.5202 -0.2204 -0.1280
16872TIP3    H172031   1.294   1.311  16.769  0.1112  0.3372  0.3652
16872TIP3    H272032   1.246   1.385  16.892 -0.7214 -0.5839  0.6051
16873TIP3   OH272033   2.677   5.437   5.499 -0.1743 -0.2691 -0.1189
16873TIP3    H172034   2.672   5.423   5.593 -0.5530 -1.4458 -0.2913
16873TIP3    H272035   2.715   5.524   5.489  2.9550 -1.3823  1.0685
16874TIP3   OH272036   6.204   1.006  16.833 -0.8079 -0.2604  0.4016
16874TIP3    H172037   6.129   0.990  16.890 -1.2128  0.9190  0.2239
16874TIP3    H272038   6.166   1.024  16.747 -0.3668  0.7521  0.3991
16875TIP3   OH272039   0.957   2.358   3.101 -0.3318  0.8345  0.3433
16875TIP3    H172040   0.904   2.336   3.024 -0.4977  0.3764  0.5847
16875TIP3    H272041   0.907   2.325   3.175 -1.0819  2.9124  0.8382
16876TIP3   OH272042   3.480   2.780  14.197 -0.4547 -0.3950  0.7245
16876TIP3    H172043   3.411   2.743  14.143  1.0594 -1.1028 -0.8326
16876TIP3    H272044   3.472   2.875  14.184 -1.0385 -0.4740  0.4601
16877TIP3   OH272045   4.929   3.560  13.872  0.1084  0.1180  0.2499
16877TIP3    H172046   4.915   3.471  13.905 -0.8362  0.6994  1.5123
16877TIP3    H272047   4.868   3.569  13.800 -0.4525  0.0363  0.7097
16878TIP3   OH272048   4.886   2.965  14.021  0.3014 -0.1110 -0.2775
16878TIP3    H172049   4.975   2.929  14.026  0.4087  0.0046 -1.2060
16878TIP3    H272050   4.875   3.014  14.102  1.1674  0.0437 -0.2478
16879TIP3   OH272051   1.900   1.234  14.903  0.1243  0.2133 -0.2111
16879TIP3    H172052   1.993   1.248  14.883  0.4674 -0.5777  0.7237
16879TIP3    H272053   1.867   1.182  14.830  1.2851 -2.4352  1.0129
16880TIP3   OH272054   6.597   5.187   5.312 -0.6504  0.3841 -0.4851
16880TIP3    H172055   6.648   5.223   5.240  0.7747 -3.0749 -1.4175
16880TIP3    H272056   6.651   5.115   5.346 -2.8181 -0.3537  1.7222
16881TIP3   OH272057   3.950   4.631  17.110 -0.0743  0.2162 -0.8741
16881TIP3    H172058   3.992   4.624  17.195  0.5015  0.4270 -1.1340
16881TIP3    H272059   4.021   4.617  17.047 -0.6806 -1.0711 -1.3159
16882TIP3   OH272060   2.779   0.242   6.134  0.0818 -0.0318 -0.3536
16882TIP3    H172061   2.775   0.164   6.079 -1.0041 -1.0165  1.0575
16882TIP3    H272062   2.688   0.272   6.141 -0.0661 -0.7757  1.9776
16883TIP3   OH272063   1.430   2.413  16.939  0.5239 -0.6073 -0.8563
16883TIP3    H172064   1.449   2.330  16.895  0.3566 -1.0006 -0.2127
16883TIP3    H272065   1.419   2.476  16.868 -1.2977 -1.5432 -1.4880
16884TIP3   OH272066   3.990   6.492  11.314  0.6969  0.4210  0.5010
16884TIP3    H172067   3.985   6.434  11.238  1.1059 -1.5291  1.8894
16884TIP3    H272068   4.014   6.578  11.278  0.5603 -0.3745 -1.5750
16885TIP3   OH272069   6.541   6.087   5.101  0.8046  0.0263  0.1271
16885TIP3    H172070   6.481   6.039   5.044 -0.0370  0.6426  0.4669
16885TIP3    H272071   6.504   6.076   5.189  2.0233 -0.8178  0.5629
16886TIP3   OH272072   4.927   1.291   1.826 -0.4839  0.5574 -0.1740
16886TIP3    H172073   4.991   1.297   1.897  1.8732 -1.9754 -1.8910
16886TIP3    H272074   4.868   1.220   1.853 -0.2144  0.3017 -0.2451
16887TIP3   OH272075   0.119   3.288  14.376  0.1870 -0.3540 -0.5153
16887TIP3    H172076   0.144   3.325  14.461 -0.8769  0.8585 -0.6959
16887TIP3    H272077   0.200   3.250  14.342  0.4909 -1.4456  1.3111
16888TIP3   OH272078   3.500   5.305   0.213 -0.0121  0.0346 -0.1796
16888TIP3    H172079   3.569   5.268   0.159  0.1066 -0.5142  0.3294
16888TIP3    H272080   3.470   5.382   0.166  0.9533  0.2781 -0.4032
16889TIP3   OH272081   4.104   0.473   5.323  0.3136  0.2474  0.0231
16889TIP3    H172082   4.059   0.443   5.402 -1.0774  1.1600 -0.3729
16889TIP3    H272083   4.033   0.492   5.262  0.7575  5.4832  0.6342
16890TIP3   OH272084   4.998   2.973  16.951  0.3094  0.7500 -0.4679
16890TIP3    H172085   5.046   2.947  16.872  2.0390  2.8344 -0.1885
16890TIP3    H272086   4.912   3.000  16.918  0.3418 -0.1693 -1.3724
16891TIP3   OH272087   1.887   3.191   3.060  0.5201 -0.1503 -0.3158
16891TIP3    H172088   1.944   3.157   2.991 -1.2890 -2.6885 -0.7085
16891TIP3    H272089   1.816   3.235   3.014  0.1506 -0.4107 -0.0012
16892TIP3   OH272090   6.426   4.547   2.956 -0.5383 -0.0767  0.3729
16892TIP3    H172091   6.483   4.592   3.018  1.5279  1.4081 -2.3895
16892TIP3    H272092   6.478   4.476   2.921 -0.1929  1.3433 -2.2561
16893TIP3   OH272093   3.385   5.470   3.140 -0.1306  0.1575 -0.3554
16893TIP3    H172094   3.402   5.557   3.102  1.5758 -0.5629 -1.3217
16893TIP3    H272095   3.422   5.474   3.228 -3.5715  1.6394  1.2052
16894TIP3   OH272096   4.500   0.794   3.914  0.0311  0.0198  0.0929
16894TIP3    H172097   4.459   0.724   3.864 -0.5578  0.4213 -0.0020
16894TIP3    H272098   4.511   0.758   4.002 -2.7973  0.6662  0.8218
16895TIP3   OH272099   6.027   3.267   1.191 -0.6903  0.1590  0.3515
16895TIP3    H172100   6.099   3.220   1.150 -0.4456  0.1722  0.7655
16895TIP3    H272101   5.951   3.247   1.136 -0.3147  0.3891 -0.2544
16896TIP3   OH272102   4.896   3.686  11.486  0.4766  0.0356  0.1107
16896TIP3    H172103   4.944   3.626  11.428  1.4954  1.2210 -0.3043
16896TIP3    H272104   4.940   3.770  11.475 -0.0832  0.5660  1.6921
16897TIP3   OH272105   5.576   3.945  15.744 -0.7013  0.4666 -0.0672
16897TIP3    H172106   5.483   3.923  15.739 -0.5782 -0.4663  1.2371
16897TIP3    H272107   5.605   3.909  15.828  0.9391  0.3542 -0.6439
16898TIP3   OH272108   1.912   1.775   3.316  0.2159 -0.2302  0.2060
16898TIP3    H172109   1.836   1.722   3.291 -0.3879  0.7824 -0.1918
16898TIP3    H272110   1.882   1.866   3.303  0.7405  0.2608  2.1825
16899TIP3   OH272111   5.703   2.510  17.138 -0.3897 -0.8200  0.2649
16899TIP3    H172112   5.770   2.506  17.206  1.1777  0.2619 -1.1457
16899TIP3    H272113   5.703   2.422  17.100  0.9065 -0.5726 -0.3320
16900TIP3   OH272114   4.021   5.773   4.852 -0.6553 -0.0010  0.2533
16900TIP3    H172115   4.023   5.868   4.859  2.3185  0.0644  0.0386
16900TIP3    H272116   3.998   5.756   4.761 -1.7588  0.4642  0.4337
16901TIP3   OH272117   4.177   0.589   4.104 -0.0023 -0.2626  0.5461
16901TIP3    H172118   4.143   0.673   4.135  0.9898  0.5770 -0.5459
16901TIP3    H272119   4.217   0.609   4.019 -0.3577 -1.9772 -0.0658
16902TIP3   OH272120   1.153   3.113  16.707  0.4022  0.5600 -0.1802
16902TIP3    H172121   1.162   3.101  16.802  0.3841 -1.4115 -0.3948
16902TIP3    H272122   1.173   3.206  16.693  1.1395  0.7195  1.6622
16903TIP3   OH272123   3.195   3.773  10.725 -0.4904  0.7917  0.4081
16903TIP3    H172124   3.213   3.848  10.668  0.4978 -0.1235 -0.5464
16903TIP3    H272125   3.103   3.781  10.748 -0.1600  2.8450  1.1635
16904TIP3   OH272126   4.510   4.548  12.068 -0.2800  1.0515  0.0601
16904TIP3    H172127   4.515   4.624  12.010 -0.8364  0.3541 -0.9323
16904TIP3    H272128   4.423   4.554  12.107 -2.7248 -1.8513 -4.1200
16905TIP3   OH272129   5.752   3.976  12.217  0.0814  0.0867  0.9293
16905TIP3    H172130   5.693   4.044  12.250  1.0217  1.7104 -0.5842
16905TIP3    H272131   5.707   3.894  12.239 -0.8809  1.1158  3.2180
16906TIP3   OH272132   4.353   1.323   3.417  0.1592 -0.1137 -0.0646
16906TIP3    H172133   4.264   1.333   3.384 -0.4015 -3.7605 -0.0480
16906TIP3    H272134   4.350   1.356   3.506 -0.6727  1.3564 -0.5929
16907TIP3   OH272135   0.603   4.771   3.727  0.0365 -0.6195 -0.6161
16907TIP3    H172136   0.693   4.798   3.747 -0.3185  0.9927 -1.0313
16907TIP3    H272137   0.608   4.734   3.639  0.3788 -1.0347 -0.4256
16908TIP3   OH272138   3.716   3.286   4.744 -0.0345  0.2985 -0.0891
16908TIP3    H172139   3.779   3.345   4.786 -0.2618  0.4633  0.0162
16908TIP3    H272140   3.766   3.205   4.732  0.6287  0.8628 -1.2802
16909TIP3   OH272141   2.451   5.427   0.287  0.0881 -0.3890 -0.2259
16909TIP3    H172142   2.363   5.465   0.297  0.4889  0.2560  1.0496
16909TIP3    H272143   2.444   5.340   0.325  0.6308  0.6532  2.5116
16910TIP3   OH272144   1.964   2.469   3.013 -0.2402  0.4932 -0.5236
16910TIP3    H172145   1.919   2.464   3.097 -1.9949 -2.5595 -1.4745
16910TIP3    H272146   1.903   2.512   2.954  0.5111  1.5862 -0.5247
16911TIP3   OH272147   4.241   2.233  15.169  0.5263  0.1605 -0.6810
16911TIP3    H172148   4.167   2.294  15.162  1.1720  0.9427 -0.7912
16911TIP3    H272149   4.210   2.154  15.124 -0.8597 -0.1435  0.7290
16912TIP3   OH272150   4.457   1.365   2.054  0.6159 -0.2494 -0.7017
16912TIP3    H172151   4.403   1.328   2.123 -1.5804  0.9712 -1.6400
16912TIP3    H272152   4.494   1.445   2.092  0.3067 -0.1569 -0.5926
16913TIP3   OH272153   5.992   6.712   1.266  0.7666  0.4803  0.3571
16913TIP3    H172154   5.905   6.728   1.301 -0.2991 -0.9215 -1.4511
16913TIP3    H272155   5.995   6.765   1.186  1.7276  0.8064  0.6006
16914TIP3   OH272156   2.886   1.972  14.745  0.7090  0.0585  0.3293
16914TIP3    H172157   2.910   2.065  14.743 -0.6161  0.4147 -0.3073
16914TIP3    H272158   2.967   1.926  14.722  1.3140  1.0583  0.3818
16915TIP3   OH272159   4.417   2.748   1.424 -0.5648  0.0770 -0.4679
16915TIP3    H172160   4.418   2.824   1.482 -2.2398  0.3787 -0.7893
16915TIP3    H272161   4.332   2.708   1.437  0.7072 -2.5196  0.6067
16916TIP3   OH272162   1.487   5.767  12.903  0.3060 -0.2994 -0.3747
16916TIP3    H172163   1.534   5.840  12.863  0.0033 -0.5780 -1.2547
16916TIP3    H272164   1.556   5.713  12.942  0.8123 -1.0474 -2.2086
16917TIP3   OH272165   5.157   6.681  16.641  0.0117 -0.3532 -0.7478
16917TIP3    H172166   5.225   6.631  16.596  1.3347  0.5780  0.1283
16917TIP3    H272167   5.108   6.615  16.691  0.5339 -0.9918 -1.0638
16918TIP3   OH272168   6.346   0.479  11.057 -0.1619  0.6485 -0.1024
16918TIP3    H172169   6.381   0.423  10.987 -1.0355 -0.2047  0.1216
16918TIP3    H272170   6.414   0.545  11.071  0.0298  0.8566 -1.7693
16919TIP3   OH272171   0.291   2.870   5.868  0.2247 -0.0475  0.4078
16919TIP3    H172172   0.247   2.919   5.798  1.8089  0.8905  0.0210
16919TIP3    H272173   0.220   2.839   5.924 -1.0159  0.1107 -1.0111
16920TIP3   OH272174   6.663   4.682   3.089 -0.3278  0.4021 -0.5033
16920TIP3    H172175   6.739   4.660   3.143 -0.0696 -0.0496 -1.0337
16920TIP3    H272176   6.635   4.767   3.121  0.5152  0.6642 -0.4192
16921TIP3   OH272177   2.502   3.609  15.844 -0.1195 -0.5378 -0.6929
16921TIP3    H172178   2.573   3.627  15.782  0.4753 -1.9856 -0.4564
16921TIP3    H272179   2.437   3.563  15.792  0.4148 -1.8281 -0.2560
16922TIP3   OH272180   5.525   6.595   2.334  0.2057  0.9931 -0.0358
16922TIP3    H172181   5.516   6.516   2.279  1.8006 -0.2227  1.3647
16922TIP3    H272182   5.520   6.667   2.271  0.8380 -0.2981 -1.6768
16923TIP3   OH272183   5.255   4.894   0.932  0.9082  0.1445  0.2252
16923TIP3    H172184   5.189   4.824   0.929 -1.8137  2.5617 -0.1806
16923TIP3    H272185   5.308   4.881   0.853  0.1212 -1.0971 -0.1275
16924TIP3   OH272186   6.560   1.770   2.975 -0.2042 -0.2849 -0.2990
16924TIP3    H172187   6.655   1.755   2.980  0.0213 -0.4816 -3.1181
16924TIP3    H272188   6.550   1.863   2.991  0.2614 -0.4918  1.4046
16925TIP3   OH272189   1.340   3.744  15.100 -0.1807 -0.0757  0.0919
16925TIP3    H172190   1.340   3.739  15.005  1.0664 -1.3265  0.1226
16925TIP3    H272191   1.352   3.653  15.129 -1.0706  0.2021  1.4612
16926TIP3   OH272192   5.700   0.700  11.038 -0.0876  0.7410 -0.3041
16926TIP3    H172193   5.724   0.765  10.972  0.9319  0.5954 -0.0918
16926TIP3    H272194   5.684   0.620  10.989  0.1913  0.7544 -0.4134
16927TIP3   OH272195   0.160   1.426   0.933 -0.1874  0.2337 -0.5551
16927TIP3    H172196   0.247   1.452   0.902  0.0898 -0.5861 -0.4794
16927TIP3    H272197   0.173   1.339   0.971 -0.5324  1.1681  1.8251
16928TIP3   OH272198   4.028   4.360   3.311  0.0991  0.2171 -0.0689
16928TIP3    H172199   4.102   4.352   3.371 -0.4881  0.8359  0.7557
16928TIP3    H272200   3.989   4.272   3.309 -0.7024  0.4859  1.5755
16929TIP3   OH272201   3.545   1.572   1.692 -0.0368  0.0868 -0.2840
16929TIP3    H172202   3.485   1.645   1.703 -0.1930  0.1535 -1.4376
16929TIP3    H272203   3.631   1.609   1.712 -0.2853  0.1437  0.7637
16930TIP3   OH272204   3.692   1.002  16.062  0.0600 -0.8501 -0.6670
16930TIP3    H172205   3.739   1.017  15.980  1.8115  0.9430  0.5556
16930TIP3    H272206   3.739   0.930  16.104  0.9486  0.0623 -0.0439
16931TIP3   OH272207   3.059   5.206   0.793  0.0146 -0.1992 -0.0773
16931TIP3    H172208   3.104   5.257   0.726  0.2017 -2.0342 -1.4362
16931TIP3    H272209   2.983   5.259   0.818  0.5633  1.0119 -0.9200
16932TIP3   OH272210   3.857   3.310  12.433  0.3093  0.4423  0.1051
16932TIP3    H172211   3.950   3.311  12.459  0.2994  0.7486  0.1383
16932TIP3    H272212   3.854   3.250  12.359  0.1519 -1.2873  1.4502
16933TIP3   OH272213   6.455   1.680   4.476 -0.0342 -0.3230 -0.7483
16933TIP3    H172214   6.414   1.613   4.532 -0.8775  3.1150  3.2175
16933TIP3    H272215   6.545   1.685   4.506  0.4857 -0.6632 -2.1522
16934TIP3   OH272216   2.076   4.840  16.551  0.1263 -0.5317 -0.1471
16934TIP3    H172217   2.157   4.796  16.578  0.2150 -0.5060 -0.3721
16934TIP3    H272218   2.016   4.769  16.529 -0.1383 -0.5726  0.6535
16935TIP3   OH272219   6.723   4.462  16.346 -0.3715  0.4613 -0.4081
16935TIP3    H172220   6.695   4.527  16.281  1.2086  0.0673 -1.5429
16935TIP3    H272221   6.658   4.468  16.416 -1.2113  2.0517 -1.2785
16936TIP3   OH272222   6.204   6.398   0.109  0.4017  0.8649  0.3327
16936TIP3    H172223   6.277   6.451   0.143  1.2257 -0.6466  1.0283
16936TIP3    H272224   6.135   6.411   0.174  1.3550 -0.5810  1.7232
16937TIP3   OH272225   2.789   0.976   3.303 -0.5677  0.0521  0.2327
16937TIP3    H172226   2.842   1.045   3.343 -1.2926  1.4635 -1.1152
16937TIP3    H272227   2.713   0.967   3.360 -0.0801 -0.2270  0.8494
16938TIP3   OH272228   5.374   2.050  12.671  0.3539  0.5386  0.8758
16938TIP3    H172229   5.348   2.098  12.592  2.3628 -0.1851 -0.3097
16938TIP3    H272230   5.425   1.977  12.638  0.5532 -0.2652  2.8479
16939TIP3   OH272231   0.691   0.188  14.647 -0.2354 -0.2561  0.2437
16939TIP3    H172232   0.756   0.118  14.638  3.1894  2.3683  2.1453
16939TIP3    H272233   0.647   0.169  14.730 -1.2735 -1.5065 -0.5584
16940TIP3   OH272234   2.603   6.117  11.142  0.0678  0.1531  0.3617
16940TIP3    H172235   2.694   6.119  11.112  0.4202 -2.0078  1.1363
16940TIP3    H272236   2.604   6.063  11.221 -2.0746 -1.0608 -0.3444
16941TIP3   OH272237   3.721   2.434  11.412  0.4388  0.1445 -0.3705
16941TIP3    H172238   3.767   2.353  11.433  0.2770 -0.1569 -1.1623
16941TIP3    H272239   3.642   2.432  11.466  1.2996  0.6382  0.9536
16942TIP3   OH272240   6.066   1.047  16.609  0.1630 -0.5234  0.1882
16942TIP3    H172241   6.006   1.115  16.637 -0.1635 -0.4540 -0.6541
16942TIP3    H272242   6.082   1.065  16.517 -0.8356 -2.2204 -0.3777
16943TIP3   OH272243   4.167   1.131   0.575 -0.4859  0.1988  0.1650
16943TIP3    H172244   4.079   1.168   0.587 -1.3113 -2.0450  1.6307
16943TIP3    H272245   4.201   1.177   0.498 -3.5849  0.0483 -1.4952
16944TIP3   OH272246   2.061   5.859  12.527 -0.3167  0.7855 -0.3953
16944TIP3    H172247   2.017   5.893  12.449 -0.7131  0.0837 -0.4843
16944TIP3    H272248   2.012   5.897  12.600 -1.9054 -0.9700 -0.4827
16945TIP3   OH272249   3.834   4.950  12.498 -0.2867  0.1545 -0.0509
16945TIP3    H172250   3.892   4.936  12.572  1.5426  1.0068 -1.2704
16945TIP3    H272251   3.814   5.043  12.500  0.1724  0.2819 -0.8903
16946TIP3   OH272252   0.904   1.543  13.397 -0.5362 -0.5034  0.4939
16946TIP3    H172253   0.880   1.616  13.341 -0.2654 -1.2232 -0.5965
16946TIP3    H272254   0.961   1.581  13.464 -1.8259  0.5743  1.0031
16947TIP3   OH272255   4.355   3.697  11.390 -0.6787  0.0223 -0.0120
16947TIP3    H172256   4.319   3.609  11.377 -1.2410  0.1757  0.4181
16947TIP3    H272257   4.448   3.689  11.369 -0.8331 -0.5436 -0.5226
16948TIP3   OH272258   0.013   2.330   4.729 -0.3968  0.3068  0.0199
16948TIP3    H172259   0.088   2.354   4.784 -0.1675 -0.5780  0.1073
16948TIP3    H272260   0.009   2.235   4.735 -1.3686  0.3264 -0.2007
16949TIP3   OH272261   1.903   1.314   5.826  0.2308  0.2491  0.2370
16949TIP3    H172262   1.843   1.339   5.755  0.0748 -0.3574  0.1534
16949TIP3    H272263   1.856   1.245   5.874  0.6575  0.1203  0.4711
16950TIP3   OH272264   1.540   5.056  12.931 -0.1961  0.6515 -0.1661
16950TIP3    H172265   1.496   5.140  12.915  0.0639  1.1779  1.6976
16950TIP3    H272266   1.572   5.062  13.021 -0.4088 -1.5811  0.1133
16951TIP3   OH272267   5.839   6.446  11.267  0.0249 -0.3415 -0.0891
16951TIP3    H172268   5.897   6.383  11.223 -1.6564 -1.3757 -0.9323
16951TIP3    H272269   5.752   6.407  11.259 -0.8461  1.3551  0.7879
16952TIP3   OH272270   5.827   4.631  16.956 -0.4607 -0.6059 -0.2814
16952TIP3    H172271   5.780   4.658  17.035 -0.8584 -0.3565 -0.5983
16952TIP3    H272272   5.829   4.709  16.902 -1.1677 -1.0609 -0.9915
16953TIP3   OH272273   0.687   1.383   2.965 -0.1298  0.0163  0.3031
16953TIP3    H172274   0.740   1.388   3.045  1.0313  0.6852 -0.4833
16953TIP3    H272275   0.722   1.453   2.909 -1.5077  0.1266 -0.4522
16954TIP3   OH272276   2.326   5.244   0.505  0.1925 -0.2602  0.0399
16954TIP3    H172277   2.354   5.160   0.470  0.4798 -0.7979  1.4806
16954TIP3    H272278   2.299   5.224   0.595 -0.4104  1.0633  0.1724
16955TIP3   OH272279   4.827   1.061  16.681 -0.1836 -0.7544 -0.4211
16955TIP3    H172280   4.886   0.986  16.678 -0.2330 -0.7686 -1.2599
16955TIP3    H272281   4.768   1.049  16.606  0.7859  0.8917 -1.5239
16956TIP3   OH272282   4.767   0.352  16.683  0.3345 -0.0200  0.4451
16956TIP3    H172283   4.831   0.380  16.618  1.4519 -0.0213  1.5047
16956TIP3    H272284   4.762   0.425  16.745 -1.3198  0.3245 -0.0404
16957TIP3   OH272285   2.307   0.159   0.711 -0.0907  0.3388  0.5284
16957TIP3    H172286   2.260   0.117   0.638  1.8386 -1.1950  0.0662
16957TIP3    H272287   2.257   0.238   0.729 -1.6804 -0.1702 -1.2359
16958TIP3   OH272288   1.457   0.963   5.891  0.0414 -0.2979 -0.6861
16958TIP3    H172289   1.499   0.974   5.976 -0.3525 -0.0910 -0.5138
16958TIP3    H272290   1.417   1.048   5.873 -0.7282 -0.6325 -0.6094
16959TIP3   OH272291   4.099   5.892   0.271 -0.6682 -0.0767  0.2089
16959TIP3    H172292   4.007   5.878   0.292 -0.9416 -1.3947 -1.5728
16959TIP3    H272293   4.114   5.835   0.195  1.0223  1.7933 -0.9349
16960TIP3   OH272294   0.334   0.289   4.945 -0.3775  0.4376  0.0514
16960TIP3    H172295   0.375   0.364   4.987 -1.0833  0.1424  1.2996
16960TIP3    H272296   0.293   0.325   4.866 -1.6374  1.5752  1.1920
16961TIP3   OH272297   4.722   3.695   2.518  0.4600 -0.2626  0.7190
16961TIP3    H172298   4.746   3.617   2.569 -0.1131 -1.2293 -0.4268
16961TIP3    H272299   4.771   3.686   2.437 -0.4512 -0.0030  0.1259
16962TIP3   OH272300   1.931   2.852  15.947 -0.4892  0.2377  0.0896
16962TIP3    H172301   1.915   2.768  15.903 -0.0558 -0.1349  0.6329
16962TIP3    H272302   2.025   2.851  15.967  0.1011  1.9512 -2.1553
16963TIP3   OH272303   1.426   3.728   4.293 -0.8106 -0.4358  0.2094
16963TIP3    H172304   1.391   3.644   4.262  0.6461 -0.8574 -0.3534
16963TIP3    H272305   1.372   3.793   4.248 -1.1019 -1.0654 -0.3890
16964TIP3   OH272306   6.015   4.659  11.765  0.0881  0.0048  0.0007
16964TIP3    H172307   6.038   4.735  11.712 -1.6190  0.1894 -0.5198
16964TIP3    H272308   6.091   4.601  11.758  0.7857  0.9892 -0.8299
16965TIP3   OH272309   3.547   1.296  15.642 -0.0972 -0.1236 -0.0443
16965TIP3    H172310   3.461   1.333  15.620  0.6722  0.4583 -2.3898
16965TIP3    H272311   3.536   1.202  15.628 -0.2277  0.0067 -0.8795
16966TIP3   OH272312   0.212   0.498  12.563 -0.1979  0.5705 -0.0962
16966TIP3    H172313   0.131   0.536  12.596  0.9174  2.2940  0.8084
16966TIP3    H272314   0.248   0.565  12.505  0.5678 -0.1883 -0.5201
16967TIP3   OH272315   2.014   5.723   0.198  0.4271  0.4610  0.0503
16967TIP3    H172316   1.960   5.691   0.270 -0.2480  1.4270 -0.0144
16967TIP3    H272317   1.957   5.718   0.121  0.7735  0.5025 -0.2131
16968TIP3   OH272318   0.430   3.637  14.632  0.0691  1.0618 -0.2721
16968TIP3    H172319   0.382   3.714  14.602 -0.2332  0.2419 -1.9935
16968TIP3    H272320   0.469   3.600  14.553 -2.2430 -2.2531 -0.0438
16969TIP3   OH272321   2.467   6.555   4.602 -0.4821 -0.6355 -0.0082
16969TIP3    H172322   2.421   6.620   4.655 -1.0131 -0.8953 -0.1421
16969TIP3    H272323   2.559   6.570   4.621 -0.2944  2.3596 -2.5035
16970TIP3   OH272324   6.167   1.527   4.469 -0.5165  0.4870 -0.1540
16970TIP3    H172325   6.118   1.609   4.462  0.2994  0.9430 -0.7991
16970TIP3    H272326   6.161   1.487   4.382 -2.8414 -1.3262  0.7554
16971TIP3   OH272327   0.726   5.985   0.012  0.4471  0.2427 -0.2895
16971TIP3    H172328   0.632   5.967   0.012  0.8146 -2.1231  0.8253
16971TIP3    H272329   0.732   6.080   0.023 -1.7905  0.4361 -0.1591
16972TIP3   OH272330   4.471   4.567  14.308  0.1131 -0.0909 -0.1398
16972TIP3    H172331   4.512   4.653  14.300 -0.3708  0.3250  1.5847
16972TIP3    H272332   4.531   4.517  14.362 -1.1523  0.2380  1.6517
16973TIP3   OH272333   4.737   3.017  11.980  0.4594 -0.5454 -1.0270
16973TIP3    H172334   4.772   3.084  12.039  0.0236  0.9065 -2.3409
16973TIP3    H272335   4.801   3.012  11.909 -1.0432  0.9272 -2.6014
16974TIP3   OH272336   6.188   1.113  11.790 -0.4544  0.0783 -0.0642
16974TIP3    H172337   6.111   1.097  11.736 -1.8571  0.4493  1.7499
16974TIP3    H272338   6.173   1.198  11.830 -0.4585 -1.0303  2.4762
16975TIP3   OH272339   6.362   4.213   4.362 -0.3346  0.6732  0.1590
16975TIP3    H172340   6.332   4.273   4.431 -0.4179 -0.1828  0.8819
16975TIP3    H272341   6.457   4.210   4.375 -0.4289 -0.0603  0.7186
16976TIP3   OH272342   4.112   1.778  17.199 -0.1803  0.3071  0.3261
16976TIP3    H172343   4.178   1.821  17.253 -1.4505  0.6443  1.6657
16976TIP3    H272344   4.077   1.709  17.255 -0.2474 -0.5744 -0.7519
16977TIP3   OH272345   4.164   1.183  16.899  0.1310  0.0699  0.0400
16977TIP3    H172346   4.116   1.201  16.819  0.2075 -2.0733 -0.5611
16977TIP3    H272347   4.206   1.266  16.922 -1.5898  1.2562 -0.9442
16978TIP3   OH272348   1.424   6.752   5.115 -1.0030 -0.2230 -0.0684
16978TIP3    H172349   1.397   6.751   5.023 -0.4428 -1.5173 -0.2516
16978TIP3    H272350   1.491   6.683   5.120  0.5681  1.3083  0.8425
16979TIP3   OH272351   1.079   2.173  16.709  0.2330  0.0776  0.3148
16979TIP3    H172352   1.009   2.219  16.662 -0.8964 -0.9170  0.9403
16979TIP3    H272353   1.063   2.193  16.801  1.4961  0.7758  0.3902
16980TIP3   OH272354   1.275   6.320   6.414  0.0136  0.4527 -0.6283
16980TIP3    H172355   1.193   6.348   6.455  0.2410 -1.3030  1.1949
16980TIP3    H272356   1.254   6.237   6.372  0.4367  0.9325 -1.8306
16981TIP3   OH272357   3.198   2.670   3.582 -0.2963 -0.5090 -0.0877
16981TIP3    H172358   3.164   2.581   3.576 -0.0960 -0.4969 -2.4940
16981TIP3    H272359   3.172   2.711   3.499 -0.0621  1.5682  0.8038
16982TIP3   OH272360   6.275   6.682  10.964 -0.3940  0.1179  0.1205
16982TIP3    H172361   6.329   6.633  10.902 -1.2731 -0.1323 -0.4703
16982TIP3    H272362   6.316   6.768  10.970  1.2444 -0.6969  1.2658
16983TIP3   OH272363   0.156   6.201  17.187  0.2144  0.3707 -0.0343
16983TIP3    H172364   0.154   6.251  17.268 -0.5417 -1.5567  1.2115
16983TIP3    H272365   0.065   6.180  17.168  0.4574 -0.0575 -0.8245
16984TIP3   OH272366   1.316   6.354  15.900 -0.1755  0.8819  0.3914
16984TIP3    H172367   1.313   6.406  15.980  0.5987 -1.1674  1.8514
16984TIP3    H272368   1.225   6.329  15.884 -0.2715  0.8078  1.0200
16985TIP3   OH272369   5.136   0.255  14.902 -0.4903  0.5783 -0.1311
16985TIP3    H172370   5.096   0.170  14.921 -0.4611  0.6165  0.1095
16985TIP3    H272371   5.139   0.260  14.807 -0.3337  0.2329 -0.1448
16986TIP3   OH272372   6.270   3.017  13.423  0.5966  0.0106  0.2855
16986TIP3    H172373   6.176   3.038  13.422  0.5179 -0.2782  0.9628
16986TIP3    H272374   6.273   2.923  13.442  1.0542  0.3036  1.7310
16987TIP3   OH272375   2.083   4.610   0.601  0.0229  0.1687  0.5866
16987TIP3    H172376   2.155   4.556   0.568 -0.0102 -0.2429  1.1720
16987TIP3    H272377   2.117   4.699   0.598 -0.3045  0.2870 -1.4545
16988TIP3   OH272378   6.556   4.837   4.399 -0.2300  0.2707  0.0355
16988TIP3    H172379   6.650   4.832   4.382 -0.0224 -0.2071  1.2171
16988TIP3    H272380   6.540   4.929   4.421  0.1103  0.2000  0.5959
16989TIP3   OH272381   4.446   5.401   5.389  0.4201 -0.2527  0.3593
16989TIP3    H172382   4.470   5.319   5.433 -0.1179 -1.3080 -1.2179
16989TIP3    H272383   4.350   5.398   5.384  0.4942 -1.1306 -2.4815
16990TIP3   OH272384   2.042   4.139  14.846 -0.2684  0.3490  0.3104
16990TIP3    H172385   2.076   4.189  14.771 -1.6435  0.3947 -0.3086
16990TIP3    H272386   2.092   4.057  14.843  0.5825  0.8517  0.1208
16991TIP3   OH272387   6.161   0.856   6.042  0.1589 -0.1217  0.6033
16991TIP3    H172388   6.244   0.865   5.995 -0.6616  1.1048 -0.6872
16991TIP3    H272389   6.182   0.801   6.117  1.4694 -2.5031 -1.3550
16992TIP3   OH272390   6.777   4.553   3.868  0.0791  0.0240  0.1202
16992TIP3    H172391   6.692   4.550   3.826  0.1384 -1.0610  0.0499
16992TIP3    H272392   6.840   4.544   3.796  0.1875 -1.4645  0.3617
16993TIP3   OH272393   1.279   0.175  16.801 -0.0284 -0.6345 -0.5052
16993TIP3    H172394   1.206   0.205  16.855  0.8218 -1.2632  1.0396
16993TIP3    H272395   1.238   0.131  16.727 -1.2079 -0.6270  0.1323
16994TIP3   OH272396   6.222   2.817   0.369  0.1148  0.1741  0.1654
16994TIP3    H172397   6.274   2.895   0.350 -0.6765  0.3206 -1.5813
16994TIP3    H272398   6.232   2.804   0.463  2.2524  0.9468  0.1078
16995TIP3   OH272399   3.248   1.947   3.822 -0.2632  0.3211 -0.1748
16995TIP3    H172400   3.339   1.969   3.843 -0.2167 -1.2665  1.5358
16995TIP3    H272401   3.197   2.021   3.856  0.0299 -1.0313  3.6232
16996TIP3   OH272402   4.080   3.072  12.386  0.0591  0.2852 -0.1734
16996TIP3    H172403   4.134   2.999  12.415  0.8437  1.6374  2.0740
16996TIP3    H272404   3.994   3.033  12.368  1.2940 -1.6442 -2.2362
16997TIP3   OH272405   6.196   5.499  11.695  0.1211 -0.0810  0.8841
16997TIP3    H172406   6.282   5.532  11.670 -0.0684  0.2015  0.5915
16997TIP3    H272407   6.154   5.574  11.738  0.1046 -0.2856  1.2231
16998TIP3   OH272408   2.127   2.972   3.656  0.4830  0.3430 -0.2437
16998TIP3    H172409   2.072   2.897   3.631  1.0243 -0.4782  0.9094
16998TIP3    H272410   2.190   2.981   3.584  0.1056 -0.0044 -0.6196
16999TIP3   OH272411   4.079   2.637  16.214  0.0541  0.3547 -0.6239
16999TIP3    H172412   4.062   2.628  16.120 -1.3184 -0.2169 -0.3488
16999TIP3    H272413   4.090   2.731  16.228  1.1882  0.3709 -1.4801
17000TIP3   OH272414   0.919   1.159   1.789 -0.2045  0.4717 -0.4475
17000TIP3    H172415   0.866   1.135   1.866  0.6292 -0.6321 -0.1994
17000TIP3    H272416   0.925   1.078   1.738  3.0908 -0.1179  0.6477
17001TIP3   OH272417   3.430   1.494   1.973  1.2271  0.5704  0.2553
17001TIP3    H172418   3.357   1.554   1.960  0.7889  0.3001  1.3652
17001TIP3    H272419   3.492   1.516   1.904 -0.5745 -0.2326 -1.7180
17002TIP3   OH272420   0.356   0.486   6.059 -0.0061  0.0705  0.0028
17002TIP3    H172421   0.365   0.582   6.055  2.4500 -0.1200 -1.3667
17002TIP3    H272422   0.327   0.468   6.148  2.7550  1.9620  1.4419
17003TIP3   OH272423   0.914   1.509   2.237  0.4911  0.7442  0.0199
17003TIP3    H172424   0.929   1.469   2.151  0.0009  1.7296 -0.5375
17003TIP3    H272425   0.823   1.539   2.234  0.2291  0.1217  1.1706
17004TIP3   OH272426   6.187   2.333   2.809  0.1168 -0.0786  0.1457
17004TIP3    H172427   6.199   2.239   2.803 -1.3177 -0.3051  0.4660
17004TIP3    H272428   6.093   2.346   2.797 -0.1869  1.0453  2.9734
17005TIP3   OH272429   2.999   0.465   4.119 -0.6529 -0.2961 -0.3987
17005TIP3    H172430   3.033   0.477   4.031  0.2044  1.7927  0.1451
17005TIP3    H272431   2.905   0.452   4.107 -0.1966 -2.9792 -1.7365
17006TIP3   OH272432   5.375   3.480  15.717  0.6578 -0.0657 -0.0403
17006TIP3    H172433   5.467   3.485  15.744  0.5806  2.0571  0.0062
17006TIP3    H272434   5.373   3.521  15.630 -0.0467 -1.4287 -0.7082
17007TIP3   OH272435   2.615   3.676   1.839 -0.4303 -0.6580  0.5787
17007TIP3    H172436   2.662   3.751   1.805 -1.4120 -0.3546 -0.1603
17007TIP3    H272437   2.527   3.709   1.858 -1.4332 -1.9579 -1.4191
17008TIP3   OH272438   3.826   0.706   3.587  0.0599  0.1935  0.4834
17008TIP3    H172439   3.804   0.680   3.497  1.7144 -1.1580  0.4067
17008TIP3    H272440   3.742   0.713   3.631 -0.7405 -0.1803 -0.9081
17009TIP3   OH272441   2.937   2.844  13.069 -0.6021 -0.2352  0.5094
17009TIP3    H172442   3.031   2.835  13.052 -0.8935 -3.4272 -0.1201
17009TIP3    H272443   2.895   2.813  12.989 -2.2586  1.4617  0.6451
17010TIP3   OH272444   3.070   3.603   5.109  0.3190  0.3072 -0.0403
17010TIP3    H172445   3.047   3.510   5.105  2.6498 -0.3120 -1.0155
17010TIP3    H272446   3.065   3.626   5.202  0.8527 -1.1343  0.3642
17011TIP3   OH272447   4.630   3.915  12.365 -0.3718 -0.3222  0.2921
17011TIP3    H172448   4.592   3.832  12.392 -0.6894 -0.1343  0.4334
17011TIP3    H272449   4.590   3.933  12.280  1.7238 -1.6385 -1.0689
17012TIP3   OH272450   1.104   2.059   1.459  0.1476  0.0467  0.4624
17012TIP3    H172451   1.107   1.968   1.429  0.7858 -0.4168  1.8281
17012TIP3    H272452   1.175   2.065   1.523 -0.9280  1.0515  1.6075
17013TIP3   OH272453   1.058   0.253  11.086 -0.3798  0.2445 -0.0405
17013TIP3    H172454   0.973   0.250  11.131 -0.1309 -0.3167  0.4005
17013TIP3    H272455   1.052   0.184  11.020 -0.6402  0.8811 -0.6951
17014TIP3   OH272456   2.847   2.656   3.945 -0.3367 -0.3005  0.7687
17014TIP3    H172457   2.824   2.566   3.967 -1.3674  0.0612  1.2065
17014TIP3    H272458   2.841   2.660   3.849 -0.5250 -0.6287  0.7666
17015TIP3   OH272459   3.480   6.467  11.399 -0.6998  0.5106 -0.3163
17015TIP3    H172460   3.479   6.421  11.315 -2.0829 -1.2420  0.5884
17015TIP3    H272461   3.387   6.475  11.422 -0.4409  2.8233  0.1106
17016TIP3   OH272462   4.894   4.657  12.822  0.4005 -0.2973  0.1921
17016TIP3    H172463   4.891   4.743  12.864  1.3154 -0.1081 -0.1141
17016TIP3    H272464   4.802   4.638  12.801  0.0931  0.2323  0.9935
17017TIP3   OH272465   3.075   5.448  15.761  0.3067  0.1461  0.3961
17017TIP3    H172466   3.144   5.440  15.696 -1.3625 -1.0850 -1.3202
17017TIP3    H272467   3.085   5.371  15.817  1.1344  0.6946  1.0324
17018TIP3   OH272468   2.439   3.078   5.480  0.0298  0.2451 -0.3676
17018TIP3    H172469   2.353   3.042   5.504  0.9257 -1.2369  0.7888
17018TIP3    H272470   2.484   3.006   5.438  0.4001  1.3067 -1.8704
17019TIP3   OH272471   5.083   2.443   6.695 -0.0865  0.3075  0.2219
17019TIP3    H172472   5.149   2.500   6.733  0.0054 -0.4326  1.2318
17019TIP3    H272473   5.065   2.480   6.609  2.0289  0.2248 -0.3089
17020TIP3   OH272474   4.890   2.687  14.752 -0.1887 -0.2548  0.5471
17020TIP3    H172475   4.868   2.768  14.798 -1.6703  0.1566 -0.8041
17020TIP3    H272476   4.977   2.703  14.716 -0.2885  0.5687  0.6550
17021TIP3   OH272477   4.665   6.152  16.695 -0.0070  0.2194  0.5402
17021TIP3    H172478   4.749   6.178  16.657  0.4586 -1.8360  0.0273
17021TIP3    H272479   4.613   6.123  16.620 -0.6978  0.2148  1.0122
17022TIP3   OH272480   5.923   6.670   2.197  0.4181 -0.1496 -0.0182
17022TIP3    H172481   5.892   6.582   2.221  0.8208  0.0247  1.2187
17022TIP3    H272482   5.878   6.690   2.115  2.0916 -2.4513 -1.6283
17023TIP3   OH272483   4.790   0.469   1.287 -0.0355 -0.0375  0.2447
17023TIP3    H172484   4.869   0.481   1.339 -0.3061  0.0001  0.6559
17023TIP3    H272485   4.800   0.527   1.212  0.5237 -0.3636  0.0641
17024TIP3   OH272486   0.114   3.714  15.219 -0.4143  0.6442 -0.5310
17024TIP3    H172487   0.105   3.790  15.162  0.0536  0.9250 -0.2353
17024TIP3    H272488   0.169   3.653  15.170 -0.6101  0.5855 -0.6777
17025TIP3   OH272489   5.959   3.986   5.509  0.0372  0.7072 -0.8227
17025TIP3    H172490   5.926   3.929   5.440  1.4408 -0.4570 -0.5839
17025TIP3    H272491   5.925   4.073   5.487 -2.3825 -0.2114 -1.0593
17026TIP3   OH272492   0.071   4.901  11.819 -0.0065 -0.3915  0.0212
17026TIP3    H172493   0.023   4.879  11.739 -0.6482  0.1121  0.2560
17026TIP3    H272494   0.033   4.844  11.886  0.0230 -0.2904  0.1235
17027TIP3   OH272495   0.371   4.215  16.924 -0.0691  0.1352  0.0830
17027TIP3    H172496   0.371   4.202  16.829 -1.1206 -2.4708  0.3403
17027TIP3    H272497   0.457   4.184  16.952 -0.4231 -0.8808  0.1092
17028TIP3   OH272498   6.782   3.900   5.020  0.3671 -0.4017  0.1748
17028TIP3    H172499   6.780   3.861   5.107  1.0408 -1.5202 -0.2999
17028TIP3    H272500   6.825   3.984   5.032 -0.9966  0.1867  1.1916
17029TIP3   OH272501   1.711   5.911  11.481 -0.5010 -0.0180  0.1264
17029TIP3    H172502   1.700   5.875  11.393 -1.8521 -1.5316  0.8634
17029TIP3    H272503   1.779   5.858  11.521 -1.4871 -0.8621  0.7329
17030TIP3   OH272504   6.164   3.751   1.052 -0.3691  0.7563 -0.2726
17030TIP3    H172505   6.257   3.774   1.056 -0.0710  0.3102 -2.9580
17030TIP3    H272506   6.119   3.836   1.053  0.2905  1.1836 -2.0663
17031TIP3   OH272507   5.760   1.107   3.861 -0.2106 -0.3218 -0.6599
17031TIP3    H172508   5.748   1.202   3.863 -2.2774 -0.5208  1.5661
17031TIP3    H272509   5.801   1.086   3.945 -2.4103 -1.5868  0.1929
17032TIP3   OH272510   1.802   3.427   5.758  0.1965  0.1391 -0.4652
17032TIP3    H172511   1.707   3.416   5.752  0.2077 -0.6536  0.5699
17032TIP3    H272512   1.814   3.503   5.814  0.1404 -1.0383  1.2460
17033TIP3   OH272513   6.109   2.382  13.366  0.4634  0.3080 -0.1072
17033TIP3    H172514   6.129   2.433  13.444  1.6530  0.0434 -0.2066
17033TIP3    H272515   6.120   2.443  13.293  0.3281  0.3079 -0.1277
17034TIP3   OH272516   5.659   5.509   2.355 -0.0156 -0.0192 -0.1197
17034TIP3    H172517   5.627   5.423   2.381 -1.1554  0.5691  0.5073
17034TIP3    H272518   5.754   5.503   2.362 -0.1628 -0.6116  1.9645
17035TIP3   OH272519   3.736   6.523  12.946 -0.2858 -0.1656  0.0883
17035TIP3    H172520   3.716   6.560  12.860 -3.6248 -0.7846  0.4546
17035TIP3    H272521   3.784   6.443  12.928  0.4266  0.5008 -1.0847
17036TIP3   OH272522   6.515   6.385   4.895  0.3740  0.1244 -0.0093
17036TIP3    H172523   6.427   6.354   4.917  0.4545  0.7043  1.2089
17036TIP3    H272524   6.560   6.391   4.979  0.9535  1.7315 -0.3987
17037TIP3   OH272525   1.443   0.676   6.343 -0.1000 -0.2837  0.3545
17037TIP3    H172526   1.371   0.702   6.285  0.4153  0.1674 -0.0967
17037TIP3    H272527   1.435   0.581   6.349 -0.0746 -0.3546 -0.5873
17038TIP3   OH272528   2.730   5.174  16.192 -0.2916 -0.6221 -0.5562
17038TIP3    H172529   2.659   5.111  16.207 -1.3494  0.5677 -0.3965
17038TIP3    H272530   2.793   5.157  16.262  0.9463 -3.4764 -2.2164
17039TIP3   OH272531   0.773   2.781  16.450  0.6091 -0.1111  0.6168
17039TIP3    H172532   0.807   2.788  16.361 -1.3910  1.1239 -0.1341
17039TIP3    H272533   0.842   2.817  16.505  0.8702  1.6154 -0.7403
17040TIP3   OH272534   6.471   6.513   3.904  0.2189 -0.5435 -0.3920
17040TIP3    H172535   6.426   6.595   3.884 -1.8683 -1.9277 -1.6677
17040TIP3    H272536   6.526   6.497   3.828 -1.1107 -1.4243 -1.2057
17041TIP3   OH272537   5.204   1.886  10.944  0.0291 -0.5065  0.1702
17041TIP3    H172538   5.195   1.914  10.853  1.4962 -0.1678  0.1149
17041TIP3    H272539   5.258   1.808  10.940 -0.4134 -0.8499  0.7131
17042TIP3   OH272540   1.438   1.333  12.392 -0.2125 -0.1442 -0.0642
17042TIP3    H172541   1.362   1.355  12.338  0.4430 -1.4927 -1.6324
17042TIP3    H272542   1.428   1.240  12.411  0.9178 -0.2930 -0.0993
17043TIP3   OH272543   2.894   1.610  11.227 -0.1582 -0.2581  0.6688
17043TIP3    H172544   2.894   1.522  11.188  0.2579  0.0650 -0.0921
17043TIP3    H272545   2.807   1.644  11.207  0.4957  0.4368 -1.3030
17044TIP3   OH272546   5.947   4.776   2.376 -0.0530  0.7555 -0.2599
17044TIP3    H172547   5.994   4.693   2.379 -0.7815  0.3594  0.4121
17044TIP3    H272548   5.973   4.822   2.456  0.7032  1.3888 -0.8480
17045TIP3   OH272549   3.274   1.696  16.916 -0.7245  0.1412  0.3837
17045TIP3    H172550   3.200   1.720  16.973 -1.5124  1.0270 -0.9586
17045TIP3    H272551   3.239   1.625  16.862  0.3692 -1.4691  1.6848
17046TIP3   OH272552   4.466   5.956  16.824  0.2841  0.0057  0.7343
17046TIP3    H172553   4.490   6.040  16.784 -0.3796 -0.5060 -0.8155
17046TIP3    H272554   4.386   5.974  16.873  0.3573  0.3637  0.7201
17047TIP3   OH272555   2.453   6.647   2.292 -0.3834  0.2478  0.0912
17047TIP3    H172556   2.388   6.658   2.223  1.5411  3.2706 -1.4977
17047TIP3    H272557   2.408   6.674   2.372 -2.1218 -1.4696 -0.2511
17048TIP3   OH272558   4.204   4.642   3.339 -1.2186 -0.3622  0.0799
17048TIP3    H172559   4.162   4.663   3.255 -1.1496 -0.0522  0.1216
17048TIP3    H272560   4.261   4.568   3.319  0.5028  1.1033 -0.6653
17049TIP3   OH272561   0.903   2.490   2.327  0.3372  0.5694  0.1577
17049TIP3    H172562   0.922   2.459   2.238  0.6468 -0.2655  0.5053
17049TIP3    H272563   0.988   2.489   2.372 -0.2872 -2.6112  1.5477
17050TIP3   OH272564   2.894   3.708  13.707  0.0330  0.3725  0.0892
17050TIP3    H172565   2.986   3.733  13.702 -0.0360  0.4892 -4.3167
17050TIP3    H272566   2.869   3.729  13.797  3.6105  2.7511  0.7570
17051TIP3   OH272567   6.540   0.475   1.186  0.7458 -0.4812  0.1192
17051TIP3    H172568   6.563   0.386   1.162 -0.9568 -0.9546  0.0884
17051TIP3    H272569   6.463   0.495   1.133 -0.4138  0.0865  1.9091
17052TIP3   OH272570   0.138   3.115   5.268 -0.0888  0.2301  0.4621
17052TIP3    H172571   0.112   3.155   5.351 -1.5399  1.8546 -0.6932
17052TIP3    H272572   0.067   3.054   5.247  0.9477 -1.2335  1.0352
17053TIP3   OH272573   0.344   5.171  16.048  0.1721  0.1725  0.0899
17053TIP3    H172574   0.417   5.136  15.997 -0.1328 -0.0379 -0.2036
17053TIP3    H272575   0.305   5.238  15.991  0.6484  0.8788  0.5786
17054TIP3   OH272576   4.286   3.363  14.239  0.0997 -0.1497 -0.5080
17054TIP3    H172577   4.369   3.409  14.250  0.3810 -0.5098 -1.0370
17054TIP3    H272578   4.293   3.287  14.297  0.1244 -0.1554 -0.5180
17055TIP3   OH272579   4.937   2.798   5.520 -0.0176  0.0210 -0.0160
17055TIP3    H172580   4.942   2.781   5.426 -2.3997 -0.3585 -0.1520
17055TIP3    H272581   4.988   2.878   5.533  0.9824 -0.3372 -1.4852
17056TIP3   OH272582   6.179   2.783   2.151  0.2685  0.3276  0.6247
17056TIP3    H172583   6.256   2.740   2.189 -1.0486 -1.2554  1.6254
17056TIP3    H272584   6.179   2.870   2.191  0.9356 -0.0332  1.4505
17057TIP3   OH272585   6.782   4.113  12.879 -0.0456 -0.2946 -0.1873
17057TIP3    H172586   6.834   4.184  12.916 -2.8495  1.3728  0.8514
17057TIP3    H272587   6.806   4.036  12.930 -0.9002  1.1192  2.5738
17058TIP3   OH272588   0.365   4.715   6.054  0.3142 -0.2178  0.1845
17058TIP3    H172589   0.439   4.753   6.007 -0.4410  0.2805 -0.6218
17058TIP3    H272590   0.387   4.622   6.060  1.1251 -0.0374  0.1800
17059TIP3   OH272591   5.173   1.336  11.362 -0.9710  0.1820 -0.2091
17059TIP3    H172592   5.183   1.293  11.277 -1.3691 -1.2182  0.4212
17059TIP3    H272593   5.219   1.279  11.423  1.3619  2.3761  0.2275
17060TIP3   OH272594   2.694   5.755  16.341  0.5473 -0.0383  0.0535
17060TIP3    H172595   2.667   5.799  16.422  4.0105  2.7785 -0.0558
17060TIP3    H272596   2.730   5.671  16.370 -0.4672 -0.1275  1.1219
17061TIP3   OH272597   2.013   1.377   2.975 -0.1630  0.3617  0.2618
17061TIP3    H172598   2.048   1.386   2.886 -0.0604 -1.3491  0.0823
17061TIP3    H272599   2.091   1.377   3.031 -0.1261  0.0771  0.2120
17062TIP3   OH272600   0.478   0.820   0.236 -0.4833 -0.5379  1.1107
17062TIP3    H172601   0.565   0.780   0.230  0.0498  0.7486 -2.5045
17062TIP3    H272602   0.418   0.752   0.203 -0.7030 -0.9286  2.2640
17063TIP3   OH272603   6.574   3.706  13.735  0.2757 -0.0854  0.0849
17063TIP3    H172604   6.667   3.691  13.750 -0.0443 -1.8685  0.4511
17063TIP3    H272605   6.540   3.622  13.707 -1.2390  0.5396 -0.0430
17064TIP3   OH272606   0.780   1.564  16.336  0.3408  0.1167 -1.0527
17064TIP3    H172607   0.803   1.478  16.304 -0.9011 -0.9439  0.7151
17064TIP3    H272608   0.828   1.573  16.419 -0.6777  0.4713 -0.4765
17065TIP3   OH272609   2.167   4.486  14.843  0.2756 -0.1420 -0.4425
17065TIP3    H172610   2.151   4.408  14.790  0.3569 -1.2308  1.0352
17065TIP3    H272611   2.258   4.477  14.873  0.3428  0.6102 -0.3989
17066TIP3   OH272612   3.795   1.178   2.903  0.2285  0.6265  0.6542
17066TIP3    H172613   3.827   1.108   2.960 -1.3829  0.4839  1.4392
17066TIP3    H272614   3.797   1.256   2.957  1.2123  1.0333  0.0460
17067TIP3   OH272615   6.331   6.485  16.265  0.0739  0.2867 -1.1417
17067TIP3    H172616   6.357   6.557  16.323 -1.4133 -0.8787  1.1250
17067TIP3    H272617   6.354   6.406  16.314 -0.8000 -0.7621 -2.3733
17068TIP3   OH272618   4.895   3.755   0.856  0.6925  0.9328  0.3123
17068TIP3    H172619   4.880   3.665   0.886  1.5206  0.6119 -0.1994
17068TIP3    H272620   4.870   3.810   0.930  1.9788  0.2030  1.3242
17069TIP3   OH272621   0.375   4.868  16.424 -0.8563 -0.1524 -0.4865
17069TIP3    H172622   0.382   4.960  16.399 -0.2987 -0.2465 -0.7107
17069TIP3    H272623   0.360   4.822  16.341  2.0621 -0.5811 -0.9026
17070TIP3   OH272624   3.031   5.130  13.980  1.0554  0.4041 -0.4389
17070TIP3    H172625   2.986   5.206  14.017 -0.1161  0.4822 -1.9303
17070TIP3    H272626   2.961   5.066  13.966  2.0128 -0.9706  0.7620
17071TIP3   OH272627   4.149   3.910  11.332  0.0878  0.4237 -0.1669
17071TIP3    H172628   4.195   3.834  11.368 -1.6102 -0.7017 -0.2231
17071TIP3    H272629   4.118   3.880  11.247 -0.6684  1.1583 -0.1596
17072TIP3   OH272630   1.846   1.458  17.217  0.3720  0.4203  0.3020
17072TIP3    H172631   1.889   1.518  17.156 -1.1531  0.0621 -1.1990
17072TIP3    H272632   1.777   1.417  17.166  0.7529 -1.9523  1.5468
17073TIP3   OH272633   0.026   2.396  11.252  0.2689  0.2276  0.0001
17073TIP3    H172634   0.108   2.415  11.207 -0.2671  0.0422 -1.1100
17073TIP3    H272635  -0.009   2.319  11.206 -1.6327  1.6634 -1.1286
17074TIP3   OH272636   3.556   0.113  11.033  0.6558  0.1728  0.0483
17074TIP3    H172637   3.518   0.201  11.033 -1.6843 -0.7390 -2.1171
17074TIP3    H272638   3.641   0.124  10.990  0.0653  1.2587 -0.8934
17075TIP3   OH272639   1.670   4.908  12.559 -0.2201 -0.6123  0.4885
17075TIP3    H172640   1.581   4.939  12.544 -0.0647  0.0972  0.9831
17075TIP3    H272641   1.673   4.889  12.653  0.0980 -0.7890  0.4427
17076TIP3   OH272642   0.370   4.715  14.495  0.1252 -0.6114 -0.3072
17076TIP3    H172643   0.288   4.751  14.463  0.2227 -0.5249 -0.4574
17076TIP3    H272644   0.367   4.728  14.590  0.3438  0.1615 -0.4065
17077TIP3   OH272645   1.201   4.334  15.414  0.5228  0.0461  0.5827
17077TIP3    H172646   1.177   4.425  15.431  0.7504  0.3160 -0.4282
17077TIP3    H272647   1.227   4.299  15.499  0.6178  0.9866  0.9499
17078TIP3   OH272648   4.978   1.344   4.853 -0.6686  0.5972 -0.6734
17078TIP3    H172649   4.980   1.404   4.928 -1.9505  0.8913 -0.8594
17078TIP3    H272650   4.892   1.303   4.858 -0.7009  0.5049 -1.9054
17079TIP3   OH272651   3.567   5.536  12.811  0.4406  0.1152 -0.1848
17079TIP3    H172652   3.572   5.600  12.882  0.0567 -0.0996  0.0367
17079TIP3    H272653   3.474   5.512  12.807  0.3824  0.4610 -1.0592
17080TIP3   OH272654   2.837   1.247  16.302 -0.0716 -0.4037  0.0974
17080TIP3    H172655   2.892   1.317  16.266  1.6858 -1.6989  0.0957
17080TIP3    H272656   2.789   1.213  16.227 -0.6835  0.5650  0.0382
17081TIP3   OH272657   3.056   1.413  15.174  0.5720 -0.3250  0.5904
17081TIP3    H172658   2.978   1.467  15.187  0.2410 -0.4092 -0.9006
17081TIP3    H272659   3.115   1.439  15.245 -0.8954 -0.4462  1.9243
17082TIP3   OH272660   4.182   0.872   0.164 -0.8559 -0.4582 -0.0193
17082TIP3    H172661   4.237   0.937   0.208 -1.2099  0.0689 -0.3513
17082TIP3    H272662   4.117   0.847   0.229 -0.2712 -1.0494  0.3611
17083TIP3   OH272663   3.311   0.546   3.962 -0.3218 -0.0987 -0.5672
17083TIP3    H172664   3.377   0.503   4.016 -1.3665  0.5108  1.2726
17083TIP3    H272665   3.317   0.638   3.985 -1.7727 -0.0217 -0.3977
17084TIP3   OH272666   2.165   0.760   5.266  0.3129 -0.4819  0.0234
17084TIP3    H172667   2.202   0.773   5.179  0.5088 -0.3841  0.1228
17084TIP3    H272668   2.091   0.700   5.252  0.4073 -0.5464 -0.1955
17085TIP3   OH272669   1.429   2.227   1.077 -0.6246  0.3140  1.0613
17085TIP3    H172670   1.515   2.264   1.094 -0.1209 -0.0223 -0.5714
17085TIP3    H272671   1.387   2.291   1.018 -0.4511 -0.7771 -0.2942
17086TIP3   OH272672   1.517   6.741  13.595 -0.3268  0.3918  0.4533
17086TIP3    H172673   1.448   6.797  13.632 -0.5582  2.5472 -2.8468
17086TIP3    H272674   1.598   6.787  13.616 -0.1939 -0.0920  1.0129
17087TIP3   OH272675   1.114   0.091   6.237 -0.5193  0.6034  0.0853
17087TIP3    H172676   1.109   0.017   6.299  0.1607 -0.5327 -1.1514
17087TIP3    H272677   1.175   0.061   6.170  0.2912  2.5790 -0.1254
17088TIP3   OH272678   5.605   3.200  10.767  0.3256 -0.7052  0.6357
17088TIP3    H172679   5.607   3.254  10.846  0.2605 -0.6745  0.6165
17088TIP3    H272680   5.622   3.262  10.696  0.2138 -0.7030  0.6107
17089TIP3   OH272681   3.547   6.200  13.239 -0.0476  0.2494 -0.3281
17089TIP3    H172682   3.608   6.273  13.251  0.9418 -0.6346  0.0749
17089TIP3    H272683   3.538   6.161  13.326  1.9949 -2.0997 -1.0791
17090TIP3   OH272684   5.967   0.186  16.005  0.1604  0.3992  0.0205
17090TIP3    H172685   5.953   0.211  16.097  0.6402 -1.6803  0.7013
17090TIP3    H272686   6.051   0.140  16.006  0.9714  1.7420 -1.7771
17091TIP3   OH272687   0.642   0.295   0.411 -0.2416  0.8406  0.2777
17091TIP3    H172688   0.725   0.324   0.447  0.1096 -0.3794  0.5095
17091TIP3    H272689   0.659   0.279   0.318 -0.2665  0.7693  0.2852
17092TIP3   OH272690   4.205   5.282  10.871 -0.2394 -0.3594  0.3250
17092TIP3    H172691   4.212   5.230  10.951 -0.6662 -2.2938 -0.8361
17092TIP3    H272692   4.293   5.317  10.857 -0.0278 -0.4799  1.3312
17093TIP3   OH272693   4.951   1.547  14.782  0.6877  0.0946 -0.0547
17093TIP3    H172694   4.932   1.631  14.823  0.3720  0.0677 -0.1464
17093TIP3    H272695   5.006   1.501  14.847  1.7318  0.7684 -0.4437
17094TIP3   OH272696   2.979   1.776  11.431 -0.0601  0.7108  0.1687
17094TIP3    H172697   3.075   1.779  11.430 -0.0027 -0.5065  0.2993
17094TIP3    H272698   2.955   1.738  11.346 -0.3823  0.3808  0.4033
17095TIP3   OH272699   5.296   1.014   2.216 -0.4709 -0.1500  0.0181
17095TIP3    H172700   5.275   1.067   2.140  0.9379 -1.0042 -1.0341
17095TIP3    H272701   5.313   1.077   2.286 -1.1891  0.6783 -0.5393
17096TIP3   OH272702   4.257   1.401   2.295  0.1239  0.7195 -0.3353
17096TIP3    H172703   4.289   1.471   2.352 -0.1807 -0.4595  1.3268
17096TIP3    H272704   4.189   1.444   2.242  0.1100  1.7423  0.4703
17097TIP3   OH272705   5.830   6.469   3.534  0.1460  0.1846 -0.3870
17097TIP3    H172706   5.754   6.491   3.588 -0.3977 -0.2424 -0.9585
17097TIP3    H272707   5.895   6.535   3.556 -0.4546  0.6597 -0.0042
17098TIP3   OH272708   1.417   0.837   1.659 -0.3161 -0.0324 -0.3455
17098TIP3    H172709   1.466   0.756   1.677 -0.6866 -0.0156  0.8424
17098TIP3    H272710   1.335   0.826   1.708 -0.1685  1.2621  0.2269
17099TIP3   OH272711   2.435   0.299   3.404 -0.1404  0.0901  0.1910
17099TIP3    H172712   2.390   0.383   3.393  0.2905  0.1221 -1.6743
17099TIP3    H272713   2.511   0.305   3.346  0.3311 -1.3072  0.6188
17100TIP3   OH272714   1.397   5.125   6.581 -0.4139  0.4768  0.6583
17100TIP3    H172715   1.449   5.044   6.578 -1.4694 -0.2196  0.7798
17100TIP3    H272716   1.317   5.104   6.533 -0.3607  1.7169 -0.0171
17101TIP3   OH272717   4.660   3.218  11.651 -0.3414  0.0629 -0.3072
17101TIP3    H172718   4.656   3.278  11.577 -1.0979 -0.7488 -0.9568
17101TIP3    H272719   4.723   3.257  11.711 -0.3405  1.1637 -1.0010
17102TIP3   OH272720   1.107   1.198   0.968  0.4984  0.3054 -0.1446
17102TIP3    H172721   1.037   1.256   1.000  1.2672  1.7319 -0.9611
17102TIP3    H272722   1.088   1.187   0.875 -0.3602 -1.8642  0.2301
17103TIP3   OH272723   0.402   4.730   1.079  0.1604 -0.3693 -0.2479
17103TIP3    H172724   0.385   4.824   1.079  0.5067 -0.3003  0.4708
17103TIP3    H272725   0.498   4.723   1.078  0.1341 -0.7237 -1.0402
17104TIP3   OH272726   1.632   2.013  12.893 -0.0904 -0.0849  0.6526
17104TIP3    H172727   1.595   1.934  12.854  0.7780 -0.6191  0.8800
17104TIP3    H272728   1.726   1.995  12.899  0.3470  1.5250 -0.6272
17105TIP3   OH272729   5.792   4.398  12.081  0.3657  0.2453  0.4760
17105TIP3    H172730   5.737   4.392  12.159 -0.6740  0.2741 -0.2425
17105TIP3    H272731   5.806   4.493  12.070 -0.7526  0.3447 -0.2232
17106TIP3   OH272732   2.386   1.280   3.365  0.0609 -0.5281 -0.2149
17106TIP3    H172733   2.409   1.347   3.430  0.7936 -0.7347 -0.2486
17106TIP3    H272734   2.382   1.198   3.416  2.7186 -1.0606 -0.7215
17107TIP3   OH272735   6.194   0.570  11.309 -0.5166  0.1881 -0.4232
17107TIP3    H172736   6.141   0.562  11.388 -0.7423  0.1015 -0.5840
17107TIP3    H272737   6.196   0.481  11.272 -0.0835  0.1470 -0.3014
17108TIP3   OH272738   2.984   4.857  12.520 -0.0361  0.3041  0.0278
17108TIP3    H172739   2.958   4.935  12.568  0.1409 -0.2390  1.0297
17108TIP3    H272740   3.073   4.838  12.551  0.7286  0.8463 -1.6922
17109TIP3   OH272741   5.096   4.889   1.352 -0.1681  0.3266  0.0786
17109TIP3    H172742   5.049   4.935   1.422 -0.8213  0.8757 -0.6913
17109TIP3    H272743   5.030   4.875   1.284  0.1837 -1.2054  0.0244
17110TIP3   OH272744   0.544   5.942   4.354 -0.4761  0.3978  0.3170
17110TIP3    H172745   0.522   5.867   4.408  2.5671 -0.5432  0.4359
17110TIP3    H272746   0.555   6.014   4.416  1.2255 -0.2563  0.8527
17111TIP3   OH272747   2.824   0.992   6.397  0.0924  0.1181  0.4047
17111TIP3    H172748   2.739   1.036   6.395  0.2744  0.4855 -2.0907
17111TIP3    H272749   2.803   0.900   6.411 -0.5837  0.3932  1.3206
17112TIP3   OH272750   3.030   1.184   3.334  0.2662  0.5691  0.6911
17112TIP3    H172751   3.036   1.089   3.337 -0.0285  0.4970 -0.3951
17112TIP3    H272752   3.120   1.214   3.348  0.4332  0.1170  0.6195
17113TIP3   OH272753   0.573   4.296   1.438 -0.4048 -0.1791 -0.5169
17113TIP3    H172754   0.596   4.370   1.382  1.0013 -1.5384 -1.8477
17113TIP3    H272755   0.549   4.227   1.377  1.6555 -1.8791  0.4565
17114TIP3   OH272756   1.791   5.159   3.427 -0.0728 -0.3174 -0.8229
17114TIP3    H172757   1.746   5.079   3.399 -1.8780  0.5064 -0.3982
17114TIP3    H272758   1.722   5.216   3.461  1.3045  1.0030 -0.0629
17115TIP3   OH272759   0.453   1.360   1.913 -0.2754 -0.5149  0.1028
17115TIP3    H172760   0.360   1.355   1.893 -0.0292 -3.0274 -0.7379
17115TIP3    H272761   0.496   1.314   1.841  1.5360 -0.2646  0.9699
17116TIP3   OH272762   0.560   5.195  14.247 -0.7553  0.0364  0.8042
17116TIP3    H172763   0.580   5.268  14.188 -0.3298 -2.0959 -1.8696
17116TIP3    H272764   0.521   5.128  14.191  1.8506 -3.1095  2.3616
17117TIP3   OH272765   2.446   5.572  10.712  0.0905 -0.6830  0.0546
17117TIP3    H172766   2.476   5.541  10.627 -0.6622  0.8889 -0.8288
17117TIP3    H272767   2.416   5.661  10.696 -0.2255 -0.4051  1.9439
17118TIP3   OH272768   2.810   0.170  11.548 -0.3066  0.4488 -0.1904
17118TIP3    H172769   2.817   0.133  11.460 -0.8467  1.8968 -0.8752
17118TIP3    H272770   2.899   0.168  11.582 -0.5526 -3.3738  0.6897
17119TIP3   OH272771   2.628   2.280  15.988 -0.7748  0.0666 -0.1348
17119TIP3    H172772   2.596   2.353  16.042 -0.8458 -0.9096  1.1890
17119TIP3    H272773   2.712   2.256  16.027 -0.4401 -0.1565 -0.9633
17120TIP3   OH272774   4.777   0.654  12.397  0.1937 -0.4494  0.4676
17120TIP3    H172775   4.688   0.618  12.393  0.2938 -0.6967  0.4064
17120TIP3    H272776   4.833   0.577  12.404  0.3919 -0.2842  0.6941
17121TIP3   OH272777   5.049   0.511  11.528  0.0048  0.1404  0.6630
17121TIP3    H172778   4.995   0.442  11.488  0.3717  0.6276 -0.7371
17121TIP3    H272779   5.054   0.487  11.620 -1.6695 -0.5218  0.6168
17122TIP3   OH272780   5.904   1.964  14.920 -0.5199  0.0577 -0.0714
17122TIP3    H172781   5.875   2.053  14.903  1.3301  0.9752  1.2124
17122TIP3    H272782   5.914   1.960  15.015  0.3969 -1.1779 -0.1907
17123TIP3   OH272783   1.088   5.351   1.733 -0.3177  0.2932 -1.0496
17123TIP3    H172784   1.129   5.407   1.799  0.4179  0.7506 -1.8710
17123TIP3    H272785   1.002   5.391   1.718  0.7369  2.1304 -2.6673
17124TIP3   OH272786   1.181   2.158   5.615  0.3565 -0.3746 -0.3091
17124TIP3    H172787   1.107   2.213   5.642 -1.0833 -1.4405 -1.8179
17124TIP3    H272788   1.254   2.218   5.604 -1.2563  1.3832 -2.3156
17125TIP3   OH272789   4.489   6.272  11.427 -0.2895  0.3709  0.5154
17125TIP3    H172790   4.415   6.220  11.397 -1.0510  1.6093  0.1631
17125TIP3    H272791   4.551   6.208  11.462 -1.5892 -0.6826  0.9718
17126TIP3   OH272792   0.634   2.012   6.349  0.4363 -0.5851 -0.5471
17126TIP3    H172793   0.724   1.995   6.323  1.4833  1.7085  1.2167
17126TIP3    H272794   0.641   2.081   6.415 -2.6567 -0.0650 -0.6298
17127TIP3   OH272795   4.434   1.973  16.027  0.0872 -0.3533  0.2849
17127TIP3    H172796   4.503   1.997  16.088  0.8311  1.3673 -1.1593
17127TIP3    H272797   4.443   2.034  15.954 -1.1616 -1.9087 -1.2741
17128TIP3   OH272798   4.261   1.129  11.637 -0.5136  0.4501 -0.2520
17128TIP3    H172799   4.280   1.207  11.584  2.8072  0.7287  1.0798
17128TIP3    H272800   4.241   1.061  11.572 -2.7362  2.1406 -1.4822
17129TIP3   OH272801   2.740   4.147   3.953 -0.3097  0.5389 -0.2331
17129TIP3    H172802   2.734   4.070   3.896  0.3823 -0.1070  0.5432
17129TIP3    H272803   2.828   4.182   3.936 -0.6963  1.3053 -0.7412
17130TIP3   OH272804   3.030   3.915  12.112  0.4110 -0.4963  0.7300
17130TIP3    H172805   3.086   3.840  12.130  2.7480  1.1709  0.7783
17130TIP3    H272806   3.041   3.972  12.189 -0.6171  0.3186  0.3015
17131TIP3   OH272807   6.585   1.329   0.866 -0.0387  0.1901 -0.3316
17131TIP3    H172808   6.599   1.251   0.919 -0.3788  1.0314  1.0689
17131TIP3    H272809   6.498   1.318   0.828  0.3161 -0.5433 -0.9467
17132TIP3   OH272810   3.975   0.162   1.984  0.1296 -0.5875 -0.2822
17132TIP3    H172811   3.892   0.205   2.005  0.5836  0.0545  0.2509
17132TIP3    H272812   3.959   0.069   2.000 -1.1433 -0.7682 -2.3284
17133TIP3   OH272813   6.516   2.655   3.710  0.0673 -0.4931  0.0437
17133TIP3    H172814   6.536   2.694   3.795  1.0839 -2.1590  0.6239
17133TIP3    H272815   6.583   2.690   3.651  1.9921 -2.4388  0.9180
17134TIP3   OH272816   6.357   2.046  12.316  0.0064  0.3572 -0.6593
17134TIP3    H172817   6.317   1.974  12.267  1.3636 -1.0957  0.2564
17134TIP3    H272818   6.285   2.106  12.334 -1.3086 -1.0574 -0.9828
17135TIP3   OH272819   5.093   5.985  15.808  0.2839 -0.1637 -0.6746
17135TIP3    H172820   5.143   5.964  15.729 -0.5593  0.1351 -1.3025
17135TIP3    H272821   5.107   6.078  15.822  1.0972 -0.3738  0.0224
17136TIP3   OH272822   0.829   1.755   6.353 -0.0070  0.0137 -0.1128
17136TIP3    H172823   0.874   1.827   6.398  1.0946  0.0518 -1.2380
17136TIP3    H272824   0.819   1.785   6.263 -0.7081 -0.7241 -0.2920
17137TIP3   OH272825   5.510   3.059   0.929  0.1339 -0.3576  0.1909
17137TIP3    H172826   5.416   3.068   0.942  0.0639  0.6217 -0.7565
17137TIP3    H272827   5.541   3.010   1.005 -1.0111  0.0423  0.9441
17138TIP3   OH272828   4.673   3.437   1.352  0.0043  0.4565  0.5131
17138TIP3    H172829   4.768   3.437   1.342 -0.0537 -1.6287 -0.8571
17138TIP3    H272830   4.657   3.377   1.425 -0.2723 -1.1264 -0.7823
17139TIP3   OH272831   1.136   1.034   1.468  0.4275  0.2969  0.1336
17139TIP3    H172832   1.138   1.130   1.470 -2.0354  0.4398 -0.5481
17139TIP3    H272833   1.146   1.012   1.375  2.8773 -0.2618  0.4687
17140TIP3   OH272834   3.765   5.120  16.783  0.5836 -0.9999  0.7596
17140TIP3    H172835   3.830   5.166  16.729 -0.1314 -1.2835 -0.3648
17140TIP3    H272836   3.778   5.027  16.763  0.2732 -1.1034  1.0265
17141TIP3   OH272837   2.236   0.985  15.262 -0.3476  0.1932 -0.8981
17141TIP3    H172838   2.274   1.050  15.320 -1.1193 -0.3595  0.2711
17141TIP3    H272839   2.156   1.025  15.229 -0.6564 -0.0224 -0.4290
17142TIP3   OH272840   1.215   3.374   1.183  0.6273 -0.2476 -0.5286
17142TIP3    H172841   1.236   3.281   1.174 -1.4814 -0.6764 -1.6511
17142TIP3    H272842   1.175   3.397   1.099 -1.2669  0.9802  0.6453
17143TIP3   OH272843   5.264   4.012   6.092 -0.1390  0.2891  0.2270
17143TIP3    H172844   5.188   4.022   6.149 -1.0316  0.0727 -0.8926
17143TIP3    H272845   5.318   4.088   6.111 -1.5113  1.4245 -0.2391
17144TIP3   OH272846   4.850   0.694   2.116  0.1586 -0.3815 -0.3269
17144TIP3    H172847   4.891   0.634   2.054 -0.4354 -0.6988 -0.4230
17144TIP3    H272848   4.792   0.639   2.169 -1.2939  0.2554 -1.1852
17145TIP3   OH272849   5.617   0.675   5.595 -0.4236 -0.5425  0.6034
17145TIP3    H172850   5.652   0.725   5.522 -1.6772 -1.4216 -0.6785
17145TIP3    H272851   5.523   0.670   5.577 -0.8220 -0.4776  2.4925
17146TIP3   OH272852   1.146   3.946  15.081 -0.1194 -0.3962 -0.6100
17146TIP3    H172853   1.199   3.866  15.088  0.8667  0.1845 -1.1638
17146TIP3    H272854   1.210   4.017  15.085 -0.9941  0.3788 -0.0266
17147TIP3   OH272855   4.244   5.931  14.385  0.4196  0.3072  0.1150
17147TIP3    H172856   4.185   5.946  14.311  0.8632  1.4767 -0.0236
17147TIP3    H272857   4.318   5.990  14.369  1.4434 -0.8338  0.4968
17148TIP3   OH272858   4.390   2.338   2.723 -0.3956 -0.6923 -0.3244
17148TIP3    H172859   4.379   2.410   2.661 -1.0853 -1.2496 -0.8637
17148TIP3    H272860   4.436   2.378   2.797 -2.8986  0.9234  0.4749
17149TIP3   OH272861   6.763   3.358   3.606  0.5261 -0.0244 -0.6340
17149TIP3    H172862   6.705   3.390   3.674  1.2520  0.5621 -0.2765
17149TIP3    H272863   6.716   3.284   3.567 -0.2228  0.1128 -0.0128
17150TIP3   OH272864   6.111   5.954  12.207 -0.2562  0.2138 -0.0094
17150TIP3    H172865   6.108   5.918  12.119  0.8714 -0.3416  0.1649
17150TIP3    H272866   6.196   5.927  12.242  0.1172  1.9755  0.5804
17151TIP3   OH272867   3.849   5.684  16.288 -0.1074  0.1122 -0.0043
17151TIP3    H172868   3.934   5.709  16.325 -0.7892  1.0822  0.9865
17151TIP3    H272869   3.808   5.768  16.264 -0.5014 -0.3847 -1.1319
17152TIP3   OH272870   2.512   2.427  13.624 -0.1656  0.2666 -0.0923
17152TIP3    H172871   2.577   2.390  13.564 -0.9631 -0.4796 -0.5017
17152TIP3    H272872   2.514   2.369  13.700  0.0741  0.6024  0.1663
17153TIP3   OH272873   5.818   5.139  16.603 -0.4416  0.4849 -0.3046
17153TIP3    H172874   5.772   5.113  16.524 -2.0847  0.6122  0.5675
17153TIP3    H272875   5.855   5.225  16.583 -1.9070  1.0803 -0.5385
17154TIP3   OH272876   3.234   5.776  14.816  0.4767  0.4064 -0.0090
17154TIP3    H172877   3.306   5.838  14.800  1.5909 -0.5288  1.1220
17154TIP3    H272878   3.232   5.766  14.911 -1.9889  1.3012  0.0942
17155TIP3   OH272879   0.659   6.013   3.396  0.1596 -0.1690 -0.0091
17155TIP3    H172880   0.659   5.925   3.433 -0.7826 -1.0018 -1.8284
17155TIP3    H272881   0.748   6.045   3.410  0.8265 -1.8368 -0.2135
17156TIP3   OH272882   0.913   3.387   1.156  0.0919 -0.1515  0.3378
17156TIP3    H172883   0.911   3.351   1.067  0.2798  0.6823 -0.0149
17156TIP3    H272884   0.909   3.311   1.213 -0.2335 -0.6886 -0.3885
17157TIP3   OH272885   4.253   1.663  12.332 -0.0331  0.3663 -0.5845
17157TIP3    H172886   4.198   1.729  12.376 -1.9138  0.8179 -3.3675
17157TIP3    H272887   4.326   1.714  12.296  0.1820  0.4080 -0.0921
17158TIP3   OH272888   5.562   1.134  13.902 -0.1122 -0.4583  0.4490
17158TIP3    H172889   5.504   1.210  13.895 -0.3238 -0.5953  0.6796
17158TIP3    H272890   5.593   1.137  13.993 -0.7988 -1.1345  0.7109
17159TIP3   OH272891   0.472   5.673  12.269  0.0390 -0.2289 -0.1246
17159TIP3    H172892   0.507   5.683  12.358 -2.1774  2.2259  0.6004
17159TIP3    H272893   0.538   5.713  12.212  0.5066  0.1711  0.6775
17160TIP3   OH272894   0.217   1.671   0.345 -0.3774  0.3385  0.4186
17160TIP3    H172895   0.245   1.626   0.265 -0.2023 -0.3987  0.8856
17160TIP3    H272896   0.136   1.626   0.370 -0.7918  1.0029  0.3036
17161TIP3   OH272897   1.441   0.502  15.902 -0.0288 -0.1977  0.5974
17161TIP3    H172898   1.386   0.445  15.847 -0.7100  0.7791  0.2394
17161TIP3    H272899   1.528   0.497  15.863 -0.1941 -0.5952  0.2687
17162TIP3   OH272900   0.335   3.410  12.378  0.2020  0.3719 -0.6741
17162TIP3    H172901   0.344   3.448  12.466  0.5207 -0.9640 -0.1005
17162TIP3    H272902   0.424   3.409  12.344  0.4074 -1.0312 -0.1542
17163TIP3   OH272903   3.870   5.423   5.314  0.0669  0.8047 -0.1585
17163TIP3    H172904   3.853   5.415   5.408 -0.8982 -1.6629 -0.4566
17163TIP3    H272905   3.823   5.503   5.288 -0.8947  0.7283  1.2166
17164TIP3   OH272906   4.752   1.788  12.972 -0.1611  0.1475  0.0053
17164TIP3    H172907   4.709   1.741  12.900  0.8679 -0.9650  0.0741
17164TIP3    H272908   4.841   1.754  12.972  0.4448  1.6572  0.5047
17165TIP3   OH272909   0.876   6.198   4.618  0.3501 -0.2517  0.2555
17165TIP3    H172910   0.870   6.286   4.581  0.0153 -0.1052  0.6475
17165TIP3    H272911   0.968   6.187   4.641  0.4413 -0.1073 -0.0466
17166TIP3   OH272912   2.474   1.470   2.037  0.2734  0.2990  0.5978
17166TIP3    H172913   2.539   1.400   2.040  1.1382  1.0071 -0.6956
17166TIP3    H272914   2.396   1.429   2.001  0.3809 -0.2927  1.0393
17167TIP3   OH272915   2.444   6.448   3.672 -0.6580  0.2099 -0.1591
17167TIP3    H172916   2.381   6.492   3.615  0.6526  1.0836 -0.9931
17167TIP3    H272917   2.491   6.388   3.614  0.8921  1.3177 -0.1375
17168TIP3   OH272918   5.962   4.943   5.049  0.1860 -0.4490  0.0061
17168TIP3    H172919   5.982   4.917   5.139  3.3241 -0.0116 -0.4773
17168TIP3    H272920   5.893   4.882   5.022 -2.0288  0.4178  3.1215
17169TIP3   OH272921   1.635   5.126   6.304  0.0972 -0.4521 -0.4901
17169TIP3    H172922   1.704   5.130   6.370 -0.0076 -1.5184 -0.2951
17169TIP3    H272923   1.662   5.057   6.244 -1.4104 -1.8933  0.3655
17170TIP3   OH272924   0.423   0.752   6.028  0.4353 -0.1857 -0.3559
17170TIP3    H172925   0.350   0.813   6.036 -0.4710 -1.2854  0.1961
17170TIP3    H272926   0.501   0.807   6.026 -0.3878  1.0033 -0.5608
17171TIP3   OH272927   2.742   6.733  13.687 -0.4196  0.7780  0.1112
17171TIP3    H172928   2.684   6.672  13.641 -0.1560 -0.9756  1.9703
17171TIP3    H272929   2.697   6.750  13.770  1.7205 -0.7778  1.6896
17172TIP3   OH272930   3.276   2.224   6.667 -0.1749  0.6912 -0.4521
17172TIP3    H172931   3.339   2.221   6.595  1.8168  2.6703  1.0667
17172TIP3    H272932   3.269   2.133   6.697  1.3563  0.3049 -1.1806
17173TIP3   OH272933   2.934   0.130   0.483 -0.2002 -0.3674 -0.0400
17173TIP3    H172934   2.899   0.058   0.536 -0.1111  1.3090  2.4779
17173TIP3    H272935   3.008   0.163   0.534 -0.0262  1.2987 -1.3018
17174TIP3   OH272936   0.578   0.177  11.697  0.0539 -0.0126 -0.0275
17174TIP3    H172937   0.595   0.235  11.770  2.1785  0.1942 -0.6357
17174TIP3    H272938   0.586   0.232  11.619 -1.4387 -0.3868 -0.4856
17175TIP3   OH272939   0.334   3.747   5.825 -0.2751 -0.1943  0.5064
17175TIP3    H172940   0.362   3.656   5.824  1.6004  0.3491  0.6052
17175TIP3    H272941   0.267   3.750   5.894 -0.9178 -1.6114 -0.0026
17176TIP3   OH272942   6.060   3.064  11.389 -0.3148 -0.0301  0.0587
17176TIP3    H172943   6.110   3.098  11.315 -0.1162  0.9888  0.6381
17176TIP3    H272944   6.119   3.000  11.430  0.1762  0.5135  0.2176
17177TIP3   OH272945   5.845   1.797   0.698 -0.4700 -0.2935 -0.5325
17177TIP3    H172946   5.758   1.758   0.707 -1.4944  1.7946 -0.7239
17177TIP3    H272947   5.869   1.783   0.606 -0.2748 -1.4576 -0.3206
17178TIP3   OH272948   2.237   1.486   2.762 -0.5055 -0.2046  0.1226
17178TIP3    H172949   2.269   1.549   2.697  1.0209 -1.5913 -0.5413
17178TIP3    H272950   2.312   1.430   2.780 -1.8352 -1.9048  0.6320
17179TIP3   OH272951   6.007   0.632  14.619 -0.5469  0.6186  0.1274
17179TIP3    H172952   5.990   0.654  14.710 -0.0903  1.2825  0.0547
17179TIP3    H272953   5.942   0.564  14.598 -0.1092 -0.1502  1.1810
17180TIP3   OH272954   0.854   4.838  14.114 -0.6662  0.2944 -0.7440
17180TIP3    H172955   0.935   4.805  14.154 -1.1069 -1.2741 -1.0637
17180TIP3    H272956   0.808   4.881  14.185  1.3071  3.0591 -0.9668
17181TIP3   OH272957   5.121   4.758   6.840  0.3634  0.2252 -0.2212
17181TIP3    H172958   5.067   4.836   6.850 -1.9542 -1.1269 -1.4629
17181TIP3    H272959   5.169   4.773   6.758  0.8734  0.8227  0.1706
17182TIP3   OH272960   5.163   1.162   5.457  0.4868  0.4846  0.1621
17182TIP3    H172961   5.200   1.241   5.497 -0.7456  0.6242  1.0935
17182TIP3    H272962   5.111   1.122   5.527  0.1896 -0.5512 -0.6300
17183TIP3   OH272963   3.079   2.280   4.480  0.2692  0.2475 -0.2563
17183TIP3    H172964   3.170   2.266   4.507  0.0664 -0.8693 -0.1225
17183TIP3    H272965   3.053   2.360   4.526  0.5770 -0.4976  1.2552
17184TIP3   OH272966   2.384   1.801   1.407 -0.6063 -0.2839  0.4318
17184TIP3    H172967   2.455   1.863   1.422  0.4686 -1.4127  0.1954
17184TIP3    H272968   2.360   1.814   1.315  0.0692 -0.6529  0.1954
17185TIP3   OH272969   0.058   3.338  13.055 -0.0561  0.2874 -0.1556
17185TIP3    H172970  -0.021   3.295  13.087  0.7987 -0.8771  0.4912
17185TIP3    H272971   0.130   3.281  13.085  0.8699 -0.5747 -3.5741
17186TIP3   OH272972   5.569   5.175   3.019 -0.0209 -0.6742  0.6057
17186TIP3    H172973   5.524   5.160   2.936  2.2569  1.9657 -1.3351
17186TIP3    H272974   5.501   5.208   3.078 -1.2897 -0.1731 -1.0598
17187TIP3   OH272975   1.935   1.559  13.831  0.4207 -0.0977 -0.1232
17187TIP3    H172976   1.883   1.563  13.911 -0.0639  1.0191 -0.4711
17187TIP3    H272977   1.870   1.552  13.761  0.8382 -1.0413 -0.4374
17188TIP3   OH272978   3.463   3.307  14.579  0.1010 -0.1381  0.0092
17188TIP3    H172979   3.557   3.303  14.594  0.7644  1.1868 -2.9697
17188TIP3    H272980   3.440   3.219  14.549  0.5052 -0.3402  0.2935
17189TIP3   OH272981   1.646   3.121   2.105  0.2897 -0.4233 -0.1459
17189TIP3    H172982   1.736   3.113   2.073 -0.4057 -1.4818 -2.0282
17189TIP3    H272983   1.593   3.128   2.025 -1.0711  4.1087  0.8518
17190TIP3   OH272984   6.338   4.048  15.279  0.1611 -0.4863 -0.2503
17190TIP3    H172985   6.371   3.959  15.272  2.1574  0.1489  0.4532
17190TIP3    H272986   6.291   4.050  15.363  1.2115 -0.5528  0.3466
17191TIP3   OH272987   0.346   5.167   0.096  0.5230  0.0186  0.4186
17191TIP3    H172988   0.295   5.102   0.048  0.0604  0.2707  0.5549
17191TIP3    H272989   0.286   5.241   0.108  0.0610 -0.6447  2.7726
17192TIP3   OH272990   2.430   4.316   0.740  0.0691  0.3184  0.3093
17192TIP3    H172991   2.482   4.288   0.664 -0.1250 -0.7131  0.5342
17192TIP3    H272992   2.443   4.246   0.804 -0.9801  0.4280  0.6530
17193TIP3   OH272993   1.375   6.519  13.678  0.2831  0.4365 -0.4816
17193TIP3    H172994   1.418   6.600  13.651 -0.4067  1.4267  1.2884
17193TIP3    H272995   1.445   6.468  13.719  0.3893  0.7889 -0.2236
17194TIP3   OH272996   0.032   5.436  12.276 -0.1486 -0.1546  0.0626
17194TIP3    H172997  -0.057   5.465  12.295  0.4743  1.7701  0.2571
17194TIP3    H272998   0.085   5.515  12.286  1.5127 -1.1560 -0.5373
17195TIP3   OH272999   1.167   4.459  13.249 -0.4206  0.0793  0.1613
17195TIP3    H173000   1.259   4.436  13.259 -0.8648 -1.0458  2.2832
17195TIP3    H273001   1.121   4.375  13.252 -1.7232  0.7554  2.7991
17196TIP3   OH273002   5.167   0.158  10.986 -0.0083  0.3570  0.0864
17196TIP3    H173003   5.100   0.197  11.042 -0.1613  0.6565 -0.3026
17196TIP3    H273004   5.168   0.212  10.907  0.5383  0.2248 -0.0040
17197TIP3   OH273005   4.322   6.546  14.858 -0.3801 -0.2179  0.0710
17197TIP3    H173006   4.338   6.453  14.872  4.2589  0.4118  0.6225
17197TIP3    H273007   4.280   6.551  14.772  1.8028 -2.7650 -1.2866
17198TIP3   OH273008   3.072   1.852   2.859 -0.0009 -0.5514 -0.2604
17198TIP3    H173009   3.117   1.812   2.785 -0.4811 -2.1077  0.2509
17198TIP3    H273010   3.142   1.892   2.911  0.1752  2.7702 -2.7052
17199TIP3   OH273011   4.988   3.547  16.049  0.9217  0.4908  0.1383
17199TIP3    H173012   5.011   3.458  16.074 -0.0194 -0.4387 -2.0325
17199TIP3    H273013   5.045   3.566  15.974 -1.0697  0.4272 -1.4672
17200TIP3   OH273014   5.255   4.197   1.643  0.4021  0.1938 -0.0063
17200TIP3    H173015   5.244   4.118   1.590  1.3890  0.0059  0.0488
17200TIP3    H273016   5.335   4.181   1.692  0.9434  1.4944 -0.4381
17201TIP3   OH273017   1.173   6.369  11.426  0.1255  0.2913 -0.2031
17201TIP3    H173018   1.077   6.366  11.430  0.1151 -1.6327 -0.6726
17201TIP3    H273019   1.194   6.332  11.340  1.2789  2.2998 -0.8501
17202TIP3   OH273020   5.265   5.291   5.762  0.3566  0.3621  0.8335
17202TIP3    H173021   5.272   5.289   5.667 -1.8454 -0.4376  0.6370
17202TIP3    H273022   5.355   5.280   5.793  1.2562  1.7387 -1.1294
17203TIP3   OH273023   1.361   0.037   3.408 -0.9741 -0.5829 -0.0079
17203TIP3    H173024   1.407   0.112   3.446 -0.1265 -0.6457 -0.8838
17203TIP3    H273025   1.294   0.015   3.474 -0.4094  0.1354  0.8372
17204TIP3   OH273026   0.538   0.381   0.729  0.2134 -0.7567 -0.3301
17204TIP3    H173027   0.539   0.443   0.802 -3.0914 -0.5202 -0.3597
17204TIP3    H273028   0.515   0.434   0.653  1.4305 -1.3888 -1.1803
17205TIP3   OH273029   4.523   1.046   1.310 -0.2801 -0.3587 -0.1646
17205TIP3    H173030   4.485   1.092   1.235  0.4788 -0.3585 -0.5559
17205TIP3    H273031   4.515   1.107   1.383 -2.2588 -0.8549  0.1051
17206TIP3   OH273032   5.612   3.301   3.377  0.4825  0.4172  0.0938
17206TIP3    H173033   5.663   3.287   3.298  1.4611  0.9541  0.6135
17206TIP3    H273034   5.544   3.364   3.352 -0.0497 -0.4289 -0.6425
17207TIP3   OH273035   2.082   4.559  14.073  0.0589  0.3204 -0.2390
17207TIP3    H173036   2.035   4.621  14.018  1.7850 -0.0875 -2.3435
17207TIP3    H273037   2.099   4.484  14.015  0.7351 -0.7595  1.2865
17208TIP3   OH273038   2.040   3.887  17.083  0.7885  0.3788 -0.5804
17208TIP3    H173039   2.048   3.845  16.997 -1.0854  1.2866 -1.2507
17208TIP3    H273040   1.988   3.827  17.135  1.2033  0.2218 -0.3393
17209TIP3   OH273041   0.664   3.041   2.279 -0.0687  0.1699 -0.0278
17209TIP3    H173042   0.614   3.111   2.322  0.3441 -0.5634  1.7740
17209TIP3    H273043   0.756   3.065   2.293  0.0738 -0.1846 -0.3453
17210TIP3   OH273044   3.600   4.495   6.422  0.0909 -0.0702 -0.3968
17210TIP3    H173045   3.562   4.553   6.489 -0.3259  0.4662 -1.0794
17210TIP3    H273046   3.529   4.435   6.400  0.3007 -0.3950 -0.2045
17211TIP3   OH273047   5.299   0.231  16.053 -0.2305  0.5561 -0.1083
17211TIP3    H173048   5.352   0.153  16.037 -0.0511  0.9418 -1.5347
17211TIP3    H273049   5.266   0.220  16.142  1.7908  0.0480  0.6306
17212TIP3   OH273050   0.300   3.175  13.084  0.0970 -0.2225 -0.4685
17212TIP3    H173051   0.326   3.117  13.012  0.2413 -1.3191  0.4507
17212TIP3    H273052   0.382   3.198  13.127 -0.1201 -0.8848  0.3249
17213TIP3   OH273053   4.209   6.621  15.303 -0.3325  0.5295 -0.0043
17213TIP3    H173054   4.302   6.630  15.322 -0.0946  0.5214 -1.1361
17213TIP3    H273055   4.188   6.694  15.245 -1.2532  1.0858  0.9839
17214TIP3   OH273056   4.706   3.794  14.486 -0.1194 -0.0844  0.2905
17214TIP3    H173057   4.691   3.887  14.465  1.5179 -0.0651 -1.0149
17214TIP3    H273058   4.796   3.778  14.458  0.1723 -1.6762  2.0142
17215TIP3   OH273059   1.695   5.592  12.941 -0.0495 -0.4934 -0.3089
17215TIP3    H173060   1.642   5.519  12.975 -0.1198 -0.6329 -0.7134
17215TIP3    H273061   1.781   5.580  12.981 -0.2760 -0.3541  0.2339
17216TIP3   OH273062   4.616   3.384   0.734  0.3520 -0.0217 -0.3661
17216TIP3    H173063   4.595   3.316   0.797  1.4989  0.1043  0.1791
17216TIP3    H273064   4.533   3.430   0.719 -0.0283 -0.3481  0.6822
17217TIP3   OH273065   2.063   3.749   3.186  0.1645 -0.3200  0.0265
17217TIP3    H173066   2.039   3.671   3.135 -0.0371 -0.2240 -0.0275
17217TIP3    H273067   2.029   3.822   3.134  0.4709 -0.1900  0.0119
17218TIP3   OH273068   1.650   5.124  11.126  0.1467  0.3233 -0.0671
17218TIP3    H173069   1.633   5.115  11.220 -0.0533 -1.6396 -0.2592
17218TIP3    H273070   1.566   5.104  11.085  1.0749 -2.4862 -0.7604
17219TIP3   OH273071   0.278   5.329  12.287  0.0174 -0.0469  0.5086
17219TIP3    H173072   0.302   5.318  12.195 -1.8763 -1.6911  0.1307
17219TIP3    H273073   0.192   5.370  12.284 -0.6359 -1.2692  1.4569
17220TIP3   OH273074   3.735   1.224  16.736 -0.1466 -0.2776 -0.2997
17220TIP3    H173075   3.683   1.205  16.814 -2.7076  1.4433 -1.4507
17220TIP3    H273076   3.821   1.250  16.770 -0.6098 -1.2952  1.8075
17221TIP3   OH273077   5.619   6.074   2.889  0.1452  0.6049 -0.0839
17221TIP3    H173078   5.549   6.070   2.824 -0.4906 -0.2977  0.6290
17221TIP3    H273079   5.586   6.136   2.955 -0.0756  0.0618  0.3310
17222TIP3   OH273080   1.688   1.006  15.668  0.0520  0.2271  0.4992
17222TIP3    H173081   1.734   1.029  15.588 -0.9561  0.6030  0.0082
17222TIP3    H273082   1.634   1.083  15.688 -0.8433 -0.4315  0.6881
17223TIP3   OH273083   1.035   3.315   0.161 -0.1744  0.0854  0.2111
17223TIP3    H173084   0.953   3.266   0.165 -0.4292  0.3976 -0.8870
17223TIP3    H273085   1.008   3.406   0.148  0.3503 -0.0532 -2.1712
17224TIP3   OH273086   1.021   4.303   1.696 -0.2472 -0.4662 -0.1253
17224TIP3    H173087   0.986   4.356   1.624  0.5482  0.8505  0.4277
17224TIP3    H273088   1.054   4.224   1.653 -0.1580  0.1121 -1.1679
17225TIP3   OH273089   0.724   4.201  10.948  0.3561  0.3326 -0.1159
17225TIP3    H173090   0.672   4.203  10.868 -1.3383  0.9558  0.9508
17225TIP3    H273091   0.788   4.131  10.933 -2.5574 -2.4632 -0.4422
17226TIP3   OH273092   5.511   6.757   4.484 -0.0224 -0.0421  0.0629
17226TIP3    H173093   5.469   6.814   4.549 -0.3364 -1.5001  1.1913
17226TIP3    H273094   5.540   6.817   4.416 -0.7809  1.4156  0.9537
17227TIP3   OH273095   1.403   2.263   1.871 -0.0809 -0.0298  0.5695
17227TIP3    H173096   1.403   2.232   1.962 -1.5555 -0.2574  0.5145
17227TIP3    H273097   1.370   2.353   1.876 -0.9832 -0.3272  0.1950
17228TIP3   OH273098   0.299   1.096   2.665  0.8857  0.6041 -0.0685
17228TIP3    H173099   0.261   1.128   2.746  1.2345 -1.8232  1.1352
17228TIP3    H273100   0.393   1.113   2.674  0.7300  2.0977 -0.8782
17229TIP3   OH273101   2.456   2.173  14.597 -0.1980 -0.3122 -0.4062
17229TIP3    H173102   2.512   2.096  14.589 -0.6049 -0.6210 -0.3121
17229TIP3    H273103   2.517   2.245  14.617  0.1183 -0.7251  0.1541
17230TIP3   OH273104   6.120   1.494   5.212 -0.7013 -0.2371  0.3529
17230TIP3    H173105   6.118   1.549   5.290  2.0469 -1.0241  1.0952
17230TIP3    H273106   6.030   1.464   5.201 -1.6203  1.7256  1.8286
17231TIP3   OH273107   4.671   0.101  16.596  0.7107  0.1163  0.1427
17231TIP3    H173108   4.689   0.194  16.585  0.1505  0.2019 -0.1217
17231TIP3    H273109   4.632   0.094  16.683 -0.0800  0.2718 -0.1836
17232TIP3   OH273110   2.237   6.033  14.811 -0.0513  0.5124 -0.0533
17232TIP3    H173111   2.213   5.941  14.797  0.7461  0.1537  0.8413
17232TIP3    H273112   2.225   6.047  14.904 -0.2717  1.3582 -0.2052
17233TIP3   OH273113   0.679   0.405  16.787  0.5760 -0.3732 -0.1425
17233TIP3    H173114   0.696   0.379  16.696  2.4899 -1.8400  0.5656
17233TIP3    H273115   0.720   0.490  16.796 -1.5648  0.8555 -1.1932
17234TIP3   OH273116   3.312   5.570  14.607  0.5385  0.1877 -0.5408
17234TIP3    H173117   3.305   5.639  14.673  1.4486  0.8854 -1.1310
17234TIP3    H273118   3.224   5.533  14.600  0.1989  0.8109  0.2970
17235TIP3   OH273119   5.463   0.261  15.277  0.2439 -0.4437  0.0586
17235TIP3    H173120   5.475   0.351  15.307 -1.3398  0.5830 -2.0905
17235TIP3    H273121   5.421   0.216  15.350 -1.2307  1.2601  0.3171
17236TIP3   OH273122   0.078   2.477   1.122  0.4010  0.2972  0.2595
17236TIP3    H173123   0.159   2.465   1.074 -0.8809 -1.8801 -1.5299
17236TIP3    H273124   0.078   2.408   1.188 -0.2888 -0.1821 -0.2244
17237TIP3   OH273125   5.099   5.304   1.748 -0.1515  0.0431  0.1661
17237TIP3    H173126   5.194   5.292   1.745 -0.2694 -0.8135 -1.6220
17237TIP3    H273127   5.086   5.399   1.747  0.6776  0.1695  0.7467
17238TIP3   OH273128   5.984   1.598  14.083  0.3714 -0.1773  0.0308
17238TIP3    H173129   5.997   1.519  14.137 -0.5383 -1.1218 -1.0917
17238TIP3    H273130   5.953   1.664  14.145  2.7735 -0.1520  1.3185
17239TIP3   OH273131   6.760   6.136   0.993  0.0533  0.1185 -0.4235
17239TIP3    H173132   6.798   6.199   1.054  0.5751  0.0261 -0.6417
17239TIP3    H273133   6.770   6.177   0.907 -0.1067 -0.0241 -0.5105
17240TIP3   OH273134   4.194   1.570   4.190  0.1445  0.1257  0.6270
17240TIP3    H173135   4.237   1.652   4.214 -0.4930  0.3601  0.9764
17240TIP3    H273136   4.203   1.515   4.268  0.2732 -0.0212  0.5112
17241TIP3   OH273137   0.421   1.472  11.111 -0.1404  0.4264 -1.0432
17241TIP3    H173138   0.357   1.401  11.102  0.6168 -0.8745  2.4728
17241TIP3    H273139   0.488   1.452  11.046 -1.7615  0.1552 -2.7388
17242TIP3   OH273140   0.763   3.564  11.123  0.0548  0.3147 -0.1546
17242TIP3    H173141   0.782   3.514  11.043 -1.8014  1.1161 -1.1429
17242TIP3    H273142   0.767   3.656  11.096 -0.7209  0.6003  0.6416
17243TIP3   OH273143   3.290   6.570   0.009  0.0010  0.0420  0.6057
17243TIP3    H173144   3.213   6.605  -0.035 -1.0073 -1.9967  0.6331
17243TIP3    H273145   3.257   6.534   0.091  1.2378  0.4192  1.2959
17244TIP3   OH273146   1.031   3.032  15.628  0.3538 -0.5663  0.0849
17244TIP3    H173147   1.060   3.014  15.538 -0.3084 -1.4517  0.0372
17244TIP3    H273148   0.948   3.078  15.618  2.9102  4.8872  0.1281
17245TIP3   OH273149   2.409   3.213   0.351 -0.4403 -0.8518  0.0626
17245TIP3    H173150   2.431   3.151   0.420 -0.6692 -0.1620  0.7690
17245TIP3    H273151   2.425   3.299   0.390  1.6802 -0.4471 -1.4946
17246TIP3   OH273152   2.133   4.937   5.278  0.7667  0.3460 -0.0501
17246TIP3    H173153   2.146   4.852   5.321  2.3656  1.3948  1.6734
17246TIP3    H273154   2.218   4.956   5.237 -0.1245  0.3194 -2.0565
17247TIP3   OH273155   0.079   0.713  12.424 -0.0905  0.2451  0.1707
17247TIP3    H173156   0.134   0.676  12.355 -0.7771 -3.6323  1.4166
17247TIP3    H273157  -0.003   0.664  12.417 -0.3236 -0.0486  3.4213
17248TIP3   OH273158   6.646   3.912  15.272  0.3518  0.7561 -0.1271
17248TIP3    H173159   6.644   3.823  15.236 -2.3765  1.4481 -1.9916
17248TIP3    H273160   6.718   3.954  15.225 -1.4511  0.8555 -3.0995
17249TIP3   OH273161   5.017   6.006  13.767  0.0860  0.3791  0.0286
17249TIP3    H173162   4.980   5.918  13.778  2.5441 -0.9277 -1.2308
17249TIP3    H273163   4.941   6.063  13.757 -1.5887 -1.7208  0.0213
17250TIP3   OH273164   5.733   3.048  14.570  0.8400  0.2520  0.3598
17250TIP3    H173165   5.741   2.955  14.550 -0.1824  0.3681 -0.7093
17250TIP3    H273166   5.817   3.071  14.610  0.3433 -1.5526  2.6341
17251TIP3   OH273167   4.565   6.455  13.254  0.1097  0.6168  0.5630
17251TIP3    H173168   4.634   6.419  13.309  1.3912  0.8886 -0.7827
17251TIP3    H273169   4.591   6.430  13.165 -1.5508  0.7139  0.0247
17252TIP3   OH273170   2.514   0.346   4.679  0.1494  0.1524  0.7271
17252TIP3    H173171   2.488   0.312   4.593 -1.2895  1.7045  0.4792
17252TIP3    H273172   2.577   0.415   4.659  0.5838 -0.1538  1.0116
17253TIP3   OH273173   1.128   2.330   1.425  0.7809  0.4158 -0.7199
17253TIP3    H173174   1.112   2.238   1.443  1.6839  0.4970  0.7073
17253TIP3    H273175   1.084   2.376   1.497 -0.6526  1.1847 -2.0460
17254TIP3   OH273176   2.316   2.337   6.155  0.2070 -0.1155  0.0794
17254TIP3    H173177   2.405   2.369   6.142 -0.3275  0.5442 -2.3739
17254TIP3    H273178   2.327   2.246   6.186  1.7675 -0.8065 -2.2930
17255TIP3   OH273179   2.398   4.418  15.928 -0.4479  0.1683 -0.1494
17255TIP3    H173180   2.321   4.474  15.913 -0.6425 -0.0841 -0.1117
17255TIP3    H273181   2.398   4.403  16.022  0.5322  1.4128  0.0615
17256TIP3   OH273182   2.094   3.407   0.456 -0.0932  0.1000 -0.2188
17256TIP3    H173183   2.136   3.339   0.508 -0.1662 -0.1048 -0.4238
17256TIP3    H273184   2.166   3.466   0.431  0.6013 -1.5934 -2.7010
17257TIP3   OH273185   5.612   0.049  16.006 -0.2694  0.0328  0.5135
17257TIP3    H173186   5.690   0.014  16.048  0.4940 -0.2265 -1.0272
17257TIP3    H273187   5.544   0.046  16.073  0.8077 -0.6258  1.6034
17258TIP3   OH273188   3.457   1.966   4.512  0.1482  0.1164 -0.2398
17258TIP3    H173189   3.461   1.958   4.416 -0.7115  1.4599 -0.4288
17258TIP3    H273190   3.381   1.913   4.537 -0.0250  0.2866 -0.3930
17259TIP3   OH273191   4.847   4.502   2.323  0.8224  0.8269  0.0062
17259TIP3    H173192   4.911   4.516   2.254  0.6281  0.0610 -0.3428
17259TIP3    H273193   4.824   4.590   2.353  1.7899  1.1173 -0.0842
17260TIP3   OH273194   5.016   3.281   5.100 -0.7797  0.0344  0.1522
17260TIP3    H173195   5.011   3.328   5.183  0.3462 -0.3620  0.4520
17260TIP3    H273196   5.018   3.350   5.034  1.1532  0.4657  0.5975
17261TIP3   OH273197   5.212   2.188   1.566 -0.4288  0.1654 -0.1017
17261TIP3    H173198   5.292   2.141   1.591  1.0797  2.0587 -1.0681
17261TIP3    H273199   5.154   2.120   1.533  0.7603 -1.2923  0.6415
17262TIP3   OH273200   1.813   0.812  12.516  1.5036  0.0174  0.2955
17262TIP3    H173201   1.849   0.807  12.605  2.6346 -0.2600 -0.1598
17262TIP3    H273202   1.854   0.738  12.470  0.6557 -0.0520 -0.3628
17263TIP3   OH273203   4.625   5.286  13.988 -0.2820 -0.4881  0.0802
17263TIP3    H173204   4.554   5.349  14.002  0.6747  0.2629  2.0271
17263TIP3    H273205   4.635   5.242  14.073  0.5025 -1.7415 -0.6288
17264TIP3   OH273206   0.948   3.256   3.647 -0.6314 -0.0806 -0.0631
17264TIP3    H173207   0.962   3.290   3.735  1.5912 -2.7432  0.7890
17264TIP3    H273208   1.013   3.301   3.593 -1.2374  0.7507 -0.1060
17265TIP3   OH273209   3.094   0.594  12.835 -0.1078  0.1107 -0.0005
17265TIP3    H173210   3.119   0.580  12.744  2.0856  0.9372  0.4038
17265TIP3    H273211   3.021   0.656  12.831 -0.6329 -0.5513 -1.1939
17266TIP3   OH273212   0.788   2.848  15.164  0.7381  0.3313  0.1182
17266TIP3    H173213   0.796   2.893  15.080  0.5078  1.2876  0.5876
17266TIP3    H273214   0.705   2.880  15.200  0.9569  0.1210  0.8174
17267TIP3   OH273215   3.480   0.936   2.312 -0.8992 -0.0123  0.1780
17267TIP3    H173216   3.422   0.890   2.251 -0.9851  0.6778 -0.2679
17267TIP3    H273217   3.433   1.016   2.334 -0.0851  0.5955 -0.2460
17268TIP3   OH273218   0.204   4.489  15.260 -0.1845  0.7359  0.0423
17268TIP3    H173219   0.254   4.499  15.341  0.0817 -1.8777  0.2853
17268TIP3    H273220   0.240   4.556  15.201  1.1869  1.1802  1.3244
17269TIP3   OH273221   5.581   3.323   4.312  0.4031  0.7815 -0.2344
17269TIP3    H173222   5.589   3.354   4.402  1.6181 -0.2694  0.0444
17269TIP3    H273223   5.645   3.374   4.262 -0.0779  1.1702 -0.4719
17270TIP3   OH273224   3.636   0.271   2.811  0.5090 -0.1644  0.3076
17270TIP3    H173225   3.567   0.205   2.806 -0.5269  0.7553  1.6645
17270TIP3    H273226   3.597   0.349   2.771 -0.9790  1.6672  4.7736
17271TIP3   OH273227   4.780   2.951  13.063 -0.0546 -0.2615  0.3713
17271TIP3    H173228   4.716   2.987  13.001  0.8636  0.0822 -0.4084
17271TIP3    H273229   4.820   2.878  13.016 -0.8657 -1.3924  1.3975
17272TIP3   OH273230   0.965   1.807  16.193 -0.1620  0.4857 -0.2837
17272TIP3    H173231   1.016   1.813  16.273  0.2842 -0.4748 -0.4854
17272TIP3    H273232   1.012   1.861  16.129 -0.2322  0.8201 -0.0564
17273TIP3   OH273233   0.139   1.376   1.773  0.1449  0.2019 -0.4102
17273TIP3    H173234   0.086   1.443   1.817 -3.0275 -1.2470 -1.7151
17273TIP3    H273235   0.120   1.387   1.680  0.0005 -2.0924 -0.7015
17274TIP3   OH273236   1.791   6.314  17.103 -0.8653 -0.0980 -0.4793
17274TIP3    H173237   1.696   6.325  17.092 -0.8266  1.7686  0.7454
17274TIP3    H273238   1.803   6.302  17.197  0.1905  0.5695 -0.5153
17275TIP3   OH273239   5.926   5.938  16.327 -0.0416 -0.0935  0.2450
17275TIP3    H173240   5.955   5.961  16.415 -1.0373  0.9390  0.3341
17275TIP3    H273241   5.836   5.906  16.340  0.3261 -1.3425 -0.2321
17276TIP3   OH273242   4.604   3.679   0.629  0.0711 -0.7178  0.4324
17276TIP3    H173243   4.642   3.594   0.605 -1.7696 -1.5510  0.3164
17276TIP3    H273244   4.590   3.673   0.723 -1.0366 -0.9775  0.2634
17277TIP3   OH273245   5.086   1.324   3.615  0.3096 -0.3410  0.0814
17277TIP3    H173246   5.137   1.281   3.547 -0.9628  0.2910 -1.3202
17277TIP3    H273247   5.005   1.274   3.621  0.4658 -0.4971  1.2893
17278TIP3   OH273248   1.869   2.322   5.731 -0.3278 -0.2428 -0.4731
17278TIP3    H173249   1.945   2.367   5.693 -1.8906  2.1011 -1.0290
17278TIP3    H273250   1.815   2.297   5.657 -0.4479 -1.2800 -0.0515
17279TIP3   OH273251   6.631   0.282   4.152 -0.5088  0.5927 -0.7018
17279TIP3    H173252   6.588   0.368   4.153  0.8180  1.2861 -0.0632
17279TIP3    H273253   6.597   0.238   4.231 -1.6325  0.2791 -1.3411
17280TIP3   OH273254   3.685   1.977   1.994  0.2285  0.3969 -0.2771
17280TIP3    H173255   3.713   2.058   1.951 -2.3357  2.2791  1.3371
17280TIP3    H273256   3.766   1.939   2.028  1.4793  2.4226 -0.8012
17281TIP3   OH273257   1.297   2.446  16.102  0.4076  0.0024  0.6683
17281TIP3    H173258   1.237   2.372  16.096  1.4626 -0.7413 -1.3804
17281TIP3    H273259   1.375   2.411  16.146  0.4888  0.1732  0.6638
17282TIP3   OH273260   1.406   3.585   5.604 -0.1516  0.3713  0.3581
17282TIP3    H173261   1.436   3.574   5.514  1.0915  0.8060  0.7091
17282TIP3    H273262   1.465   3.531   5.656 -1.8142 -1.1338  0.8009
17283TIP3   OH273263   6.767   3.461   5.084  0.1818 -0.3889 -0.0026
17283TIP3    H173264   6.729   3.521   5.019  0.7836 -0.0655 -0.0644
17283TIP3    H273265   6.694   3.436   5.139  0.2800  2.2129  1.4796
17284TIP3   OH273266   4.229   4.325  12.206  0.8493  0.1715 -0.6003
17284TIP3    H173267   4.199   4.266  12.137  1.7121 -0.6669 -0.2881
17284TIP3    H273268   4.264   4.266  12.273 -1.0010  0.9168  1.0762
17285TIP3   OH273269   4.699   5.674  16.315  0.6468  0.0380  0.3025
17285TIP3    H173270   4.776   5.618  16.325  0.6405  0.0604  0.4893
17285TIP3    H273271   4.711   5.744  16.380  0.4676  0.0376  0.3395
17286TIP3   OH273272   2.289   6.367   0.849 -0.2622  0.4135  0.0026
17286TIP3    H173273   2.237   6.421   0.908  0.6621  2.5526 -1.0301
17286TIP3    H273274   2.254   6.387   0.762  0.2177 -0.5325 -0.4220
17287TIP3   OH273275   1.789   3.132  17.045 -0.7516  0.0596  0.0472
17287TIP3    H173276   1.797   3.198  16.976 -0.7051  0.1515  0.1387
17287TIP3    H273277   1.870   3.082  17.040 -0.4770  0.4585  0.4352
17288TIP3   OH273278   4.164   5.040   3.999 -0.2409  0.5321  0.2443
17288TIP3    H173279   4.080   5.085   3.992 -0.6099 -0.2501 -0.4684
17288TIP3    H273280   4.195   5.032   3.909  0.1738  0.0140  0.4295
17289TIP3   OH273281   0.790   2.751   1.092 -0.3363  0.3703  0.4838
17289TIP3    H173282   0.738   2.684   1.136  0.0278 -0.2927 -0.0803
17289TIP3    H273283   0.763   2.747   1.000  1.8926 -1.2070 -0.1960
17290TIP3   OH273284   3.780   3.463   5.537 -0.5767 -0.4416  0.6277
17290TIP3    H173285   3.851   3.420   5.585 -0.7870 -1.4453  0.0803
17290TIP3    H273286   3.804   3.556   5.536  1.5939 -0.9274 -0.9247
17291TIP3   OH273287   5.555   6.359   5.535  0.0924  0.2237 -0.2632
17291TIP3    H173288   5.567   6.306   5.614 -0.8149  1.1926  0.5653
17291TIP3    H273289   5.504   6.303   5.476 -0.9441  0.1907  0.6337
17292TIP3   OH273290   3.741   2.381   6.457  0.0678 -0.0110 -0.0528
17292TIP3    H173291   3.726   2.312   6.393 -0.1693  1.5505 -1.7620
17292TIP3    H273292   3.837   2.387   6.464  0.1023  0.0083 -0.5042
17293TIP3   OH273293   0.213   6.466  13.818 -0.3884  0.3091  0.2899
17293TIP3    H173294   0.307   6.475  13.832 -0.3045 -0.2307  0.0632
17293TIP3    H273295   0.203   6.386  13.766 -0.9361  0.6040 -0.0764
17294TIP3   OH273296   6.134   1.362  14.312  0.2535 -0.1301  0.3421
17294TIP3    H173297   6.069   1.291  14.314 -2.2922  1.9705 -0.7256
17294TIP3    H273298   6.212   1.325  14.353 -1.0518 -3.3722  0.1982
17295TIP3   OH273299   2.028   5.480   2.424 -0.2421  0.3984 -0.5662
17295TIP3    H173300   1.937   5.496   2.451 -0.0976 -0.7358  0.7044
17295TIP3    H273301   2.077   5.555   2.458 -0.6603  0.9063 -1.0677
17296TIP3   OH273302   1.932   4.172   1.730  0.7211 -0.0215  0.2370
17296TIP3    H173303   1.874   4.106   1.692 -1.4059  2.7318 -1.7373
17296TIP3    H273304   1.884   4.205   1.806  0.1535  1.4248 -0.6989
17297TIP3   OH273305   3.728   5.786   2.914 -0.4185 -0.2608 -0.4762
17297TIP3    H173306   3.794   5.782   2.846  0.2471  3.3399 -0.2269
17297TIP3    H273307   3.770   5.833   2.986 -2.3686 -0.3753  0.8178
17298TIP3   OH273308   2.544   2.064  13.433 -0.5801 -0.3601 -0.1382
17298TIP3    H173309   2.612   2.087  13.496 -1.3141 -0.6520  0.7947
17298TIP3    H273310   2.534   2.141  13.377  0.0787 -0.0888  0.1170
17299TIP3   OH273311   0.251   1.960   0.332 -0.5683  0.6461 -0.1859
17299TIP3    H173312   0.209   1.912   0.403 -1.1521  1.4555  0.0332
17299TIP3    H273313   0.249   1.901   0.258  0.4648 -0.3990  0.5761
17300TIP3   OH273314   4.926   5.819  14.683 -0.3481  0.0577 -0.0292
17300TIP3    H173315   4.968   5.762  14.619 -1.5835 -2.1469  1.0300
17300TIP3    H273316   4.833   5.818  14.659 -0.3729  1.9805 -0.1989
17301TIP3   OH273317   0.319   5.945  15.290  0.2189  0.3452  0.2750
17301TIP3    H173318   0.248   5.954  15.226  0.3226 -1.9547 -0.2413
17301TIP3    H273319   0.280   5.897  15.363  1.3868 -1.7381 -0.3856
17302TIP3   OH273320   4.693   0.605  13.431 -0.0691 -0.1580  0.3831
17302TIP3    H173321   4.661   0.675  13.488  0.2183 -0.3656  0.8107
17302TIP3    H273322   4.645   0.527  13.460 -1.3644  0.0890 -0.9580
17303TIP3   OH273323   2.409   2.093  16.648 -0.2089  0.3320 -0.3290
17303TIP3    H173324   2.399   2.181  16.685 -0.3049 -0.5064  1.7994
17303TIP3    H273325   2.489   2.098  16.596 -0.8585  1.9730 -1.2744
17304TIP3   OH273326   3.406   3.622  13.968 -0.0603 -0.0510  0.3603
17304TIP3    H173327   3.342   3.652  13.904  0.0667 -0.9019 -0.1839
17304TIP3    H273328   3.387   3.528  13.979  0.4291 -0.0871  0.9720
17305TIP3   OH273329   0.703   1.929  16.509 -0.0879 -0.2868  0.1728
17305TIP3    H173330   0.697   1.962  16.419 -1.8403  0.0926  0.3987
17305TIP3    H273331   0.647   1.851  16.510 -0.7445  0.1803  1.1170
17306TIP3   OH273332   3.519   0.773  14.811 -0.8118 -0.3319 -0.0101
17306TIP3    H173333   3.454   0.771  14.881 -0.1887  0.5028  0.6102
17306TIP3    H273334   3.601   0.796  14.855 -0.4738  0.5383 -1.0551
17307TIP3   OH273335   6.175   6.622   1.030  0.0013  0.0535  0.1403
17307TIP3    H173336   6.114   6.690   0.999 -1.1643 -0.1551  1.8412
17307TIP3    H273337   6.254   6.670   1.056 -0.8409  0.8090  1.4027
17308TIP3   OH273338   0.047   3.009   5.773 -0.0366  0.0890 -0.7346
17308TIP3    H173339  -0.003   3.074   5.822  0.1214 -0.9697  0.9000
17308TIP3    H273340  -0.006   2.929   5.779  0.7686 -0.4693 -0.9269
17309TIP3   OH273341   0.486   2.076  15.034  0.0985 -0.1995 -0.4871
17309TIP3    H173342   0.575   2.042  15.024  0.1187 -1.3467  2.6582
17309TIP3    H273343   0.497   2.164  15.070  0.0090 -0.7306  0.8964
17310TIP3   OH273344   3.452   3.788   4.405  0.6621  0.8749 -0.2188
17310TIP3    H173345   3.424   3.761   4.493  1.9730  1.4064  0.3996
17310TIP3    H273346   3.419   3.720   4.347 -0.5558  0.7123  0.6381
17311TIP3   OH273347   6.375   0.990   5.340 -0.0585 -0.1195 -0.2293
17311TIP3    H173348   6.465   0.961   5.326  0.3709  0.6144  0.8734
17311TIP3    H273349   6.321   0.927   5.293  1.1527  1.8596 -4.8694
17312TIP3   OH273350   5.212   2.555   3.925 -0.2777  0.4548  0.3327
17312TIP3    H173351   5.261   2.593   3.998  2.4270  0.9332 -1.5690
17312TIP3    H273352   5.185   2.469   3.955  3.8944 -0.8690  0.8100
17313TIP3   OH273353   1.385   5.507  14.785 -0.4885  0.1152 -0.1955
17313TIP3    H173354   1.437   5.578  14.822 -1.5232  0.2315  1.0992
17313TIP3    H273355   1.394   5.518  14.690  1.3120  0.4997 -0.0165
17314TIP3   OH273356   0.939   3.450  13.820  0.3023 -0.0534  0.4989
17314TIP3    H173357   0.921   3.357  13.832  0.1992 -0.0229  0.5791
17314TIP3    H273358   0.858   3.487  13.785  0.7572 -0.2289 -0.7766
17315TIP3   OH273359   3.212   0.097  14.039  0.6409 -0.4950 -0.3435
17315TIP3    H173360   3.296   0.068  14.074  0.1624 -0.1610  1.1809
17315TIP3    H273361   3.156   0.020  14.043  0.6630 -0.5281 -0.6554
17316TIP3   OH273362   0.514   1.967  12.221  0.4582  0.3165  0.5342
17316TIP3    H173363   0.527   1.893  12.161 -1.4333  0.4031 -0.0325
17316TIP3    H273364   0.501   1.926  12.307 -0.8251 -0.0523  0.1825
17317TIP3   OH273365   0.451   3.174   0.923  0.6237  0.4167  0.1615
17317TIP3    H173366   0.447   3.086   0.962  1.2199  0.8079  1.1153
17317TIP3    H273367   0.487   3.159   0.835  1.0517 -0.2509  0.4443
17318TIP3   OH273368   1.749   2.930  15.376  0.3891  0.4829  0.3154
17318TIP3    H173369   1.844   2.926  15.370  0.6048  2.9210  1.1289
17318TIP3    H273370   1.721   2.965  15.292 -0.2384 -3.5979 -1.4194
17319TIP3   OH273371   5.351   0.627  12.606 -0.2268 -0.6024 -0.1615
17319TIP3    H173372   5.424   0.649  12.547  0.4198  0.1387  0.8815
17319TIP3    H273373   5.280   0.601  12.548  0.7110 -0.8539 -1.2285
17320TIP3   OH273374   1.760   0.943   4.341 -0.1076  0.7472 -0.0862
17320TIP3    H173375   1.677   0.921   4.384  0.5252  0.3049  0.9547
17320TIP3    H273376   1.742   1.025   4.295 -1.3360  0.2482 -0.5489
17321TIP3   OH273377   6.199   5.177  16.429  0.1343  0.7311  0.3252
17321TIP3    H173378   6.249   5.107  16.387  1.5036  1.4673  0.6543
17321TIP3    H273379   6.109   5.145  16.430  0.5411 -0.5366 -0.5337
17322TIP3   OH273380   5.661   2.174   1.334 -0.0690 -0.1626  0.4438
17322TIP3    H173381   5.672   2.269   1.323 -0.1408 -0.1809  0.2126
17322TIP3    H273382   5.576   2.155   1.296 -0.0935 -0.3074  0.5712
17323TIP3   OH273383   4.479   1.072   5.273  0.6673 -0.5333 -0.0637
17323TIP3    H173384   4.401   1.040   5.228  0.2317 -0.5860  0.7118
17323TIP3    H273385   4.446   1.115   5.351  1.3643  0.2705 -0.1934
17324TIP3   OH273386   6.669   0.086   5.269  0.2822 -0.0675 -0.5808
17324TIP3    H173387   6.700   0.120   5.185 -0.2075 -0.7091 -1.0301
17324TIP3    H273388   6.735   0.020   5.293  0.4393  0.1386 -0.4394
17325TIP3   OH273389   1.044   6.401   6.545 -0.0401 -0.1487 -0.5520
17325TIP3    H173390   0.952   6.387   6.524 -0.3594 -0.2116  0.8523
17325TIP3    H273391   1.049   6.396   6.640  1.3902  0.0246 -0.5927
17326TIP3   OH273392   3.862   5.746   1.100  0.2770  0.0070  0.1325
17326TIP3    H173393   3.888   5.705   1.183 -1.3929  0.5467  0.9598
17326TIP3    H273394   3.944   5.752   1.050  0.8449 -3.2396  0.4066
17327TIP3   OH273395   4.327   0.638  10.520  0.5567  0.4533 -0.1406
17327TIP3    H173396   4.412   0.682  10.528  1.0423  0.0147 -2.2361
17327TIP3    H273397   4.263   0.705  10.544  1.4700  0.4387  2.7297
17328TIP3   OH273398   6.115   1.119  10.560 -0.2688 -0.0943  0.2557
17328TIP3    H173399   6.025   1.088  10.546  0.5252 -2.0451 -0.7829
17328TIP3    H273400   6.135   1.096  10.651 -0.8384  0.4869  0.5407
17329TIP3   OH273401   0.706   3.373   0.830 -0.9502  0.1304 -0.2906
17329TIP3    H173402   0.730   3.437   0.763  0.0237  0.1232  0.0367
17329TIP3    H273403   0.644   3.419   0.887 -1.3772  0.3006 -0.8830
17330TIP3   OH273404   3.126   0.814   1.352 -0.1707  0.3501  0.0756
17330TIP3    H173405   3.087   0.790   1.267 -2.7836  1.3523  0.8885
17330TIP3    H273406   3.088   0.900   1.372  2.7248  1.5593  0.9292
17331TIP3   OH273407   1.564   5.195   5.229 -0.9429  0.2708  0.2158
17331TIP3    H173408   1.608   5.152   5.156 -0.8459  1.3820 -0.4069
17331TIP3    H273409   1.541   5.282   5.196 -0.7417  0.8737  1.5526
17332TIP3   OH273410   4.993   1.039  15.869 -0.1067 -0.3320  0.4655
17332TIP3    H173411   4.923   1.040  15.805  0.3713 -1.9753 -0.1278
17332TIP3    H273412   5.006   1.131  15.893  0.3571  0.4720 -2.5116
17333TIP3   OH273413   1.843   6.610   5.659  0.1179  0.4164  0.2544
17333TIP3    H173414   1.797   6.685   5.621  0.2148 -0.5597 -1.9917
17333TIP3    H273415   1.773   6.552   5.691 -0.1899 -0.0965 -1.2329
17334TIP3   OH273416   3.618   3.357  12.104  0.1479  0.1312 -0.3818
17334TIP3    H173417   3.570   3.278  12.083  0.8131 -0.2211 -0.5876
17334TIP3    H273418   3.550   3.420  12.129 -0.3902 -0.4677 -0.3056
17335TIP3   OH273419   0.422   6.467  15.601  0.0614 -0.2349 -0.1127
17335TIP3    H173420   0.334   6.464  15.564 -0.3756  0.9317  0.7873
17335TIP3    H273421   0.433   6.557  15.631  1.1882 -0.6151  0.6981
17336TIP3   OH273422   4.232   5.262   3.163  0.1881  0.5449 -0.0880
17336TIP3    H173423   4.282   5.292   3.088  0.9136  0.4998  0.3728
17336TIP3    H273424   4.272   5.305   3.238  1.4480 -1.7507  0.6386
17337TIP3   OH273425   0.814   2.935  10.782 -0.0298  1.2500  0.2413
17337TIP3    H173426   0.909   2.926  10.772  0.2211  4.3736 -1.2513
17337TIP3    H273427   0.785   2.977  10.702 -2.7767  0.1774  0.5702
17338TIP3   OH273428   5.989   3.830   2.930  0.1384 -0.5441  0.8428
17338TIP3    H173429   6.038   3.864   3.005  0.3087  0.4043  0.3196
17338TIP3    H273430   5.899   3.857   2.946  0.3404  0.5567  0.2264
17339TIP3   OH273431   0.503   3.730   6.273 -0.1100 -0.3479  0.0861
17339TIP3    H173432   0.444   3.697   6.205 -1.1543  0.6928  0.4697
17339TIP3    H273433   0.481   3.680   6.351 -1.8435  1.2932  0.7243
17340TIP3   OH273434   0.088   3.767  11.794  0.3340  0.1982 -0.4434
17340TIP3    H173435  -0.005   3.780  11.813  0.1983  0.5176 -1.2784
17340TIP3    H273436   0.129   3.849  11.821  0.6853 -0.6047  1.6825
17341TIP3   OH273437   1.478   2.702  10.737  0.4538  0.2359  0.4203
17341TIP3    H173438   1.462   2.639  10.807 -0.1723 -1.3665 -1.0662
17341TIP3    H273439   1.569   2.729  10.749  1.1818 -1.9670  0.4053
17342TIP3   OH273440   5.813   6.740  16.985  0.5322  0.3514 -0.7074
17342TIP3    H173441   5.796   6.825  16.944  0.2601  1.6375  1.9202
17342TIP3    H273442   5.727   6.699  16.991  0.5142  0.3458 -0.9657
17343TIP3   OH273443   0.317   1.572  15.187  0.0483 -0.0498  0.0239
17343TIP3    H173444   0.312   1.574  15.283  0.5505  1.0060  0.0382
17343TIP3    H273445   0.251   1.508  15.161 -1.1614  0.7546  1.0045
17344TIP3   OH273446   0.969   1.129  11.643  0.0509 -0.0363 -0.2369
17344TIP3    H173447   0.938   1.219  11.658  1.2505  0.5018 -0.8580
17344TIP3    H273448   0.962   1.087  11.729  2.0489  1.4837  0.7495
17345TIP3   OH273449   3.151   0.473   3.731 -0.1670  0.7119 -0.2493
17345TIP3    H173450   3.207   0.458   3.808  2.2497 -1.7720 -2.2554
17345TIP3    H273451   3.062   0.464   3.764  0.6814  1.3746  2.5183
17346TIP3   OH273452   0.055   3.300  16.628  0.4874 -0.5547  0.2251
17346TIP3    H173453   0.147   3.293  16.602  0.2612 -2.4235 -0.2635
17346TIP3    H273454   0.008   3.308  16.546  0.1755 -0.0854  0.4491
17347TIP3   OH273455   3.586   1.338   4.966 -0.5515  0.0149 -0.5223
17347TIP3    H173456   3.670   1.354   4.922 -0.0290 -0.4932  0.2662
17347TIP3    H273457   3.563   1.248   4.940 -1.6498  0.6791 -1.9940
17348TIP3   OH273458   3.187   2.703   3.934 -0.0659  0.0769 -0.5881
17348TIP3    H173459   3.207   2.765   4.004 -0.2254  0.2343 -0.6815
17348TIP3    H273460   3.113   2.652   3.967 -1.2847  1.3045 -1.3280
17349TIP3   OH273461   5.279   4.625  16.940  0.2041 -1.0992 -0.6530
17349TIP3    H173462   5.352   4.675  16.976 -0.4534 -0.5927  0.0105
17349TIP3    H273463   5.304   4.609  16.849  1.0744 -0.8170 -0.4773
17350TIP3   OH273464   1.964   5.038  11.882  0.3394  0.7220 -1.0256
17350TIP3    H173465   1.878   5.012  11.915  0.8022 -0.4787 -0.7151
17350TIP3    H273466   2.011   4.956  11.870  1.3280  1.3383 -1.5440
17351TIP3   OH273467   2.003   0.507   6.153  0.7728 -0.0517  0.2816
17351TIP3    H173468   1.971   0.515   6.243 -2.6704  0.9762 -0.9040
17351TIP3    H273469   1.964   0.581   6.107  1.5503 -1.1617 -2.3263
17352TIP3   OH273470   5.961   3.941   1.344 -0.8485 -0.6070 -0.0164
17352TIP3    H173471   5.916   4.026   1.351  0.5865  0.0541  2.0007
17352TIP3    H273472   5.991   3.923   1.432  1.8011 -1.6042 -1.0409
17353TIP3   OH273473   2.381   1.669   2.256  0.7922  0.1855  0.3562
17353TIP3    H173474   2.458   1.719   2.280 -0.6215  1.7042  1.9965
17353TIP3    H273475   2.415   1.589   2.216  3.1653  0.9891  0.6522
17354TIP3   OH273476   3.372   2.545   4.205 -0.0868 -0.5646 -0.0870
17354TIP3    H173477   3.406   2.592   4.129  0.9946 -1.2339 -0.0388
17354TIP3    H273478   3.288   2.509   4.176 -1.4829  2.2185  0.2006
17355TIP3   OH273479   2.036   2.404   5.131 -0.2008 -0.8171 -0.1100
17355TIP3    H173480   1.993   2.323   5.103  0.8474 -1.0469 -1.1088
17355TIP3    H273481   1.978   2.473   5.100 -0.5730 -1.1499 -0.1769
17356TIP3   OH273482   1.250   5.787   5.170 -0.3505 -0.5048  0.1826
17356TIP3    H173483   1.284   5.741   5.247  0.4048  2.3213  1.7047
17356TIP3    H273484   1.328   5.803   5.116 -0.0099  1.4132  1.1269
17357TIP3   OH273485   4.213   0.807   2.981  0.2391  0.3666 -0.4238
17357TIP3    H173486   4.185   0.889   3.022 -0.2010  0.3020 -0.5903
17357TIP3    H273487   4.249   0.756   3.053  0.4454  0.6726 -0.3047
17358TIP3   OH273488   6.490   3.453   1.540 -0.4179  0.5013  0.1683
17358TIP3    H173489   6.551   3.419   1.475 -2.3481 -0.1850 -1.3627
17358TIP3    H273490   6.543   3.513   1.593  1.5960 -0.1696 -0.9908
17359TIP3   OH273491   2.927   1.379  11.065  0.6894 -0.0452  0.8040
17359TIP3    H173492   2.848   1.368  11.012  1.3110  0.0816 -0.1826
17359TIP3    H273493   2.933   1.298  11.115  1.4497 -1.3393 -1.2442
17360TIP3   OH273494   4.350   1.141   2.820 -0.5061  0.4487  0.1182
17360TIP3    H173495   4.372   1.051   2.796 -0.4930  0.5475 -0.2482
17360TIP3    H273496   4.255   1.146   2.812 -0.8852 -0.3308  2.9012
17361TIP3   OH273497   1.569   0.682  14.118 -0.1135  0.2317 -0.0965
17361TIP3    H173498   1.628   0.608  14.137  1.4135  1.8188  1.7530
17361TIP3    H273499   1.486   0.640  14.094  0.9102 -2.0864  0.0806
17362TIP3   OH273500   3.399   2.009   5.241 -0.1223 -0.6405 -0.2053
17362TIP3    H173501   3.440   2.072   5.180  0.9934 -1.2265 -0.0798
17362TIP3    H273502   3.371   1.937   5.185 -0.6922 -0.3961 -0.2433
17363TIP3   OH273503   3.583   6.584   1.710  0.0709  0.4182 -0.2676
17363TIP3    H173504   3.511   6.570   1.771 -1.2084  2.8085 -1.1030
17363TIP3    H273505   3.662   6.582   1.764 -0.4770 -2.5148  0.6405
17364TIP3   OH273506   0.857   0.609   0.605  0.1596  0.3372 -0.0446
17364TIP3    H173507   0.785   0.670   0.587  1.7007  2.0376 -0.8814
17364TIP3    H273508   0.821   0.547   0.668 -2.3068  0.5228 -1.1372
17365TIP3   OH273509   4.097   2.329   2.778 -0.1947  0.1229 -0.4909
17365TIP3    H173510   4.055   2.262   2.723  0.3306 -0.7063  0.0986
17365TIP3    H273511   4.186   2.296   2.792 -0.5574 -0.1316  1.5513
17366TIP3   OH273512   0.948   1.482  16.551  0.1936 -0.9349  0.3358
17366TIP3    H173513   1.014   1.448  16.491 -0.4156 -1.0543 -0.2743
17366TIP3    H273514   0.990   1.559  16.591  0.6269 -0.8820 -0.2022
17367TIP3   OH273515   5.819   6.756   4.642  0.0219  0.2579 -0.3718
17367TIP3    H173516   5.824   6.673   4.691 -0.8793  0.6103  0.3454
17367TIP3    H273517   5.725   6.768   4.626  0.3378 -0.2636 -2.9384
17368TIP3   OH273518   4.056   3.452   3.135 -0.0625  0.0025 -0.3946
17368TIP3    H173519   4.126   3.512   3.105  0.8795 -1.0352 -0.3409
17368TIP3    H273520   4.079   3.368   3.096 -0.0398 -0.8850  1.4271
17369TIP3   OH273521   5.839   5.513   1.092  0.2255 -0.5413  0.1424
17369TIP3    H173522   5.934   5.503   1.104  0.4057  0.6122 -0.2447
17369TIP3    H273523   5.813   5.580   1.154 -0.2936 -0.6264  0.0241
17370TIP3   OH273524   5.235   5.469   3.756 -0.4304 -0.3977 -0.7906
17370TIP3    H173525   5.154   5.417   3.763  0.7882 -2.5984 -1.8998
17370TIP3    H273526   5.223   5.521   3.677 -1.1495  0.0632 -0.3905
17371TIP3   OH273527   4.398   0.957   3.496  0.3557 -0.2557 -0.3218
17371TIP3    H173528   4.351   0.993   3.420  0.5652 -0.8103 -0.7280
17371TIP3    H273529   4.342   0.977   3.571 -0.0634 -0.0654 -0.6813
17372TIP3   OH273530   3.561   5.120  12.315 -0.0992 -0.9602  0.9768
17372TIP3    H173531   3.498   5.189  12.335 -1.0798 -1.7538  0.7176
17372TIP3    H273532   3.626   5.125  12.385 -0.6499 -0.3622  1.4486
17373TIP3   OH273533   0.757   1.208  11.148  0.0476  0.1600  0.5023
17373TIP3    H173534   0.718   1.230  11.063 -1.9879  1.7166  1.7527
17373TIP3    H273535   0.813   1.284  11.168  1.7997 -0.9051 -0.0879
17374TIP3   OH273536   5.570   5.499  13.110 -0.4544 -0.4312  0.0475
17374TIP3    H173537   5.621   5.419  13.099  0.2169  0.0852 -0.7537
17374TIP3    H273538   5.481   5.475  13.083 -0.0928 -0.7317 -0.9273
17375TIP3   OH273539   0.551   5.595  12.558 -0.6816  0.2983 -0.5660
17375TIP3    H173540   0.608   5.613  12.633 -0.2382 -0.7986 -0.6231
17375TIP3    H273541   0.484   5.535  12.592 -0.7387  0.1490 -0.9287
17376TIP3   OH273542   3.561   1.215   5.464 -0.1448 -0.2874 -0.0055
17376TIP3    H173543   3.528   1.274   5.531 -1.5000  0.8088 -1.5704
17376TIP3    H273544   3.580   1.133   5.511 -1.4653  0.2915  1.6249
17377TIP3   OH273545   4.147   4.901   0.401  0.2454  0.2788  0.1184
17377TIP3    H173546   4.075   4.851   0.439  0.0346  1.5837  1.5593
17377TIP3    H273547   4.105   4.976   0.358  0.7236  1.6645  1.9362
17378TIP3   OH273548   2.704   3.882   5.950 -0.2505 -0.6721  0.0292
17378TIP3    H173549   2.757   3.961   5.957  0.8934 -1.3189 -0.9414
17378TIP3    H273550   2.752   3.816   6.000  0.8786 -1.7390 -2.3076
17379TIP3   OH273551   0.415   1.132  17.181  0.1153 -0.1394 -0.7125
17379TIP3    H173552   0.349   1.167  17.121  0.8853  0.5716 -1.1647
17379TIP3    H273553   0.367   1.070  17.235 -1.0130  0.6360 -0.7816
17380TIP3   OH273554   0.431   1.265   1.583 -0.1844  0.7929 -0.0181
17380TIP3    H173555   0.461   1.355   1.582 -0.4604  1.0380  3.0059
17380TIP3    H273556   0.362   1.261   1.517 -0.1316  2.7810 -0.2443
17381TIP3   OH273557   0.734   3.591   5.420  0.4261 -0.0367  0.0366
17381TIP3    H173558   0.777   3.550   5.495 -1.8413 -0.6911  1.0938
17381TIP3    H273559   0.719   3.519   5.359  0.0766  0.0142  0.0616
17382TIP3   OH273560   5.016   2.557   2.135 -0.0488  0.2483 -0.3252
17382TIP3    H173561   4.983   2.573   2.223 -0.3934 -1.6125 -0.0541
17382TIP3    H273562   5.042   2.465   2.136 -0.3679  0.0862 -2.2500
17383TIP3   OH273563   3.212   5.465  16.195  0.2692  0.2160 -0.0809
17383TIP3    H173564   3.125   5.485  16.162  0.8952  1.5948 -0.9621
17383TIP3    H273565   3.267   5.464  16.117  1.5617  2.2910  0.7245
17384TIP3   OH273566   2.154   3.910  13.625 -0.3756 -0.4219  0.4993
17384TIP3    H173567   2.068   3.881  13.657 -1.3248 -0.1435 -1.6525
17384TIP3    H273568   2.204   3.829  13.613 -0.0554 -0.5493  2.3805
17385TIP3   OH273569   2.392   3.227   5.882 -0.6882  0.1543 -0.0927
17385TIP3    H173570   2.336   3.289   5.836 -0.5966  0.8964  0.7598
17385TIP3    H273571   2.432   3.278   5.953 -0.2769 -0.7710  0.3697
17386TIP3   OH273572   5.531   6.071   3.810 -0.0246  0.4637 -0.1639
17386TIP3    H173573   5.524   6.051   3.717  1.7812 -0.6325 -0.1234
17386TIP3    H273574   5.621   6.102   3.821 -0.5069  1.5232  1.0688
17387TIP3   OH273575   0.422   6.625  15.306 -0.0008 -0.0896  0.0414
17387TIP3    H173576   0.491   6.635  15.241  0.1321  1.9181  0.4168
17387TIP3    H273577   0.444   6.689  15.374 -2.2901  0.7390  0.1054
17388TIP3   OH273578   1.306   3.627   0.350 -0.7103  0.1535 -0.3564
17388TIP3    H173579   1.375   3.568   0.380 -0.8020  0.0402 -0.3677
17388TIP3    H273580   1.271   3.585   0.271 -0.9659  0.0817 -0.2057
17389TIP3   OH273581   0.591   4.684   1.695 -0.6951 -0.5156 -0.0161
17389TIP3    H173582   0.591   4.777   1.716 -0.5898 -0.1028 -1.6479
17389TIP3    H273583   0.578   4.682   1.600  0.8282 -2.1090 -0.2276
17390TIP3   OH273584   2.701   5.813  11.760 -0.5903  0.0183  0.3041
17390TIP3    H173585   2.792   5.838  11.777 -0.8860 -0.2124  2.5065
17390TIP3    H273586   2.653   5.896  11.760 -0.7805 -0.0485  2.1956
17391TIP3   OH273587   2.841   5.197   1.153  0.4964 -0.3951  0.0200
17391TIP3    H173588   2.782   5.126   1.127 -2.1445  1.8631 -0.7229
17391TIP3    H273589   2.817   5.216   1.244  1.3366 -0.5716  0.2846
17392TIP3   OH273590   3.362   3.972  13.934 -0.1929 -0.0493 -0.5231
17392TIP3    H173591   3.396   3.959  13.846 -2.4915  1.8645 -1.8219
17392TIP3    H273592   3.276   3.929  13.933  0.3146 -1.2099  1.2827
17393TIP3   OH273593   5.983   3.040  13.471 -0.2206 -0.0936 -0.5223
17393TIP3    H173594   5.938   3.124  13.465 -0.9782 -0.5856 -2.7944
17393TIP3    H273595   5.989   3.023  13.565 -1.9761  1.4819 -0.0483
17394TIP3   OH273596   1.175   2.191  12.579 -0.3496  0.1392 -0.1640
17394TIP3    H173597   1.201   2.282  12.592 -0.2694  0.0704  0.1607
17394TIP3    H273598   1.092   2.196  12.532 -1.9622  0.4743  2.5090
17395TIP3   OH273599   3.407   2.359  14.188 -0.3364 -0.1255 -0.3577
17395TIP3    H173600   3.429   2.423  14.120  0.4940  0.6131  0.5671
17395TIP3    H273601   3.417   2.274  14.146  0.6374  0.3092 -1.0286
17396TIP3   OH273602   6.477   5.291   4.007 -0.5616 -0.5879 -0.1627
17396TIP3    H173603   6.494   5.256   3.920  0.8402  1.7757 -0.9261
17396TIP3    H273604   6.382   5.301   4.011 -0.6316 -0.5372 -1.5098
17397TIP3   OH273605   3.778   4.362  14.503 -0.2452 -0.1264 -0.0098
17397TIP3    H173606   3.869   4.372  14.531 -0.2729 -0.7457  0.3009
17397TIP3    H273607   3.746   4.452  14.497  0.0415  0.0651  1.0309
17398TIP3   OH273608   1.995   5.407   6.435  0.0880  0.5661  0.1733
17398TIP3    H173609   2.073   5.382   6.386 -1.0588  1.8857 -2.5054
17398TIP3    H273610   1.935   5.332   6.425  0.1023  0.5571  0.1540
17399TIP3   OH273611   0.439   0.511   0.477 -0.4073  0.0180  0.3218
17399TIP3    H173612   0.508   0.450   0.455 -0.7278 -0.4046  0.4677
17399TIP3    H273613   0.359   0.472   0.441 -0.5498  0.5618  0.0422
17400TIP3   OH273614   3.281   2.733  13.873  0.1085  0.1308 -0.3057
17400TIP3    H173615   3.250   2.819  13.902  1.2615  0.3248  0.4184
17400TIP3    H273616   3.376   2.743  13.865  0.1902 -0.9049 -0.8501
17401TIP3   OH273617   5.267   0.135   1.151 -0.0516 -0.2802  0.3939
17401TIP3    H173618   5.306   0.065   1.099  2.2257 -0.2466  1.8770
17401TIP3    H273619   5.244   0.092   1.234 -2.7910 -0.1562 -0.2100
17402TIP3   OH273620   5.453   0.514  16.065 -0.0377 -0.0792  0.3187
17402TIP3    H173621   5.442   0.421  16.044  2.6012 -0.2672 -0.5075
17402TIP3    H273622   5.531   0.517  16.120  0.5457  1.7263 -0.5257
17403TIP3   OH273623   4.045   4.419   2.002 -0.0062 -0.2194 -0.6770
17403TIP3    H173624   3.963   4.444   2.046  0.6632  0.2496  0.3422
17403TIP3    H273625   4.035   4.326   1.983 -0.8288 -0.1352 -0.6847
17404TIP3   OH273626   4.674   1.840   6.434  0.4491  0.1003 -0.0152
17404TIP3    H173627   4.591   1.876   6.403  2.0966  2.4129 -2.2051
17404TIP3    H273628   4.705   1.903   6.498  0.4883 -0.8207  0.8912
17405TIP3   OH273629   4.439   4.719  15.107  0.1978  0.0805 -0.0088
17405TIP3    H173630   4.405   4.632  15.087  0.5469  0.1717 -1.0879
17405TIP3    H273631   4.411   4.737  15.196  0.6441 -1.3906  0.4450
17406TIP3   OH273632   6.219   0.159   1.496 -0.0218 -0.1017  0.0567
17406TIP3    H173633   6.161   0.154   1.572  0.3053 -0.0303  0.3131
17406TIP3    H273634   6.239   0.067   1.475 -1.1294 -0.1901 -0.7418
17407TIP3   OH273635   6.317   6.709  11.896 -0.6546  0.2855  0.1534
17407TIP3    H173636   6.384   6.763  11.854  0.2797 -0.5826  0.5022
17407TIP3    H273637   6.365   6.638  11.938 -1.5960  0.7893  2.2217
17408TIP3   OH273638   0.011   4.822  14.826 -0.2428 -0.0857  0.1166
17408TIP3    H173639   0.008   4.916  14.808 -2.1956 -0.0185  0.5863
17408TIP3    H273640  -0.080   4.795  14.827  0.1705 -1.6366  1.8088
17409TIP3   OH273641   4.420   1.895   4.138 -0.0373  0.5510  0.0699
17409TIP3    H173642   4.483   1.966   4.123 -0.7261  1.3135  0.7163
17409TIP3    H273643   4.398   1.863   4.051 -0.6162  1.9220 -0.2974
17410TIP3   OH273644   6.713   4.489   2.880 -0.3267 -0.5299 -0.0362
17410TIP3    H173645   6.703   4.550   2.953  0.0421 -0.7476  0.2016
17410TIP3    H273646   6.668   4.410   2.909 -1.6389 -0.0653 -0.7345
17411TIP3   OH273647   5.776   2.956  12.846  0.5522  0.0773 -0.3893
17411TIP3    H173648   5.753   2.959  12.939 -2.1068 -0.9257 -0.9242
17411TIP3    H273649   5.866   2.924  12.845  0.4244 -0.5484  1.8212
17412TIP3   OH273650   1.236   4.510   5.505 -0.1723  0.4954  0.6728
17412TIP3    H173651   1.327   4.537   5.501 -0.3754  1.0236 -0.7014
17412TIP3    H273652   1.187   4.583   5.466 -0.9872 -0.6412 -0.5125
17413TIP3   OH273653   3.141   1.625   3.236 -0.1729 -0.1610 -0.3615
17413TIP3    H173654   3.148   1.642   3.330  0.6542  0.9981 -0.6095
17413TIP3    H273655   3.226   1.652   3.201 -0.4057 -0.7594 -1.4219
17414TIP3   OH273656   0.536   4.479   5.415  0.1511  0.2216 -0.4399
17414TIP3    H173657   0.559   4.479   5.508  2.0973  0.7344 -0.8806
17414TIP3    H273658   0.539   4.387   5.390  0.7091  0.1778 -0.2303
17415TIP3   OH273659   5.922   6.219   3.595 -0.7973  0.2811  0.4044
17415TIP3    H173660   5.923   6.157   3.522 -0.0149  1.6743 -0.8374
17415TIP3    H273661   5.869   6.292   3.564 -0.3108  0.9817  1.1528
17416TIP3   OH273662   4.636   0.534  14.994  0.4090  0.0609  0.3207
17416TIP3    H173663   4.600   0.611  15.037 -0.4850  0.7297 -1.5216
17416TIP3    H273664   4.655   0.562  14.905  0.0766 -1.8408 -0.3996
17417TIP3   OH273665   4.060   1.624   5.151 -0.0026  0.2207  0.6958
17417TIP3    H173666   4.146   1.636   5.191  0.1158  0.8124  0.2731
17417TIP3    H273667   3.998   1.641   5.221  0.2225 -0.5538  1.0958
17418TIP3   OH273668   6.563   4.305   5.149  0.9553 -0.3993 -0.1937
17418TIP3    H173669   6.475   4.311   5.185  0.8132 -1.0572 -0.4138
17418TIP3    H273670   6.552   4.322   5.055  1.0927 -0.2678 -0.1867
17419TIP3   OH273671   4.480   4.447  14.631 -0.6482 -0.2913  0.2407
17419TIP3    H173672   4.416   4.518  14.623 -0.9616 -0.5950  0.0513
17419TIP3    H273673   4.498   4.441  14.725 -0.4229  0.2113  0.2328
17420TIP3   OH273674   1.849   2.752  13.295  0.2110 -0.5343  0.6367
17420TIP3    H173675   1.871   2.690  13.226 -0.7614 -1.5557  1.2031
17420TIP3    H273676   1.763   2.787  13.271  0.4967  0.1773  0.6143
17421TIP3   OH273677   3.941   2.202   4.094 -0.3859 -0.1920  0.5684
17421TIP3    H173678   3.977   2.124   4.052  0.3105 -0.4531  1.5995
17421TIP3    H273679   3.895   2.248   4.025  2.2701  0.3724 -0.9709
17422TIP3   OH273680   1.422   0.420   0.881  0.0872  0.4001 -0.4711
17422TIP3    H173681   1.439   0.361   0.955 -0.4488  1.6337  0.6940
17422TIP3    H273682   1.507   0.460   0.863  0.0190  0.8608  0.1889
17423TIP3   OH273683   1.639   4.672  15.723 -0.2031 -0.3770  0.2124
17423TIP3    H173684   1.708   4.607  15.739 -0.1712 -0.2288  0.6851
17423TIP3    H273685   1.587   4.634  15.652  0.6659 -0.2512 -0.5013
17424TIP3   OH273686   1.493   3.276   5.400 -0.4321 -0.1713 -0.0627
17424TIP3    H173687   1.543   3.201   5.432 -1.0956 -0.4544  0.3323
17424TIP3    H273688   1.558   3.346   5.388 -0.2227  0.1786  2.5949
17425TIP3   OH273689   0.438   3.376   4.227  0.0999  0.5056  0.1845
17425TIP3    H173690   0.516   3.392   4.280  0.3882  0.9277 -0.3493
17425TIP3    H273691   0.372   3.436   4.262  0.4191  1.0925 -0.2001
17426TIP3   OH273692   0.438   3.032  12.895 -0.0556  0.1693  0.3915
17426TIP3    H173693   0.524   2.994  12.879 -0.2802  0.1399 -0.8068
17426TIP3    H273694   0.404   3.053  12.808 -1.2877  0.1184  0.8444
17427TIP3   OH273695   1.277   1.325  15.126  0.3153  0.4664 -0.3547
17427TIP3    H173696   1.204   1.367  15.082  0.6036  0.1773 -1.1273
17427TIP3    H273697   1.254   1.326  15.219 -1.5677 -1.3585 -0.7382
17428TIP3   OH273698   1.724   4.171   6.493 -0.2343  0.0485 -0.1460
17428TIP3    H173699   1.757   4.108   6.429 -0.0386  0.2627 -0.2570
17428TIP3    H273700   1.732   4.255   6.449  0.8434  0.3120  0.5291
17429TIP3   OH273701   5.337   3.236  13.058  0.4103 -0.8532  0.0633
17429TIP3    H173702   5.384   3.237  13.141 -0.1973 -0.7525  0.4115
17429TIP3    H273703   5.342   3.145  13.029 -0.3398 -1.1265  0.7695
17430TIP3   OH273704   6.041   5.835  15.540 -0.4571  0.1803  0.3477
17430TIP3    H173705   6.066   5.806  15.628  0.4712  2.7809  1.0291
17430TIP3    H273706   5.946   5.838  15.542 -0.4372  0.7018  1.4687
17431TIP3   OH273707   2.688   1.655  16.553 -0.4628 -0.0043  0.1713
17431TIP3    H173708   2.637   1.592  16.503 -0.1837 -0.8348  0.9165
17431TIP3    H273709   2.625   1.722  16.579 -0.3882  1.1728 -2.3579
17432TIP3   OH273710   1.156   5.498  11.075 -0.7679  0.1853 -0.4369
17432TIP3    H173711   1.201   5.428  11.028 -0.5670  0.0314 -0.0235
17432TIP3    H273712   1.131   5.560  11.007 -1.7013 -0.6884 -0.9158
17433TIP3   OH273713   6.345   1.698   1.957  0.7125 -0.2531 -0.3985
17433TIP3    H173714   6.382   1.656   1.880  0.8962 -1.4382  0.3004
17433TIP3    H273715   6.397   1.665   2.030  1.7617  2.2879  0.0953
17434TIP3   OH273716   6.239   4.865   4.422  0.6151  0.1990 -0.1710
17434TIP3    H173717   6.226   4.880   4.516  1.3337 -0.7670  0.0954
17434TIP3    H273718   6.332   4.847   4.413  0.7451  1.2797 -1.2267
17435TIP3   OH273719   4.855   3.674  14.105 -0.2074  0.0465  0.0764
17435TIP3    H173720   4.798   3.597  14.096  0.9258 -0.7933 -0.2453
17435TIP3    H273721   4.931   3.653  14.051  0.4917  1.0537  0.6392
17436TIP3   OH273722   1.380   5.802   2.337  0.2960 -0.6877 -0.2119
17436TIP3    H173723   1.469   5.774   2.315  1.9292 -1.3159  5.4255
17436TIP3    H273724   1.339   5.723   2.373 -1.4473  0.2755  0.0088
17437TIP3   OH273725   5.509   1.419   1.730 -0.4099  0.7227 -0.5379
17437TIP3    H173726   5.595   1.387   1.700 -0.6009 -0.3099 -0.0456
17437TIP3    H273727   5.463   1.442   1.650 -0.1907 -0.1171 -0.9260
17438TIP3   OH273728   5.567   0.137  11.995 -0.3208 -0.4288 -0.0076
17438TIP3    H173729   5.628   0.063  11.987  1.8539  1.3418 -1.1413
17438TIP3    H273730   5.490   0.101  12.037  1.7634 -2.7318  2.1754
17439TIP3   OH273731   2.591   0.887   0.420 -0.4431  0.3800 -0.1245
17439TIP3    H173732   2.500   0.869   0.441 -0.3518 -0.4980 -0.4611
17439TIP3    H273733   2.612   0.828   0.349  0.6587 -0.1197  0.5841
17440TIP3   OH273734   4.205   5.906   5.732 -0.1036 -0.1590  0.7118
17440TIP3    H173735   4.271   5.841   5.756  2.0376  0.1302 -3.4380
17440TIP3    H273736   4.124   5.856   5.723  0.8409 -1.7025  0.4473
17441TIP3   OH273737   3.054   1.320   4.344 -0.4629  0.1521  0.4218
17441TIP3    H173738   3.064   1.358   4.432  0.4462  0.7078  0.0948
17441TIP3    H273739   3.096   1.234   4.351 -1.3132 -0.2499  0.7955
17442TIP3   OH273740   2.062   0.092   5.571  0.5915  0.3059 -0.7888
17442TIP3    H173741   2.132   0.156   5.556  0.4548  0.6966  0.1635
17442TIP3    H273742   2.035   0.064   5.483  2.5096 -0.4882 -1.1898
17443TIP3   OH273743   4.176   4.325  13.975 -0.1299  0.5697 -0.3946
17443TIP3    H173744   4.204   4.307  14.064  2.2114 -0.5417 -1.2631
17443TIP3    H273745   4.140   4.241  13.944 -0.1776  0.7215 -0.7590
17444TIP3   OH273746   6.503   6.074   0.832  0.0985 -0.5727 -0.5672
17444TIP3    H173747   6.415   6.101   0.807 -0.8292 -2.1777  0.7173
17444TIP3    H273748   6.527   6.132   0.905  0.0336 -0.2621 -0.7922
17445TIP3   OH273749   5.324   3.816   4.202  0.4167 -0.1382  0.1334
17445TIP3    H173750   5.383   3.853   4.136  0.2710 -1.3071 -0.6823
17445TIP3    H273751   5.351   3.724   4.210 -0.3078 -0.3033  0.8705
17446TIP3   OH273752   1.781   3.056   5.198 -0.0517  0.0434  0.6583
17446TIP3    H173753   1.740   3.039   5.283 -0.7482 -1.7417  0.0240
17446TIP3    H273754   1.733   3.131   5.163 -1.3656 -0.6510  0.8812
17447TIP3   OH273755   2.087   3.094  12.881 -0.0791 -0.4476  0.2292
17447TIP3    H173756   2.086   3.049  12.965  1.1578  1.3233  1.2750
17447TIP3    H273757   2.010   3.151  12.884  0.9342  0.9677  1.0357
17448TIP3   OH273758   4.291   4.262  13.105  0.1955 -0.3481  0.7880
17448TIP3    H173759   4.318   4.321  13.034  0.3799 -0.4397  0.7793
17448TIP3    H273760   4.270   4.180  13.061 -3.1569  0.5968  0.4015
17449TIP3   OH273761   4.127   2.018  14.684  0.1650  0.2873  0.7733
17449TIP3    H173762   4.057   1.988  14.626  0.6910  0.0339  0.2615
17449TIP3    H273763   4.081   2.068  14.752 -0.5456 -0.1664  0.6442
17450TIP3   OH273764   2.074   6.342  16.272  0.2292 -0.5286  0.0436
17450TIP3    H173765   2.168   6.343  16.252  0.1108 -2.2923 -0.7558
17450TIP3    H273766   2.065   6.278  16.342 -0.4539 -0.8367 -0.3165
17451TIP3   OH273767   5.525   5.862   5.409  0.1779 -0.6188  0.5620
17451TIP3    H173768   5.504   5.952   5.435  1.7845 -0.7530  2.5617
17451TIP3    H273769   5.493   5.856   5.319 -1.3835  1.4403  0.8785
17452TIP3   OH273770   5.057   6.407  13.172 -0.8030  0.0551  0.0385
17452TIP3    H173771   5.151   6.390  13.162 -0.7986  1.0933 -2.8031
17452TIP3    H273772   5.051   6.476  13.238  0.5535  0.7753 -0.5534
17453TIP3   OH273773   2.165   5.662  16.580 -0.3523 -0.1295 -0.2308
17453TIP3    H173774   2.243   5.660  16.636 -0.5043 -0.3210 -0.0244
17453TIP3    H273775   2.109   5.593  16.616  0.1089 -1.1726 -1.4346
17454TIP3   OH273776   5.773   2.099   0.163  0.0268  0.7907 -0.0454
17454TIP3    H173777   5.796   2.098   0.070  1.1272  0.3965  0.2081
17454TIP3    H273778   5.829   2.031   0.202  1.3221  2.5443  1.3024
17455TIP3   OH273779   0.135   2.354  15.961  0.0670 -0.2490 -0.3562
17455TIP3    H173780   0.049   2.396  15.953  0.8715  1.4411 -0.5151
17455TIP3    H273781   0.139   2.293  15.887 -1.7556 -1.8337  0.7776
17456TIP3   OH273782   1.254   4.465   3.710  0.2697  0.4250  0.4319
17456TIP3    H173783   1.288   4.404   3.775  2.8352 -0.0435 -1.2005
17456TIP3    H273784   1.187   4.515   3.756  0.6164 -1.1914  2.8323
17457TIP3   OH273785   5.978   0.579   0.353 -0.1358  0.0598 -0.0308
17457TIP3    H173786   5.886   0.551   0.351 -0.0567 -0.2344  0.2910
17457TIP3    H273787   5.975   0.674   0.364 -0.3966 -0.0130  0.5330
17458TIP3   OH273788   6.472   3.506  16.667 -0.0625  0.2954  0.6018
17458TIP3    H173789   6.547   3.564  16.684 -1.0151  1.3702  1.2335
17458TIP3    H273790   6.485   3.433  16.727  1.7426 -0.7807 -0.9654
17459TIP3   OH273791   4.274   6.735  16.876 -0.1025  0.6300 -0.2924
17459TIP3    H173792   4.242   6.815  16.833 -0.7302 -0.3929 -1.8248
17459TIP3    H273793   4.196   6.694  16.912 -0.4137 -1.0722 -2.6652
17460TIP3   OH273794   3.856   0.349   4.641 -0.5788  0.2206 -0.0683
17460TIP3    H173795   3.914   0.296   4.587  1.5061  1.6380  0.6666
17460TIP3    H273796   3.827   0.420   4.583 -0.7508  0.0890 -0.1444
17461TIP3   OH273797   5.335   3.071  11.651  0.3558 -0.6837 -0.3267
17461TIP3    H173798   5.253   3.086  11.698  0.2859 -2.9049  0.3884
17461TIP3    H273799   5.314   3.086  11.559 -0.0849  1.5042  0.0723
17462TIP3   OH273800   3.831   0.360   4.157  0.1527  1.1114  0.5056
17462TIP3    H173801   3.920   0.327   4.142 -0.0314  0.6133  0.4729
17462TIP3    H273802   3.815   0.420   4.084  0.0500  0.3323 -0.1245
17463TIP3   OH273803   1.860   0.867  16.768 -0.4683  0.6020 -0.1747
17463TIP3    H173804   1.862   0.938  16.832 -0.7513 -1.0167  1.7504
17463TIP3    H273805   1.788   0.811  16.797  1.7090 -2.1491  0.3479
17464TIP3   OH273806   4.196   5.443  13.713 -0.1900  0.2522 -0.0014
17464TIP3    H173807   4.262   5.431  13.781  0.0636 -0.1937 -0.3160
17464TIP3    H273808   4.241   5.418  13.632 -1.5452 -2.9285  0.0780
17465TIP3   OH273809   1.299   0.739   3.804 -0.1433 -0.2510  0.0121
17465TIP3    H173810   1.295   0.749   3.709 -2.1739  0.2602  0.1051
17465TIP3    H273811   1.309   0.829   3.837  1.4658 -0.4989  0.2911
17466TIP3   OH273812   4.942   5.661  15.748  0.1205 -0.0674 -0.3063
17466TIP3    H173813   5.025   5.629  15.712  0.3187  0.2799 -0.1534
17466TIP3    H273814   4.911   5.725  15.684  1.0162  1.3649  0.6684
17467TIP3   OH273815   5.511   4.736   3.753  0.1504 -0.0941  0.1548
17467TIP3    H173816   5.484   4.769   3.667 -1.3386 -0.5772  0.4140
17467TIP3    H273817   5.546   4.649   3.735 -1.2361 -0.6755  0.1475
17468TIP3   OH273818   5.697   2.098   2.133  0.0416  0.6288  0.1140
17468TIP3    H173819   5.622   2.071   2.080 -0.8161  1.8695  0.6619
17468TIP3    H273820   5.732   2.016   2.168  0.4283 -0.1998 -2.0383
17469TIP3   OH273821   0.330   4.712  13.533  0.4910  0.4283 -0.4422
17469TIP3    H173822   0.360   4.753  13.614 -0.9509 -1.3436  1.1020
17469TIP3    H273823   0.409   4.673  13.495  1.0491  0.4136  0.6872
17470TIP3   OH273824   5.097   1.542   3.106  0.4181 -0.0116  0.0476
17470TIP3    H173825   5.136   1.630   3.108 -0.6096  0.4655 -0.4692
17470TIP3    H273826   5.055   1.533   3.191 -0.9364  0.6936 -0.5185
17471TIP3   OH273827   3.883   1.630  12.311 -0.5832 -0.3423  0.2306
17471TIP3    H173828   3.841   1.707  12.273  2.4303  0.8680 -0.9718
17471TIP3    H273829   3.844   1.622  12.398 -1.9909  1.6681 -0.1393
17472TIP3   OH273830   6.599   1.295  17.051 -0.1678 -0.1650 -0.6185
17472TIP3    H173831   6.674   1.248  17.087 -2.0047 -0.3644  3.6369
17472TIP3    H273832   6.544   1.226  17.013 -0.1078 -0.6899  0.2059
17473TIP3   OH273833   2.537   1.500  16.410 -0.0959 -0.1440 -0.1022
17473TIP3    H173834   2.593   1.424  16.424 -0.1007 -0.4498 -1.6013
17473TIP3    H273835   2.452   1.463  16.388 -1.3984  0.2761  3.4815
17474TIP3   OH273836   2.528   2.763   0.634  0.3033 -0.2345 -0.3766
17474TIP3    H173837   2.571   2.722   0.709  0.1448 -0.5721 -0.4678
17474TIP3    H273838   2.446   2.716   0.624  0.1453  0.0664 -0.5234
17475TIP3   OH273839   2.770   5.808  16.718 -0.3926  0.5341 -0.1718
17475TIP3    H173840   2.778   5.722  16.759  0.2373  0.5426 -0.2763
17475TIP3    H273841   2.687   5.842  16.751 -0.5543 -0.0330  0.0178
17476TIP3   OH273842   5.817   5.120   3.980  0.5739 -0.0945  0.2454
17476TIP3    H173843   5.872   5.044   3.962  1.1018 -0.0213  1.5033
17476TIP3    H273844   5.873   5.180   4.028 -0.1703  0.6146  0.2485
17477TIP3   OH273845   2.519   5.099  14.382 -0.1896  0.0541 -0.0135
17477TIP3    H173846   2.610   5.071  14.372  0.1794  1.5804 -1.3982
17477TIP3    H273847   2.472   5.021  14.410  1.4880 -0.8444  0.3998
17478TIP3   OH273848   1.014   2.855   1.693  0.1935 -0.0938  0.1896
17478TIP3    H173849   1.098   2.852   1.645 -0.2747 -0.0587 -0.6611
17478TIP3    H273850   1.028   2.798   1.768  0.9957 -0.0727  0.0716
17479TIP3   OH273851   3.075   4.355  15.960  0.8937 -0.0721 -0.0168
17479TIP3    H173852   3.029   4.375  16.041  0.1951  2.0783 -0.8865
17479TIP3    H273853   3.006   4.321  15.901  0.5167  2.2328 -0.9984
17480TIP3   OH273854   1.537   5.971  11.041 -0.0783  0.0634  0.1178
17480TIP3    H173855   1.497   5.913  10.976 -1.3781 -1.3506  2.0990
17480TIP3    H273856   1.631   5.959  11.029 -0.3128 -1.9105 -0.0366
17481TIP3   OH273857   1.144   3.738   2.002 -0.4548 -0.5700 -0.0456
17481TIP3    H173858   1.166   3.645   2.012  0.0139 -0.2401  2.9804
17481TIP3    H273859   1.053   3.744   2.031  0.0591  0.1383  1.4882
17482TIP3   OH273860   1.745   5.172   4.150  0.3798  0.8367  0.5325
17482TIP3    H173861   1.716   5.187   4.240 -1.2683 -0.1867  0.2145
17482TIP3    H273862   1.674   5.123   4.109  0.5526  2.2757 -1.6837
17483TIP3   OH273863   0.472   1.373  11.871 -0.1295  0.0975 -0.3900
17483TIP3    H173864   0.516   1.343  11.792 -2.7887 -0.0772 -1.9344
17483TIP3    H273865   0.456   1.466  11.855  2.3490  0.9747  1.5534
17484TIP3   OH273866   6.346   4.855  11.847 -0.4717 -0.3171  0.1426
17484TIP3    H173867   6.362   4.793  11.776  0.6946 -1.1534  1.0928
17484TIP3    H273868   6.431   4.897  11.862 -0.3554 -1.1093  1.8975
17485TIP3   OH273869   4.018   4.037   2.695  0.3708  0.7228 -0.2013
17485TIP3    H173870   3.992   4.085   2.617 -0.6201  0.5591  0.0222
17485TIP3    H273871   3.939   4.032   2.749  1.2713  1.7217  1.2900
17486TIP3   OH273872   5.487   6.182   4.847  0.3672 -0.3774  0.2955
17486TIP3    H173873   5.462   6.125   4.775  0.5346 -0.3029  0.1791
17486TIP3    H273874   5.408   6.232   4.867  0.2265 -0.6366  0.3864
17487TIP3   OH273875   3.915   6.484   3.240 -0.0799  0.2112 -1.0235
17487TIP3    H173876   3.974   6.557   3.218  0.9959 -0.1944  0.3918
17487TIP3    H273877   3.860   6.474   3.162  2.2822  0.0635 -2.7852
17488TIP3   OH273878   3.993   2.662  11.004 -0.0461  0.4693  0.2621
17488TIP3    H173879   3.950   2.747  11.005  1.8901  1.5832 -1.7123
17488TIP3    H273880   3.989   2.634  10.913  3.2423  0.6710 -0.0695
17489TIP3   OH273881   2.949   3.080  12.583  0.3666  0.0897  0.2711
17489TIP3    H173882   2.874   3.123  12.625 -1.3390 -1.5104 -0.9693
17489TIP3    H273883   2.911   3.003  12.539  2.7198 -0.6657 -0.5888
17490TIP3   OH273884   2.164   5.163   0.261 -0.5554 -0.3164 -0.1771
17490TIP3    H173885   2.118   5.110   0.327  0.3509 -1.1029 -0.1448
17490TIP3    H273886   2.206   5.232   0.312  1.6838 -1.9889  0.3849
17491TIP3   OH273887   0.327   2.229   5.912 -0.5327 -0.0777 -0.2673
17491TIP3    H173888   0.335   2.283   5.834  0.7277  1.1868  0.6757
17491TIP3    H273889   0.409   2.179   5.915 -0.2122  0.4797  0.6453
17492TIP3   OH273890   2.456   3.978  13.385  0.5950 -0.3623  0.2281
17492TIP3    H173891   2.418   3.892  13.368  0.9238 -0.9644  2.1948
17492TIP3    H273892   2.548   3.961  13.404  1.2704  0.7549 -1.7780
17493TIP3   OH273893   5.984   3.071   6.234  0.1760 -0.4869  0.3325
17493TIP3    H173894   6.020   3.130   6.300  0.8000 -2.6271  2.0163
17493TIP3    H273895   6.024   3.099   6.152 -0.9215  2.4953  0.6934
17494TIP3   OH273896   6.235   4.103   0.189 -0.9486  0.2701  0.0563
17494TIP3    H173897   6.252   4.051   0.268 -0.7854  1.1003  0.5763
17494TIP3    H273898   6.197   4.185   0.222 -1.3051  0.4448 -0.7607
17495TIP3   OH273899   5.696   1.373  11.765  0.1746  0.0828 -0.0784
17495TIP3    H173900   5.748   1.410  11.694  0.9407  1.3298  1.0924
17495TIP3    H273901   5.746   1.297  11.794  0.3821  0.1698 -0.2094
17496TIP3   OH273902   3.105   0.789   0.094  0.1508 -0.2151  0.8444
17496TIP3    H173903   3.078   0.856   0.032 -1.0649 -1.6247 -0.2119
17496TIP3    H273904   3.073   0.820   0.179  3.5679  2.7357  1.2902
17497TIP3   OH273905   1.112   2.893  14.530 -0.3853  0.8230 -0.1419
17497TIP3    H173906   1.045   2.842  14.575 -0.6940  2.1308  0.9460
17497TIP3    H273907   1.067   2.975  14.506  0.2178  0.7994 -1.4248
17498TIP3   OH273908   4.159   4.336   2.762 -0.2451 -0.0326 -0.1763
17498TIP3    H173909   4.249   4.310   2.746 -0.7334 -0.9056 -1.7695
17498TIP3    H273910   4.121   4.346   2.675 -2.1013 -1.2088  0.4420
17499TIP3   OH273911   2.523   4.244   3.382  0.2092 -0.2329  0.4353
17499TIP3    H173912   2.532   4.189   3.304 -1.7657  0.1508 -0.0960
17499TIP3    H273913   2.601   4.300   3.381 -0.2297  0.4077 -1.7914
17500TIP3   OH273914   1.746   0.689   6.131  0.4508 -0.2578  0.7744
17500TIP3    H173915   1.720   0.773   6.170  1.9057 -0.1681  1.6407
17500TIP3    H273916   1.669   0.634   6.139 -1.2566  1.5597 -1.6886
17501TIP3   OH273917   1.831   4.616   0.733  0.3281  0.4888 -0.8297
17501TIP3    H173918   1.818   4.675   0.659  0.1760  0.4994 -0.7958
17501TIP3    H273919   1.926   4.605   0.739  0.2933 -0.8165 -2.0515
17502TIP3   OH273920   2.281   2.834  14.183 -0.2353 -0.5839  0.3338
17502TIP3    H173921   2.243   2.845  14.096 -0.6795  0.6610  0.6614
17502TIP3    H273922   2.296   2.740  14.191 -1.8701 -0.9447 -0.3906
17503TIP3   OH273923   3.686   2.646   3.340  0.4798 -0.1607  0.1407
17503TIP3    H173924   3.596   2.620   3.359  0.3733  0.7171  0.8593
17503TIP3    H273925   3.697   2.731   3.383  2.0334 -0.8216  1.1589
17504TIP3   OH273926   0.207   4.657   2.146  0.0373  0.2441  0.1020
17504TIP3    H173927   0.278   4.660   2.082 -0.4083 -1.2097 -0.5008
17504TIP3    H273928   0.140   4.715   2.110 -0.1091 -0.3704 -0.6399
17505TIP3   OH273929   3.997   2.757  14.050 -0.1631 -0.0919 -0.4673
17505TIP3    H173930   4.033   2.668  14.044  0.9666 -0.3463  4.6589
17505TIP3    H273931   3.906   2.744  14.077 -0.0150  0.2525  0.2264
17506TIP3   OH273932   0.884   4.177   1.291 -0.0732 -0.2922 -0.3945
17506TIP3    H173933   0.868   4.252   1.348 -1.0087  1.2832 -2.6033
17506TIP3    H273934   0.971   4.193   1.255  0.7249 -1.5358  0.8360
17507TIP3   OH273935   4.524   5.591  16.121  0.3995  0.1918  0.5729
17507TIP3    H173936   4.564   5.589  16.035  0.2053 -0.5985  0.4917
17507TIP3    H273937   4.598   5.596  16.182  0.6315 -1.0956  0.4186
17508TIP3   OH273938   0.038   3.433  15.046 -0.5968  0.6027 -0.1248
17508TIP3    H173939   0.089   3.491  14.989 -0.3619  0.5658  0.0466
17508TIP3    H273940   0.098   3.362  15.067 -0.7522  0.5084 -0.0006
17509TIP3   OH273941   6.745   4.651  13.193  0.1834  0.4214 -0.7684
17509TIP3    H173942   6.804   4.661  13.268 -0.3249  0.1328 -0.3232
17509TIP3    H273943   6.759   4.731  13.142  2.8837 -0.7696 -2.0738
17510TIP3   OH273944   2.891   0.681   3.351  0.2897 -0.6877  0.2526
17510TIP3    H173945   2.870   0.763   3.307 -2.3486 -2.0171 -1.2002
17510TIP3    H273946   2.902   0.705   3.443 -1.6999  1.1349  0.0849
17511TIP3   OH273947   1.717   0.361  16.648  0.1717 -0.7208 -0.1191
17511TIP3    H173948   1.671   0.431  16.602  1.4139  0.1016 -0.1486
17511TIP3    H273949   1.795   0.403  16.684 -0.0157 -1.6753  1.5006
17512TIP3   OH273950   4.344   4.117  11.808 -0.2486 -0.0225  0.4344
17512TIP3    H173951   4.384   4.046  11.757  0.0364  0.6562 -0.3156
17512TIP3    H273952   4.299   4.170  11.743 -1.2005  0.0136  1.1017
17513TIP3   OH273953   6.599   2.195   5.770 -0.5797 -0.2043 -0.2757
17513TIP3    H173954   6.691   2.198   5.795 -0.6791  0.5760  0.0179
17513TIP3    H273955   6.552   2.175   5.850 -0.7024 -0.0996 -0.3195
17514TIP3   OH273956   4.766   6.584  12.835  0.3646 -0.3548 -0.3992
17514TIP3    H173957   4.695   6.629  12.789 -2.2095 -2.1091  1.5882
17514TIP3    H273958   4.780   6.636  12.914 -0.6264 -1.4383  0.5111
17515TIP3   OH273959   1.807   3.920  14.992  0.0529  0.0292  0.6315
17515TIP3    H173960   1.895   3.883  14.981  0.1289  0.2581  0.4695
17515TIP3    H273961   1.748   3.852  14.959  0.2176  0.2539 -0.1337
17516TIP3   OH273962   3.391   2.146   6.433  0.8451  0.1552 -0.5357
17516TIP3    H173963   3.412   2.053   6.432 -1.0221 -0.3003 -1.3629
17516TIP3    H273964   3.407   2.175   6.343 -1.0463 -0.0075 -0.9651
17517TIP3   OH273965   0.837   0.761   6.539  0.3092 -0.7355  0.0326
17517TIP3    H173966   0.876   0.813   6.609  0.4980 -0.5589 -0.2000
17517TIP3    H273967   0.889   0.783   6.461 -0.3792 -0.3484 -0.3259
17518TIP3   OH273968   0.056   2.813   4.225  0.2876 -0.7968 -0.0291
17518TIP3    H173969   0.094   2.752   4.161 -1.0199 -0.6288 -1.0233
17518TIP3    H273970  -0.008   2.760   4.272  1.6088 -1.0521  1.5477
17519TIP3   OH273971   6.195   2.819  11.890  0.8797 -0.5744 -0.4331
17519TIP3    H173972   6.142   2.851  11.818 -0.5465 -0.2688  0.7156
17519TIP3    H273973   6.244   2.745  11.853 -0.1209 -0.6845 -1.6004
17520TIP3   OH273974   0.573   0.646   5.460  0.1480  0.3869  0.2988
17520TIP3    H173975   0.528   0.630   5.544 -0.3981  0.4608  0.0246
17520TIP3    H273976   0.643   0.581   5.458 -1.3548 -1.2907 -0.2977
17521TIP3   OH273977   3.912   6.205   0.792 -0.1258  0.2891 -0.0344
17521TIP3    H173978   3.839   6.191   0.852 -1.9533  1.5279 -1.8228
17521TIP3    H273979   3.982   6.239   0.847 -1.1426 -0.2260  1.6417
17522TIP3   OH273980   1.739   3.168   3.641  0.0868  0.2094 -0.5742
17522TIP3    H173981   1.818   3.146   3.590  0.9825  1.4586  0.2283
17522TIP3    H273982   1.698   3.239   3.592 -0.7941 -0.7180 -1.2119
17523TIP3   OH273983   2.311   5.916  13.818  0.0736 -0.0046 -0.1222
17523TIP3    H173984   2.234   5.890  13.767 -0.6864  2.0799 -0.0907
17523TIP3    H273985   2.297   5.878  13.905 -0.2216 -0.7911 -0.5034
17524TIP3   OH273986   5.410   6.068  11.796 -0.5363 -0.3821 -0.2337
17524TIP3    H173987   5.343   6.130  11.768  0.2981  0.9897  0.7334
17524TIP3    H273988   5.419   6.083  11.890  1.2941 -0.3553 -0.3788
17525TIP3   OH273989   5.278   4.118  13.268  0.5935  0.2504  0.1198
17525TIP3    H173990   5.283   4.208  13.237 -0.0390 -0.4362 -2.2073
17525TIP3    H273991   5.184   4.098  13.269  0.6991 -0.2641  1.0210
17526TIP3   OH273992   3.700   3.768   5.146  0.2482 -0.4898  0.0434
17526TIP3    H173993   3.685   3.717   5.225  1.5337 -1.7493 -0.4953
17526TIP3    H273994   3.769   3.830   5.170  1.4122 -1.5961 -0.3673
17527TIP3   OH273995   0.018   4.110  16.502  0.2459 -0.1863  0.4930
17527TIP3    H173996  -0.065   4.127  16.545 -0.2325 -0.8943 -0.1335
17527TIP3    H273997   0.075   4.078  16.572 -0.4358 -1.0470  0.6754
17528TIP3   OH273998   1.914   5.668   4.276  0.3323 -0.4075  0.0191
17528TIP3    H173999   1.877   5.602   4.216  0.9078  0.5910 -1.4787
17528TIP3    H274000   2.008   5.647   4.279  0.5002  0.2808 -0.3877
17529TIP3   OH274001   6.662   3.918   2.737 -0.7565 -0.7972 -0.5893
17529TIP3    H174002   6.733   3.976   2.765  0.6415 -1.4889 -2.4907
17529TIP3    H274003   6.662   3.847   2.800 -1.4425  0.4062  0.8483
17530TIP3   OH274004   1.092   6.021   0.201 -0.5506  0.4833 -0.4450
17530TIP3    H174005   1.007   5.982   0.224 -0.6655  0.9913  0.0099
17530TIP3    H274006   1.155   5.976   0.257 -0.9437  2.3590  1.6437
17531TIP3   OH274007   4.065   6.695   3.190  0.5202 -0.4387  0.2897
17531TIP3    H174008   4.039   6.787   3.202 -1.1634 -0.7916 -0.3530
17531TIP3    H274009   4.073   6.685   3.095  2.6977 -0.4783  0.4351
17532TIP3   OH274010   2.664   3.432  16.642 -0.2507 -0.4277  0.2428
17532TIP3    H174011   2.604   3.404  16.573  0.4184  2.0486 -1.4935
17532TIP3    H274012   2.612   3.488  16.699  0.0260  0.6085 -0.4849
17533TIP3   OH274013   6.152   5.950  12.603 -0.1708 -0.0692  0.4365
17533TIP3    H174014   6.195   5.868  12.625 -0.6450 -0.7073 -0.8819
17533TIP3    H274015   6.086   5.926  12.538  1.8518  1.7883 -2.5181
17534TIP3   OH274016   0.845   5.436   5.032  0.6354 -0.2834  0.2474
17534TIP3    H174017   0.871   5.517   4.988 -2.3793  0.3030 -0.6737
17534TIP3    H274018   0.834   5.461   5.124 -0.2132  0.3460 -0.0225
17535TIP3   OH274019   6.224   0.785  12.726  0.1734  0.0873 -0.1996
17535TIP3    H174020   6.171   0.830  12.793  2.9156  2.5324  0.5551
17535TIP3    H274021   6.293   0.742  12.776 -0.5329 -2.4194 -1.2181
17536TIP3   OH274022   3.515   6.507  13.123  0.1351 -0.0433 -0.1213
17536TIP3    H174023   3.552   6.485  13.209  0.6705  0.7585 -0.1363
17536TIP3    H274024   3.591   6.521  13.067 -0.2057 -1.1661 -0.9118
17537TIP3   OH274025   5.322   5.974   6.389  0.0568  0.1732  0.6746
17537TIP3    H174026   5.358   5.915   6.455 -0.9249 -0.0867  0.9969
17537TIP3    H274027   5.392   6.036   6.372  0.9714 -0.8437  0.6178
17538TIP3   OH274028   4.127   0.052   2.616 -0.0248  0.8608 -0.3644
17538TIP3    H174029   4.061   0.041   2.548  1.1105 -0.2493 -1.3405
17538TIP3    H274030   4.154   0.143   2.609 -0.7394  1.0606 -0.6177
17539TIP3   OH274031   6.560   0.626  13.870 -0.6972  0.0667  0.1257
17539TIP3    H174032   6.538   0.688  13.800 -1.0821 -1.3459 -1.0545
17539TIP3    H274033   6.652   0.641  13.889 -0.4940  0.2233 -0.9565
17540TIP3   OH274034   3.809   4.504   2.173  0.1169  0.1894 -0.5603
17540TIP3    H174035   3.853   4.503   2.258  1.2205 -0.6519 -1.1173
17540TIP3    H274036   3.764   4.588   2.171  0.8296  0.6214  0.4797
17541TIP3   OH274037   2.194   5.560  13.795 -0.0000  0.4010  0.1590
17541TIP3    H174038   2.262   5.573  13.729 -0.5837 -1.5187 -0.9237
17541TIP3    H274039   2.112   5.580  13.750 -0.4245 -1.1587  0.1595
17542TIP3   OH274040   4.052   2.279  16.144  0.2294 -0.3498  0.2888
17542TIP3    H174041   4.120   2.248  16.204 -0.2621 -0.2607  0.8956
17542TIP3    H274042   3.986   2.319  16.200  0.5252  1.2142 -0.4150
17543TIP3   OH274043   3.889   4.993   1.193  0.1942 -0.4755  0.4519
17543TIP3    H174044   3.964   4.966   1.141 -0.0285  0.9363 -0.6636
17543TIP3    H274045   3.909   4.964   1.282  2.1207 -0.0163  0.1974
17544TIP3   OH274046   5.658   1.336  13.122 -0.4994  0.0989 -0.0090
17544TIP3    H174047   5.577   1.356  13.168 -2.2183 -1.0125 -2.3831
17544TIP3    H274048   5.661   1.241  13.119  0.8360  0.1269 -0.0887
17545TIP3   OH274049   5.541   0.196   0.796 -0.0115 -0.9634  0.0214
17545TIP3    H174050   5.449   0.210   0.818 -0.1186  2.4372 -1.9206
17545TIP3    H274051   5.544   0.199   0.700  2.2144 -0.2070  0.0479
17546TIP3   OH274052   6.449   3.287   3.792 -0.3065  0.2196 -0.2602
17546TIP3    H174053   6.387   3.257   3.859  0.8225  0.7396  1.0711
17546TIP3    H274054   6.443   3.221   3.723  0.8520 -2.2544  1.8067
17547TIP3   OH274055   2.413   3.059  12.445  0.3184 -0.1934  0.1745
17547TIP3    H174056   2.467   3.113  12.387 -0.0800  0.4288  0.3712
17547TIP3    H274057   2.475   3.022  12.508  0.6370 -0.2085 -0.1450
17548TIP3   OH274058   3.332   0.802  14.993  0.1954 -0.1298  0.3201
17548TIP3    H174059   3.306   0.869  15.056  2.3875  0.7410  0.3648
17548TIP3    H274060   3.318   0.719  15.040  1.0342  0.4720  1.6942
17549TIP3   OH274061   4.595   0.840   5.951 -0.0094 -0.0506  0.0323
17549TIP3    H174062   4.503   0.820   5.933  0.3465 -0.9046 -0.9209
17549TIP3    H274063   4.598   0.853   6.046 -0.8702 -1.4783  0.2918
17550TIP3   OH274064   2.368   6.105   4.846 -0.3294  0.0655 -0.4497
17550TIP3    H174065   2.356   6.094   4.752 -1.8055  1.8149 -0.5197
17550TIP3    H274066   2.279   6.120   4.880  0.4007  1.7720  0.8568
17551TIP3   OH274067   4.111   5.454  16.585  0.2609  0.1397 -0.2463
17551TIP3    H174068   4.115   5.507  16.505  0.5934  0.3502 -0.0966
17551TIP3    H274069   4.111   5.364  16.555  1.0393  0.2096 -0.4660
17552TIP3   OH274070   6.009   2.303   3.462  0.4284  0.6013  0.4673
17552TIP3    H174071   5.963   2.223   3.438 -0.0559  1.2117 -0.7056
17552TIP3    H274072   5.940   2.367   3.477  0.8456  1.0771  0.3640
17553TIP3   OH274073   0.972   5.920  12.612  0.9742 -0.0936  0.1645
17553TIP3    H174074   0.895   5.961  12.650 -0.5606 -0.7815 -2.0065
17553TIP3    H274075   0.984   5.839  12.661  0.0768 -0.1548  0.2817
17554TIP3   OH274076   6.284   3.215   1.831 -0.0827  0.8667 -0.0381
17554TIP3    H174077   6.331   3.296   1.852  2.7583  0.2847 -3.2734
17554TIP3    H274078   6.341   3.145   1.862 -0.0499  0.1404 -1.6199
17555TIP3   OH274079   3.639   3.830  11.810 -0.2704 -0.3473 -0.4383
17555TIP3    H174080   3.552   3.865  11.795 -0.4064 -0.6931 -0.4701
17555TIP3    H274081   3.690   3.904  11.842 -0.6402 -0.1996 -0.1889
17556TIP3   OH274082   3.280   3.126  15.751  0.3450 -0.1462  0.2371
17556TIP3    H174083   3.273   3.033  15.773  0.5637 -0.3966 -0.7231
17556TIP3    H274084   3.192   3.151  15.724  0.6714 -0.5388 -1.2475
17557TIP3   OH274085   2.805   1.520  12.696  0.2434  0.6085 -0.2454
17557TIP3    H174086   2.777   1.566  12.775 -2.5768  1.5624 -1.6298
17557TIP3    H274087   2.865   1.581  12.653 -0.4393  1.3542 -0.1801
17558TIP3   OH274088   4.927   2.837  15.382  0.2612 -0.8981 -0.1315
17558TIP3    H174089   4.941   2.880  15.297  0.3684  0.8178  0.7244
17558TIP3    H274090   4.965   2.749  15.370  2.4714  0.1020 -1.1295
17559TIP3   OH274091   4.435   6.034  12.986 -0.1497  0.0285 -0.3236
17559TIP3    H174092   4.499   6.085  13.035 -0.8243 -0.7409  1.4494
17559TIP3    H274093   4.487   5.971  12.936  0.5301  0.1208  0.2581
17560TIP3   OH274094   5.879   4.046   4.899  0.2471 -0.2937 -0.1812
17560TIP3    H174095   5.828   4.009   4.826  1.0727  0.4615 -1.1562
17560TIP3    H274096   5.860   4.140   4.896 -1.1546 -0.4487  1.7459
17561TIP3   OH274097   3.912   1.979  14.191  0.2565 -0.1242  0.9200
17561TIP3    H174098   3.903   1.904  14.132 -4.2327  1.8300 -1.3748
17561TIP3    H274099   3.920   2.055  14.132  0.1265  1.5967  3.0021
17562TIP3   OH274100   6.408   6.667   3.480 -0.4422 -0.5908 -0.5009
17562TIP3    H174101   6.469   6.599   3.508  0.9936  1.1668  0.9007
17562TIP3    H274102   6.323   6.639   3.512  0.7027  0.0104  3.5356
17563TIP3   OH274103   3.719   0.381  12.374  0.1195 -0.0038 -0.5375
17563TIP3    H174104   3.733   0.366  12.280 -1.8346 -0.8058 -0.7477
17563TIP3    H274105   3.768   0.311  12.417  1.9870  1.0400 -0.8507
17564TIP3   OH274106   3.271   1.782  15.277 -0.3292 -0.5524 -0.1694
17564TIP3    H174107   3.323   1.855  15.310 -1.1731 -0.7440  1.6970
17564TIP3    H274108   3.244   1.809  15.190  0.4289  0.8122  0.0006
17565TIP3   OH274109   4.890   2.089   5.482  0.0657  0.0625  0.6902
17565TIP3    H174110   4.858   2.163   5.430 -0.1328 -0.1738  0.4731
17565TIP3    H274111   4.944   2.129   5.550  0.3569  0.3707  0.2824
17566TIP3   OH274112   4.486   1.456  13.795  0.1024  0.0409 -0.5987
17566TIP3    H174113   4.487   1.422  13.884  0.3080  2.0403  0.2091
17566TIP3    H274114   4.396   1.440  13.764 -0.2114  0.0938  0.2724
17567TIP3   OH274115   4.601   0.263   3.136 -0.1226  0.0533  0.4934
17567TIP3    H174116   4.574   0.201   3.068 -0.3731  1.1777 -0.4584
17567TIP3    H274117   4.632   0.207   3.208  1.0006 -1.1658 -0.8694
17568TIP3   OH274118   0.185   5.240  13.241  0.1975  0.0519  0.3870
17568TIP3    H174119   0.115   5.283  13.289  1.2666  1.5633  0.6749
17568TIP3    H274120   0.229   5.185  13.307 -0.8654 -1.1416  0.1337
17569TIP3   OH274121   0.172   1.292  16.383 -0.1781  0.2962 -0.0297
17569TIP3    H174122   0.243   1.302  16.446  0.2977 -0.3374 -0.4480
17569TIP3    H274123   0.093   1.318  16.430  0.2387  0.3376  0.6525
17570TIP3   OH274124   2.532   4.126  12.230  0.0795 -0.3724  0.3245
17570TIP3    H174125   2.608   4.122  12.289 -0.0166  3.8715  1.0476
17570TIP3    H274126   2.460   4.091  12.282  0.7820 -0.5881  1.1817
17571TIP3   OH274127   1.977   6.467  16.051  0.3578 -0.1932 -0.4407
17571TIP3    H174128   2.007   6.411  16.123  2.8346 -0.1731 -1.3508
17571TIP3    H274129   1.948   6.406  15.983  0.8510 -0.3024 -0.5534
17572TIP3   OH274130   0.284   1.744  15.698  0.1018 -0.1170  0.2399
17572TIP3    H174131   0.234   1.664  15.717 -0.0322  0.3937  2.2253
17572TIP3    H274132   0.374   1.713  15.686  0.3678 -0.4370  2.7116
17573TIP3   OH274133   5.317   4.662   4.590 -0.1209 -0.1852 -0.1264
17573TIP3    H174134   5.260   4.696   4.659 -1.6253 -1.5619 -0.6451
17573TIP3    H274135   5.273   4.685   4.509  0.7787 -0.0619 -0.5931
17574TIP3   OH274136   1.700   3.377   2.950 -0.3201 -0.3317 -0.4495
17574TIP3    H174137   1.622   3.366   2.895  0.7184 -1.6684 -1.7319
17574TIP3    H274138   1.763   3.420   2.893  0.7184 -1.5770 -0.2847
17575TIP3   OH274139   3.234   6.222  11.534 -0.3121  0.1142 -0.5655
17575TIP3    H174140   3.300   6.255  11.595 -1.0825 -0.4197  0.5984
17575TIP3    H274141   3.225   6.291  11.468  3.4142 -0.9101 -2.4529
17576TIP3   OH274142   0.646   1.221  15.473 -0.3168 -0.3496 -0.2572
17576TIP3    H174143   0.598   1.152  15.520 -1.1310 -1.0587 -2.0278
17576TIP3    H274144   0.723   1.176  15.437 -0.5019 -0.1955 -0.8584
17577TIP3   OH274145   5.095   4.743   4.746  0.1348 -0.4677 -0.6000
17577TIP3    H174146   5.134   4.774   4.827  0.9438 -4.2187  0.6463
17577TIP3    H274147   5.003   4.728   4.767 -0.3387  1.2897 -1.3020
17578TIP3   OH274148   6.105   2.548   3.306 -0.2572  0.2673  0.1170
17578TIP3    H174149   6.089   2.480   3.371 -0.7972  1.1297  0.9058
17578TIP3    H274150   6.120   2.500   3.225 -1.0109 -0.7898  0.5765
17579TIP3   OH274151   4.576   1.432   6.480 -0.1680  0.2267 -0.0998
17579TIP3    H174152   4.650   1.484   6.511 -1.0859 -0.3211  3.4381
17579TIP3    H274153   4.589   1.345   6.519 -1.5101 -0.5535 -1.2853
17580TIP3   OH274154   5.302   2.463  12.966 -0.5139  0.2054 -0.0814
17580TIP3    H174155   5.218   2.467  13.012 -2.2395 -1.1013 -2.8643
17580TIP3    H274156   5.318   2.370  12.953  3.4472  0.0809  3.5846
17581TIP3   OH274157   5.996   2.565   1.783  0.1498  0.0923 -0.4543
17581TIP3    H174158   6.078   2.609   1.803 -0.5283  0.9087  0.6848
17581TIP3    H274159   6.001   2.481   1.830 -0.0572  0.5700  0.4477
17582TIP3   OH274160   2.035   5.548   3.836 -0.0413  0.5144 -0.0241
17582TIP3    H174161   2.050   5.470   3.782 -0.5483 -0.0375  0.6017
17582TIP3    H274162   1.987   5.514   3.913  3.3847  0.6731  2.3915
17583TIP3   OH274163   4.637   2.936   4.868  0.1340  0.2315 -0.1814
17583TIP3    H174164   4.668   3.000   4.932 -0.7780 -0.1212  0.6370
17583TIP3    H274165   4.546   2.918   4.894  0.2011 -0.9851 -0.7208
17584TIP3   OH274166   3.933   6.415   4.139 -0.1940  0.3738  0.2482
17584TIP3    H174167   3.929   6.459   4.055 -1.2772  0.1022  0.1539
17584TIP3    H274168   3.905   6.326   4.122  1.0437 -0.1097  0.6232
17585TIP3   OH274169   4.006   4.745  11.464 -0.1654  0.6860 -0.5716
17585TIP3    H174170   3.922   4.699  11.465 -0.6892  1.6036  0.3728
17585TIP3    H274171   4.059   4.699  11.530 -0.8025  1.5976  0.6100
17586TIP3   OH274172   1.969   3.365  12.688  0.1263  0.1923 -0.4004
17586TIP3    H174173   2.028   3.424  12.641  2.4127 -0.9999  0.8159
17586TIP3    H274174   1.975   3.391  12.779 -1.4254  0.1625 -0.2611
17587TIP3   OH274175   5.373   0.885   4.769  0.2659  0.1798  0.3603
17587TIP3    H174176   5.333   0.882   4.856  1.1160 -0.5835  0.7427
17587TIP3    H274177   5.463   0.914   4.786  0.9204 -1.5046 -0.0604
17588TIP3   OH274178   0.782   2.335  14.920 -0.3293 -0.5581  0.1231
17588TIP3    H174179   0.800   2.386  14.999 -1.3879 -1.7623  1.1814
17588TIP3    H274180   0.720   2.389  14.870  1.0620  0.6374 -0.3861
17589TIP3   OH274181   6.072   0.136   1.736  0.4532  0.5607 -0.3846
17589TIP3    H174182   6.140   0.112   1.800  0.5684  5.0103  1.5617
17589TIP3    H274183   6.016   0.059   1.730  4.5848 -2.8026 -0.8594
17590TIP3   OH274184   4.526   1.109   2.362  0.3268 -0.9612 -0.0111
17590TIP3    H174185   4.572   1.025   2.370  1.6790 -0.1974  0.4943
17590TIP3    H274186   4.587   1.173   2.398  0.9013  0.7762 -3.5595
17591TIP3   OH274187   6.302   0.966   5.626 -0.2842  0.2150  0.3243
17591TIP3    H174188   6.341   0.983   5.540 -0.1862  0.2920  0.3832
17591TIP3    H274189   6.336   1.037   5.681 -0.3411  0.1610  0.4280
17592TIP3   OH274190   6.042   3.012  10.531 -0.7370  0.5262 -0.2701
17592TIP3    H174191   5.993   3.092  10.510  0.4870  1.1799 -0.7574
17592TIP3    H274192   6.113   3.010  10.467 -1.3417 -1.5355 -0.9516
17593TIP3   OH274193   4.477   5.108  15.174  0.2381 -0.2201  0.8058
17593TIP3    H174194   4.442   5.068  15.094  0.0501  0.9931  0.2539
17593TIP3    H274195   4.562   5.067  15.186 -0.4636 -1.7044  0.9910
17594TIP3   OH274196   0.904   1.365   1.038  0.1781  0.3330  0.1193
17594TIP3    H174197   0.814   1.389   1.015  0.4898  1.7399  0.2928
17594TIP3    H274198   0.953   1.447   1.034  1.7453 -0.6010 -1.2048
17595TIP3   OH274199   0.923   1.302  17.106 -0.1272 -0.0680 -0.0875
17595TIP3    H174200   0.900   1.368  17.040 -1.0209 -1.1424 -0.8915
17595TIP3    H274201   0.981   1.348  17.166  1.0788  0.8435 -1.8527
17596TIP3   OH274202   0.145   3.816   0.561  0.2609 -0.1480  0.2293
17596TIP3    H174203   0.071   3.783   0.612  0.5589  0.0507  0.7842
17596TIP3    H274204   0.221   3.805   0.617  0.2678  2.3467  0.8255
17597TIP3   OH274205   3.977   6.022  14.518 -0.8867 -0.5313 -0.1634
17597TIP3    H174206   3.897   6.071  14.537 -0.2626  0.6533 -0.5354
17597TIP3    H274207   3.984   6.024  14.422 -0.0250  0.0040 -0.0931
17598TIP3   OH274208   2.214   0.333   4.999  0.5342  0.5162 -0.4256
17598TIP3    H174209   2.231   0.420   5.035  1.6997 -0.0936  0.5849
17598TIP3    H274210   2.214   0.346   4.905  0.2065  1.6893 -0.2881
17599TIP3   OH274211   1.793   5.853  16.298 -0.1304 -0.7869 -0.0984
17599TIP3    H174212   1.847   5.932  16.306 -1.3091  0.0311 -0.0546
17599TIP3    H274213   1.749   5.845  16.382 -0.3502 -1.2450 -0.2559
17600TIP3   OH274214   6.485   5.946   6.564 -0.8989 -0.9081 -0.3611
17600TIP3    H174215   6.563   5.995   6.536 -0.5290 -0.9420  0.5621
17600TIP3    H274216   6.517   5.857   6.577 -0.6113 -0.5501  1.8331
17601TIP3   OH274217   1.931   2.166  11.170  0.0264  0.2280 -0.4888
17601TIP3    H174218   1.878   2.147  11.093  0.3515 -0.0394 -0.6499
17601TIP3    H274219   1.997   2.228  11.140 -0.3105  0.7090 -0.2447
17602TIP3   OH274220   1.636   1.381  17.057 -0.2530 -0.1623 -0.7372
17602TIP3    H174221   1.623   1.413  16.968 -0.7594  1.1949 -0.1921
17602TIP3    H274222   1.552   1.398  17.101  0.0040 -0.7875  0.0132
17603TIP3   OH274223   4.451   6.700  16.192  0.3706  0.0545 -0.3704
17603TIP3    H174224   4.423   6.787  16.221  1.3110 -0.1937  1.4190
17603TIP3    H274225   4.462   6.708  16.097 -0.4140  1.6228 -0.3548
17604TIP3   OH274226   0.158   4.574   5.471  0.2297  0.1056 -0.2108
17604TIP3    H174227   0.207   4.625   5.536 -0.5146 -1.0922  1.3590
17604TIP3    H274228   0.079   4.546   5.518  0.5025 -2.2888 -1.0602
17605TIP3   OH274229   2.564   6.345   0.894  0.2429  0.2545 -0.2820
17605TIP3    H174230   2.582   6.380   0.982  1.6234  1.2405 -0.9217
17605TIP3    H274231   2.468   6.344   0.889  0.1349  0.5169  1.1047
17606TIP3   OH274232   2.302   0.008  14.979  0.1710 -0.1897  0.1835
17606TIP3    H174233   2.285   0.015  14.885 -0.6443 -1.3920  0.2286
17606TIP3    H274234   2.223  -0.031  15.016  1.3292 -1.8642  1.0417
17607TIP3   OH274235   2.027   6.418  13.110  0.2621 -0.7157 -0.2430
17607TIP3    H174236   1.979   6.356  13.055 -0.6063  0.8309 -1.2981
17607TIP3    H274237   1.981   6.416  13.194 -0.9692 -0.1306 -0.8739
17608TIP3   OH274238   3.144   5.682   3.134 -0.5811  0.6122 -0.1559
17608TIP3    H174239   3.139   5.665   3.040 -0.0505 -1.3814  0.1264
17608TIP3    H274240   3.060   5.653   3.168 -0.7611  1.3074  0.0158
17609TIP3   OH274241   2.047   4.293   5.700 -0.0714  0.0101 -0.1755
17609TIP3    H174242   1.989   4.369   5.709  1.0299  1.0917 -1.6997
17609TIP3    H274243   2.096   4.290   5.782 -0.1849  0.9009 -0.0640
17610TIP3   OH274244   0.917   2.912  13.686  0.0043 -0.3324  0.1079
17610TIP3    H174245   0.926   2.855  13.609  0.4329 -0.8514  0.5275
17610TIP3    H274246   0.864   2.861  13.747  0.4584 -0.3199  0.5189
17611TIP3   OH274247   3.714   1.297  11.586  0.3282  0.1508 -0.6172
17611TIP3    H174248   3.693   1.338  11.670 -0.1750  0.2281 -0.7754
17611TIP3    H274249   3.795   1.338  11.558  0.5408  0.0693 -0.1315
17612TIP3   OH274250   4.783   0.616   1.018  0.0577 -0.0358 -0.2740
17612TIP3    H174251   4.774   0.696   1.070  2.3485  0.5903 -0.7145
17612TIP3    H274252   4.768   0.645   0.928  0.3751 -0.1870 -0.3782
17613TIP3   OH274253   5.808   5.184  15.380 -0.0231  0.5967  0.7568
17613TIP3    H174254   5.797   5.195  15.285 -0.6574  2.0247  0.9771
17613TIP3    H274255   5.868   5.109  15.388 -0.0345  0.3841 -0.7609
17614TIP3   OH274256   2.026   0.255  16.169 -0.0350  0.5960  0.1082
17614TIP3    H174257   2.037   0.237  16.262  1.6653  0.2400 -0.1224
17614TIP3    H274258   2.042   0.350  16.161 -0.4881  0.6823  0.2151
17615TIP3   OH274259   3.719   6.751   4.110 -0.3600  0.1107  0.2787
17615TIP3    H174260   3.814   6.753   4.098 -0.4032  2.8284 -0.1493
17615TIP3    H274261   3.684   6.794   4.032 -1.9928 -1.1055  0.2909
17616TIP3   OH274262   3.561   2.197   2.188 -0.2972 -0.0882  0.1199
17616TIP3    H174263   3.487   2.257   2.197 -0.1453  0.1098  0.0719
17616TIP3    H274264   3.599   2.217   2.102  0.7435  0.9025  0.7759
17617TIP3   OH274265   5.791   5.102  15.098 -0.4115  0.1447  0.4474
17617TIP3    H174266   5.720   5.147  15.052 -0.9160 -1.1279 -0.0610
17617TIP3    H274267   5.787   5.012  15.066 -1.7627 -1.2477  4.0553
17618TIP3   OH274268   3.978   1.100  13.774 -0.2585  0.5278 -0.1367
17618TIP3    H174269   3.992   1.133  13.685 -0.6062  1.7714  0.2481
17618TIP3    H274270   4.032   1.021  13.779  1.6562  1.7303 -0.6919
17619TIP3   OH274271   3.634   1.570   1.226  0.0631 -0.3592  0.5502
17619TIP3    H174272   3.650   1.659   1.195 -0.7556 -0.6794 -0.8740
17619TIP3    H274273   3.711   1.520   1.198  0.0698 -0.3027  0.4678
17620TIP3   OH274274   5.606   1.248  12.846  0.2562 -0.6996 -0.4028
17620TIP3    H174275   5.563   1.307  12.785 -1.8456 -1.9368 -0.2173
17620TIP3    H274276   5.620   1.301  12.925 -1.4497 -0.3723 -0.2854
17621TIP3   OH274277   5.846   0.119   4.364  0.2252  0.2155 -0.1834
17621TIP3    H174278   5.859   0.126   4.459  1.1533  1.4361 -0.3665
17621TIP3    H274279   5.858   0.027   4.345 -1.5064 -0.3282  1.0706
17622TIP3   OH274280   1.565   4.536   0.770 -0.1485 -0.2275  0.0445
17622TIP3    H174281   1.640   4.584   0.735 -1.0734 -0.4714 -2.4532
17622TIP3    H274282   1.601   4.453   0.801  0.5305 -0.8162 -2.1550
17623TIP3   OH274283   4.946   1.688   1.989 -0.7774  0.1530 -0.3771
17623TIP3    H174284   5.007   1.631   2.036 -1.0265  0.5271  0.4259
17623TIP3    H274285   4.861   1.669   2.029 -0.9889  0.5132 -0.6536
17624TIP3   OH274286   5.505   6.497  11.617 -0.0260 -0.6405 -0.5769
17624TIP3    H174287   5.510   6.409  11.655  0.5604 -0.5907 -0.5166
17624TIP3    H274288   5.584   6.541  11.650 -0.5237  0.0398 -0.2772
17625TIP3   OH274289   3.113   1.447  17.049 -0.4484  0.1557 -0.3773
17625TIP3    H174290   3.207   1.431  17.055 -0.3774  1.0313  1.9386
17625TIP3    H274291   3.073   1.373  17.093 -0.8175  0.0488 -0.8888
17626TIP3   OH274292   0.668   2.952  15.714 -0.0674 -0.0127 -0.6275
17626TIP3    H174293   0.693   2.940  15.806  0.4454  0.4001 -0.7071
17626TIP3    H274294   0.688   2.868  15.673  1.6101  0.4244 -0.7681
17627TIP3   OH274295   3.746   4.596  16.419 -0.3707  0.5900 -0.0831
17627TIP3    H174296   3.826   4.639  16.386 -0.6205  1.4923  0.4330
17627TIP3    H274297   3.729   4.641  16.502 -1.5526  0.5767 -0.3118
17628TIP3   OH274298   1.173   6.489   3.493  0.2443  0.0399  0.4470
17628TIP3    H174299   1.188   6.394   3.498 -1.8108 -0.3268  0.5998
17628TIP3    H274300   1.199   6.513   3.404  0.7291 -0.6686  0.3876
17629TIP3   OH274301   3.227   3.974   1.845 -0.9044 -0.4275 -0.1500
17629TIP3    H174302   3.243   3.964   1.939 -0.2801  0.8735 -0.0966
17629TIP3    H274303   3.167   4.049   1.838  0.1484  0.3831 -0.8426
17630TIP3   OH274304   0.668   4.832  12.628 -0.7240  0.7958  0.1408
17630TIP3    H174305   0.761   4.811  12.639 -0.7574  0.0888 -0.7948
17630TIP3    H274306   0.624   4.748  12.642 -1.0776  0.7555 -1.1361
17631TIP3   OH274307   6.343   0.246   3.049  1.0260  0.3002 -0.4226
17631TIP3    H174308   6.334   0.187   3.124  1.8996  0.6804 -0.0052
17631TIP3    H274309   6.308   0.329   3.080 -1.3246 -0.2357 -1.3853
17632TIP3   OH274310   6.353   0.671  16.784 -0.0708  0.8532  0.7430
17632TIP3    H174311   6.322   0.756  16.815  0.6908  1.4006  0.0589
17632TIP3    H274312   6.290   0.644  16.718  1.1833  2.2879 -1.1498
17633TIP3   OH274313   4.794   2.381  16.645  0.5103 -0.5383  0.7881
17633TIP3    H174314   4.751   2.466  16.644 -0.0174 -0.7647  2.0936
17633TIP3    H274315   4.727   2.319  16.615  0.7674 -0.5613  0.2373
17634TIP3   OH274316   4.510   3.057  11.838 -0.3757 -0.3436 -0.4113
17634TIP3    H174317   4.581   3.024  11.894 -1.1476 -1.1515  0.1127
17634TIP3    H274318   4.554   3.117  11.777  1.1266 -2.2979 -1.3973
17635TIP3   OH274319   4.531   1.597   2.193  0.5666 -0.0355 -0.0683
17635TIP3    H174320   4.478   1.670   2.162 -0.1943 -1.1270 -1.4662
17635TIP3    H274321   4.615   1.636   2.215 -0.7016  1.7018  2.0031
17636TIP3   OH274322   6.081   4.988   2.203 -0.6351 -0.4872  0.8285
17636TIP3    H174323   6.010   5.032   2.251 -0.8512 -0.8604  0.8581
17636TIP3    H274324   6.060   4.894   2.210 -0.4194 -0.5719  0.3975
17637TIP3   OH274325   0.654   4.303  13.365  0.3030  0.2960  0.1172
17637TIP3    H174326   0.649   4.214  13.398  0.1119  0.6591  1.0990
17637TIP3    H274327   0.718   4.346  13.422  2.1943  0.1836 -1.8081
17638TIP3   OH274328   3.705   0.494   1.503  0.4002  0.2917 -0.0692
17638TIP3    H174329   3.739   0.502   1.414  1.4720  0.0569  0.3070
17638TIP3    H274330   3.710   0.401   1.522 -1.2895  0.1172 -0.3029
17639TIP3   OH274331   0.562   3.328  15.806 -0.5416  0.0337 -0.0060
17639TIP3    H174332   0.504   3.254  15.825  1.1831 -2.0171 -2.0883
17639TIP3    H274333   0.527   3.365  15.724 -0.8374  0.9811  0.5302
17640TIP3   OH274334   1.776   5.588   2.170  0.2461 -0.0491  0.6515
17640TIP3    H174335   1.796   5.510   2.118  1.2683  1.8392 -2.0088
17640TIP3    H274336   1.862   5.621   2.197  0.2328  2.2728 -1.7303
17641TIP3   OH274337   6.733   0.414  10.780 -0.3527 -0.2077 -0.3793
17641TIP3    H174338   6.788   0.415  10.858 -1.9872  2.2566  0.8606
17641TIP3    H274339   6.669   0.345  10.796 -1.9495  1.6126  1.5042
17642TIP3   OH274340   4.087   4.879  15.331  0.1546  0.1604 -0.0009
17642TIP3    H174341   4.156   4.939  15.303  1.3162 -1.1997 -0.1631
17642TIP3    H274342   4.008   4.914  15.291  0.9538  1.0632 -0.8543
17643TIP3   OH274343   5.667   0.186   4.820 -0.2692 -0.1775  0.1797
17643TIP3    H174344   5.700   0.188   4.910 -0.5823 -0.8733  0.3216
17643TIP3    H274345   5.641   0.276   4.802  1.5930  0.3834  0.0842
17644TIP3   OH274346   4.119   4.493  16.017  1.0804  0.0800  0.1000
17644TIP3    H174347   4.162   4.471  15.934 -0.2185 -2.7306  0.0639
17644TIP3    H274348   4.095   4.585  16.008  1.7652  0.0858 -2.2743
17645TIP3   OH274349   5.239   3.146  15.303 -0.9575 -0.1228 -0.2752
17645TIP3    H174350   5.316   3.194  15.272 -1.5342  1.6872  0.9254
17645TIP3    H274351   5.165   3.188  15.259 -1.3863 -0.7972 -0.2091
17646TIP3   OH274352   4.934   4.212   2.620 -0.0954 -0.4963 -0.0253
17646TIP3    H174353   4.938   4.303   2.590 -0.4320  0.4325  2.4928
17646TIP3    H274354   5.024   4.182   2.617  0.0746  0.0555 -0.5633
17647TIP3   OH274355   3.041   3.727  16.757  0.1251  0.3458  0.0899
17647TIP3    H174356   3.018   3.634  16.762 -0.9014  0.3805 -2.5243
17647TIP3    H274357   3.026   3.760  16.846 -1.3248 -1.5917  0.6351
17648TIP3   OH274358   2.742   6.163   5.330 -0.1695  0.2293 -0.2380
17648TIP3    H174359   2.829   6.175   5.367 -0.4699  1.2643  0.1744
17648TIP3    H274360   2.727   6.242   5.278  0.0166 -0.9341 -2.1622
17649TIP3   OH274361   5.107   3.616   0.487 -0.8549 -0.2049  0.0121
17649TIP3    H174362   5.182   3.573   0.529  1.6730  2.3133 -1.5626
17649TIP3    H274363   5.083   3.686   0.548 -0.5540  0.2371 -0.3639
17650TIP3   OH274364   3.385   3.019  14.786  0.2225 -0.0741  0.2600
17650TIP3    H174365   3.449   3.042  14.718  0.8190  2.1474  1.4768
17650TIP3    H274366   3.305   3.065  14.760  0.8008  1.7935  1.6165
17651TIP3   OH274367   4.788   0.663  13.979 -0.4326  0.0265 -0.2531
17651TIP3    H174368   4.744   0.748  13.980 -0.7618 -0.1198 -1.3488
17651TIP3    H274369   4.733   0.608  14.037 -1.7571 -0.1625 -1.6255
17652TIP3   OH274370   0.738   0.502   0.003  0.0403  0.1818  0.4431
17652TIP3    H174371   0.669   0.452   0.046  0.8445  0.5787  2.2521
17652TIP3    H274372   0.766   0.566   0.068  1.3830  0.7326 -0.6330
17653TIP3   OH274373   4.610   6.748   6.207  0.1371  0.0950 -0.1486
17653TIP3    H174374   4.529   6.741   6.258  0.7714 -2.5553  0.6528
17653TIP3    H274375   4.676   6.776   6.271  0.1866  0.6597 -0.4386
17654TIP3   OH274376   2.966   6.272  12.834 -0.6050 -0.7367  0.3874
17654TIP3    H174377   2.961   6.235  12.923 -0.5860  0.1704  0.7744
17654TIP3    H274378   2.880   6.255  12.797 -0.5326 -1.3488  0.4837
17655TIP3   OH274379   5.027   5.281  12.526 -0.3538 -0.0719 -0.3699
17655TIP3    H174380   4.964   5.279  12.454 -0.8956 -5.1446 -0.0918
17655TIP3    H274381   5.112   5.269  12.484 -0.4330 -0.7708 -0.3447
17656TIP3   OH274382   3.874   3.510  15.040  0.5036  0.0771 -0.2166
17656TIP3    H174383   3.782   3.503  15.066  0.7447  2.1893  1.5900
17656TIP3    H274384   3.875   3.581  14.975  0.9846  1.2434  1.0088
17657TIP3   OH274385   5.624   5.185  13.998 -0.3332 -0.7427  0.2570
17657TIP3    H174386   5.584   5.259  13.952 -2.2671  0.5772  3.6644
17657TIP3    H274387   5.675   5.139  13.931 -1.1235  2.1780 -2.5878
17658TIP3   OH274388   0.932   0.280   6.096  0.5748 -0.7905 -0.1152
17658TIP3    H174389   0.974   0.333   6.028  1.3962 -0.8608  0.3219
17658TIP3    H274390   1.000   0.218   6.122  0.1309 -1.0318  0.4789
17659TIP3   OH274391   5.304   6.707  10.905 -0.5002  0.5286 -0.3525
17659TIP3    H174392   5.385   6.741  10.867  0.5432 -0.2097  1.0868
17659TIP3    H274393   5.264   6.783  10.948  0.8886  0.3845  1.3001
17660TIP3   OH274394   2.191   1.548  15.185  0.1802  0.1486  0.0870
17660TIP3    H174395   2.129   1.579  15.251 -2.0401 -2.0094 -0.8240
17660TIP3    H274396   2.206   1.625  15.129 -1.4250  0.8564  0.5600
17661TIP3   OH274397   3.202   0.342   4.446  0.2989 -0.4189  0.4374
17661TIP3    H174398   3.266   0.291   4.396 -2.0820 -1.7228 -1.4709
17661TIP3    H274399   3.172   0.408   4.385  1.3286  1.6306  2.0335
17662TIP3   OH274400   1.421   4.889  14.356  0.3210  0.0701  0.3937
17662TIP3    H174401   1.384   4.836  14.427 -1.5741 -0.4724 -0.9439
17662TIP3    H274402   1.417   4.979  14.388 -0.7403 -0.1449  0.9014
17663TIP3   OH274403   5.390   1.853   1.227 -0.2331  0.0049  0.3168
17663TIP3    H174404   5.311   1.888   1.185 -0.7661 -0.4542  0.9198
17663TIP3    H274405   5.359   1.816   1.309  0.6707  0.1085  0.7128
17664TIP3   OH274406   6.230   6.648   2.071 -0.2783  0.6683  0.3657
17664TIP3    H174407   6.137   6.651   2.096  0.2834 -0.1522  2.7806
17664TIP3    H274408   6.237   6.571   2.015 -1.2357  1.4567 -0.9142
17665TIP3   OH274409   1.552   1.987  14.813 -0.3613  0.2735  0.2642
17665TIP3    H174410   1.460   1.995  14.788 -0.7410 -0.6777  1.3113
17665TIP3    H274411   1.554   2.008  14.906  0.8386  2.4285 -0.1534
17666TIP3   OH274412   1.088   3.600   2.445  0.1517 -0.0753 -0.5048
17666TIP3    H174413   1.058   3.631   2.531  0.6976  1.3729 -0.8167
17666TIP3    H274414   1.099   3.505   2.457 -0.0309  0.0580  0.9407
17667TIP3   OH274415   3.177   4.957   5.560 -0.0430  0.3577  0.4401
17667TIP3    H174416   3.147   5.048   5.555  1.8584  1.1066  1.4919
17667TIP3    H274417   3.146   4.926   5.645 -0.3325  0.1687  0.2644
17668TIP3   OH274418   6.172   1.125  16.059 -0.3125 -0.1733 -0.3389
17668TIP3    H174419   6.109   1.183  16.100 -0.7965 -1.0141  0.1329
17668TIP3    H274420   6.229   1.097  16.130 -0.2265 -0.4552 -0.5146
17669TIP3   OH274421   2.178   0.331  11.899 -0.1619  0.3583  0.2980
17669TIP3    H174422   2.213   0.242  11.893 -0.2517  0.2433  1.2934
17669TIP3    H274423   2.174   0.349  11.993  1.1868  1.9433  0.0957
17670TIP3   OH274424   2.641   1.711   1.109  0.0640 -0.0757  0.0774
17670TIP3    H174425   2.682   1.631   1.143 -2.0588 -1.1458  0.2883
17670TIP3    H274426   2.649   1.774   1.181  1.7000 -0.0753 -0.0647
17671TIP3   OH274427   6.073   4.017  13.845  0.6769  0.6750 -0.1572
17671TIP3    H174428   6.049   4.068  13.767 -0.9669 -0.4485 -0.4391
17671TIP3    H274429   6.000   4.031  13.905 -0.8614 -2.8031 -0.9882
17672TIP3   OH274430   2.500   5.603   1.244 -0.3680  0.2825 -0.3613
17672TIP3    H174431   2.469   5.523   1.287  1.1757  1.0788  2.5207
17672TIP3    H274432   2.470   5.595   1.153 -1.5762 -2.8180  0.1839
17673TIP3   OH274433   6.196   4.691  15.979 -0.4094  0.5040 -0.4397
17673TIP3    H174434   6.176   4.752  15.908 -0.0837  0.3052 -0.7029
17673TIP3    H274435   6.242   4.744  16.044  0.0495  0.4981 -0.7570
17674TIP3   OH274436   3.132   0.689  12.307  0.1748 -0.5655 -0.0545
17674TIP3    H174437   3.059   0.728  12.260 -0.7817 -2.0106  0.1656
17674TIP3    H274438   3.187   0.650  12.239  0.4280  0.0121 -0.1808
17675TIP3   OH274439   1.105   0.931   1.213  0.2350 -0.2021 -0.0785
17675TIP3    H174440   1.112   0.835   1.214  0.3655 -0.2064  2.0737
17675TIP3    H274441   1.068   0.951   1.127  0.1440 -2.1807 -0.5511
17676TIP3   OH274442   2.298   6.235   3.493 -0.3447  0.4668 -0.3157
17676TIP3    H174443   2.374   6.211   3.546 -0.4289  1.4202  0.2681
17676TIP3    H274444   2.228   6.177   3.524  0.0506 -0.1530 -0.5903
17677TIP3   OH274445   1.431   6.240   3.024  0.7431  0.1072 -0.6788
17677TIP3    H174446   1.352   6.213   2.977  0.8674 -0.0417 -0.8047
17677TIP3    H274447   1.454   6.325   2.986  1.2916 -0.3694 -1.4494
17678TIP3   OH274448   4.173   0.408  16.244  0.0107  0.5468 -0.1989
17678TIP3    H174449   4.112   0.343  16.210 -0.3814  0.1631  1.2001
17678TIP3    H274450   4.206   0.453  16.165  1.2786 -2.1680 -1.3563
17679TIP3   OH274451   4.191   4.163   5.819 -0.3116 -0.3708 -0.3219
17679TIP3    H174452   4.197   4.070   5.798  0.7525 -0.3565 -0.1457
17679TIP3    H274453   4.231   4.171   5.906 -2.0276  0.0016  0.4684
17680TIP3   OH274454   2.596   1.339   1.278 -0.1881 -0.6873  0.2892
17680TIP3    H174455   2.609   1.389   1.359 -0.8902  0.1512 -0.1026
17680TIP3    H274456   2.502   1.339   1.265  0.0138  2.6917 -2.6296
17681TIP3   OH274457   5.119   4.218   1.226  0.2583 -0.1357 -0.0052
17681TIP3    H174458   5.133   4.246   1.136  1.1867 -1.4647 -0.2969
17681TIP3    H274459   5.023   4.216   1.235  0.1299  1.8017 -0.3372
17682TIP3   OH274460   5.427   2.676   0.407 -0.5113  0.0633 -0.4246
17682TIP3    H174461   5.340   2.648   0.377 -1.1182  1.0533  0.3540
17682TIP3    H274462   5.410   2.753   0.461  0.6581 -0.9054  1.4095
17683TIP3   OH274463   6.053   4.206   1.414  0.5946 -0.2548  0.6320
17683TIP3    H174464   6.043   4.211   1.509 -0.5501  2.6361  0.4650
17683TIP3    H274465   6.124   4.268   1.394 -0.1173  0.2307 -0.4869
17684TIP3   OH274466   0.578   2.168   5.428  0.3750  0.1086 -0.8680
17684TIP3    H174467   0.603   2.143   5.339  1.1894  2.0793 -1.2423
17684TIP3    H274468   0.661   2.176   5.475  0.0222  0.2297 -0.2511
17685TIP3   OH274469   2.353   3.584  15.389 -0.2325 -0.2744 -0.4396
17685TIP3    H174470   2.330   3.551  15.303  0.5841 -0.5242 -0.5695
17685TIP3    H274471   2.419   3.652  15.372  1.8716 -2.0495  0.0895
17686TIP3   OH274472   0.735   6.088   1.245  0.3492  0.0875  0.4317
17686TIP3    H174473   0.685   6.113   1.323  0.8755  2.3975  0.1038
17686TIP3    H274474   0.814   6.046   1.280 -0.4516 -1.0005  1.0255
17687TIP3   OH274475   1.391   6.192  16.168 -0.2898  0.1023  0.4448
17687TIP3    H174476   1.339   6.197  16.087  0.2675  0.7202  0.1133
17687TIP3    H274477   1.432   6.279  16.176 -0.7516  0.2202  1.6787
17688TIP3   OH274478   6.282   3.426  14.073 -0.7729  0.5286 -0.5600
17688TIP3    H174479   6.223   3.353  14.093 -0.2964  0.0766 -0.7839
17688TIP3    H274480   6.307   3.460  14.159  1.5341 -1.6202 -0.2591
17689TIP3   OH274481   6.231   4.901  13.618  0.5843 -0.5278 -0.2918
17689TIP3    H174482   6.232   4.807  13.634 -0.8405 -1.0104 -2.6495
17689TIP3    H274483   6.197   4.939  13.699 -1.0006 -2.2718 -0.0791
17690TIP3   OH274484   4.890   2.619  15.707 -0.1435  0.2981  0.6373
17690TIP3    H174485   4.976   2.658  15.692 -0.3827  0.5952 -0.0234
17690TIP3    H274486   4.876   2.625  15.801  0.6635  0.0165  0.7801
17691TIP3   OH274487   5.997   4.668  12.297  0.4293  0.3028 -0.1090
17691TIP3    H174488   5.995   4.754  12.254  0.2113  0.1571 -0.3964
17691TIP3    H274489   5.907   4.655  12.328  0.7470  0.7299  1.0483
17692TIP3   OH274490   0.725   3.385  16.980  0.4390 -0.7680  0.3910
17692TIP3    H174491   0.711   3.384  16.885 -0.8092 -0.4202  0.5555
17692TIP3    H274492   0.728   3.292  17.005  0.3314 -0.8569  0.0751
17693TIP3   OH274493   0.645   4.766   0.811 -0.3521  0.3151 -0.1534
17693TIP3    H174494   0.695   4.839   0.776  0.8254 -0.4832 -0.1775
17693TIP3    H274495   0.670   4.762   0.904 -0.2790 -0.1571 -0.1917
17694TIP3   OH274496   1.569   5.440   5.131  0.4183  0.1498 -0.0430
17694TIP3    H174497   1.611   5.515   5.173  0.4877 -0.7671  1.6137
17694TIP3    H274498   1.507   5.479   5.069  2.4824  1.5389 -1.3678
17695TIP3   OH274499   1.657   0.285  12.271  0.8737 -0.4542  0.9064
17695TIP3    H174500   1.703   0.327  12.343 -1.6513  2.3745  1.1036
17695TIP3    H274501   1.639   0.357  12.209  1.0748 -2.3666 -1.5040
17696TIP3   OH274502   3.600   1.923   1.707 -0.7486 -0.8686  0.0456
17696TIP3    H174503   3.630   1.881   1.787  1.3399 -3.2557 -1.7938
17696TIP3    H274504   3.515   1.882   1.689 -1.2770 -0.2383  1.0387
17697TIP3   OH274505   6.784   1.979  14.065 -0.2291  0.2232 -0.6252
17697TIP3    H174506   6.727   2.017  13.998 -0.4994 -0.8051 -0.9977
17697TIP3    H274507   6.855   1.939  14.014  0.2675  0.5795 -0.2192
17698TIP3   OH274508   1.646   2.522  15.721 -0.0482  0.0650  0.1809
17698TIP3    H174509   1.556   2.529  15.690  0.0818 -3.6158 -1.6288
17698TIP3    H274510   1.639   2.481  15.808 -0.2055 -2.1813 -0.8164
17699TIP3   OH274511   5.187   2.781   5.103 -0.2247 -0.3664  0.0190
17699TIP3    H174512   5.145   2.733   5.032 -2.4071 -0.6486  1.4093
17699TIP3    H274513   5.198   2.870   5.069 -3.4022  0.1392  0.0018
17700TIP3   OH274514   1.520   0.868   0.911 -0.2244  0.6023  0.1285
17700TIP3    H174515   1.500   0.804   0.842  0.1274  0.9360 -0.2863
17700TIP3    H274516   1.436   0.911   0.927 -0.4237  0.1677  0.2786
17701TIP3   OH274517   6.397   1.559   1.317  0.2822 -0.2101 -0.5204
17701TIP3    H174518   6.370   1.647   1.341  0.1027 -0.4573  0.2250
17701TIP3    H274519   6.464   1.571   1.250  0.8240  0.5079  0.1435
17702TIP3   OH274520   2.482   4.228   2.550  0.6746  0.1309  0.0568
17702TIP3    H174521   2.504   4.230   2.457  0.4971 -3.5016 -0.2015
17702TIP3    H274522   2.540   4.162   2.587  1.1703  1.9010  2.7253
17703TIP3   OH274523   0.356   1.506   1.137  0.0353  0.6014  0.0392
17703TIP3    H174524   0.436   1.473   1.096 -0.7283 -0.7573 -0.4057
17703TIP3    H274525   0.386   1.546   1.219  1.0243 -1.3643  0.7047
17704TIP3   OH274526   0.688   4.548   1.342 -0.1828  0.7607  0.1287
17704TIP3    H174527   0.623   4.606   1.382 -0.0687 -0.2969  1.9497
17704TIP3    H274528   0.709   4.590   1.259 -3.1095  1.1953 -0.5152
17705TIP3   OH274529   2.752   5.597  12.791 -0.3928  0.6034  0.2701
17705TIP3    H174530   2.789   5.586  12.704 -0.5192 -0.4057  0.3349
17705TIP3    H274531   2.691   5.524  12.801 -1.5694  1.5986  0.5946
17706TIP3   OH274532   0.609   5.972   0.315  0.2199 -0.6789  0.2062
17706TIP3    H174533   0.685   5.926   0.279  1.2242  2.5201 -2.2443
17706TIP3    H274534   0.558   5.997   0.239 -1.7881 -0.2200  1.6283
17707TIP3   OH274535   1.546   4.864  10.775  0.2122 -0.0730 -0.1047
17707TIP3    H174536   1.640   4.850  10.761  0.2788  0.6952 -0.5038
17707TIP3    H274537   1.505   4.789  10.733  0.5843  0.4331 -1.4464
17708TIP3   OH274538   2.160   4.061   4.244  0.4865 -0.2277  0.2228
17708TIP3    H174539   2.234   4.095   4.293  0.2729  0.6963 -0.0686
17708TIP3    H274540   2.147   4.123   4.173  0.4091 -1.2137 -0.6588
17709TIP3   OH274541   0.468   0.609   2.330  0.2308  0.0412 -0.1803
17709TIP3    H174542   0.396   0.548   2.344  0.3901 -0.5340 -1.6586
17709TIP3    H274543   0.546   0.561   2.359  0.2702 -0.1857 -0.6559
17710TIP3   OH274544   2.783   1.901   3.535 -0.0806 -0.0183  0.0104
17710TIP3    H174545   2.839   1.849   3.593  0.8289 -1.0681 -1.7439
17710TIP3    H274546   2.819   1.886   3.447 -0.6621  2.4641 -0.7220
17711TIP3   OH274547   5.991   2.257   0.312 -0.3309 -0.1507  0.0291
17711TIP3    H174548   6.017   2.188   0.372  0.9659  1.2299  1.1059
17711TIP3    H274549   5.897   2.243   0.298 -0.0334 -2.2990 -0.0646
17712TIP3   OH274550   0.934   3.528  12.525 -0.3871  0.1462  0.1358
17712TIP3    H174551   1.024   3.561  12.519 -0.8163  1.1118 -1.4056
17712TIP3    H274552   0.904   3.556  12.612  0.9026 -0.5336  0.8458
17713TIP3   OH274553   3.927   3.408   2.076  0.0040 -0.2389  0.3824
17713TIP3    H174554   3.852   3.467   2.062 -1.1291 -1.6725  0.1605
17713TIP3    H274555   3.933   3.398   2.171 -0.4154 -0.5006  0.3854
17714TIP3   OH274556   4.593   0.331   4.293 -0.3488  0.1416  0.5823
17714TIP3    H174557   4.681   0.301   4.316 -0.0293  1.1810  0.7633
17714TIP3    H274558   4.545   0.332   4.375 -0.4559 -0.2030  0.5218
17715TIP3   OH274559   4.524   5.073   3.049  0.1111 -0.5114 -0.2480
17715TIP3    H174560   4.514   4.978   3.056 -3.8084 -0.2933 -0.8702
17715TIP3    H274561   4.572   5.086   2.967  0.3497 -1.9245 -0.3577
17716TIP3   OH274562   4.421   6.764   1.777  0.3107 -0.4136  0.2486
17716TIP3    H174563   4.386   6.730   1.695  0.2176 -2.0522  0.9315
17716TIP3    H274564   4.433   6.858   1.761  0.2690 -0.6866 -1.6109
17717TIP3   OH274565   5.048   1.812  14.298 -0.2781 -0.1261 -0.2730
17717TIP3    H174566   4.970   1.842  14.347 -0.7592  0.6982 -1.4996
17717TIP3    H274567   5.030   1.721  14.278 -0.1194 -0.4564  0.9640
17718TIP3   OH274568   3.137   5.060  14.452 -0.0903 -0.9123 -0.3114
17718TIP3    H174569   3.048   5.028  14.432  0.3737 -2.7053  0.3039
17718TIP3    H274570   3.136   5.151  14.425 -2.8652 -0.1604  1.8695
17719TIP3   OH274571   6.064   1.767   1.609 -0.4292  0.1166 -0.1966
17719TIP3    H174572   6.052   1.854   1.646  2.2011  0.2459  0.5634
17719TIP3    H274573   6.092   1.713   1.683 -1.7159 -1.3476 -0.7156
17720TIP3   OH274574   2.191   1.025   2.216  0.7718  0.6633  0.1792
17720TIP3    H174575   2.214   0.975   2.295  0.1034  0.2291  0.1058
17720TIP3    H274576   2.275   1.036   2.170  1.0377  0.1948  0.5362
17721TIP3   OH274577   2.467   6.415   3.066  0.0527  0.5657 -0.0582
17721TIP3    H174578   2.448   6.501   3.029 -1.8650 -0.0094 -0.4894
17721TIP3    H274579   2.408   6.407   3.141 -1.4052 -1.1863 -1.2909
17722TIP3   OH274580   3.686   1.961   0.755  0.2551  0.2552  0.3316
17722TIP3    H174581   3.685   1.871   0.787  0.7117  0.0764 -0.1520
17722TIP3    H274582   3.617   1.964   0.689  1.4140 -0.2232 -0.9348
17723TIP3   OH274583   2.336   3.649   5.676 -0.2959  0.0218 -0.0057
17723TIP3    H174584   2.257   3.700   5.660  0.7752  1.6454 -0.3250
17723TIP3    H274585   2.377   3.692   5.751  0.3775 -0.6990  0.0459
17724TIP3   OH274586   4.055   6.403  14.287 -0.1599  0.2271 -0.1170
17724TIP3    H174587   4.090   6.381  14.201  4.3486  2.1265  0.9560
17724TIP3    H274588   4.011   6.487  14.274 -1.0346 -0.3187 -0.8085
17725TIP3   OH274589   5.847   5.905   0.118 -0.3444 -0.1510 -0.0031
17725TIP3    H174590   5.869   5.872   0.030 -0.3272 -0.2315  0.0306
17725TIP3    H274591   5.860   5.999   0.112 -1.5004 -0.0030 -0.4214
17726TIP3   OH274592   4.033   4.382  11.385 -0.0793  0.4510  0.5929
17726TIP3    H174593   4.069   4.375  11.297  1.8007  0.7925  1.3011
17726TIP3    H274594   4.092   4.442  11.431 -1.1364  0.4418  2.0318
17727TIP3   OH274595   5.505   5.072   1.743  0.2487  0.0350  0.5287
17727TIP3    H174596   5.594   5.103   1.759 -0.2238  0.4392  2.6572
17727TIP3    H274597   5.451   5.151   1.751 -0.3033 -0.0911 -1.3206
17728TIP3   OH274598   5.723   3.313  16.301 -0.1247 -0.2435 -0.2757
17728TIP3    H174599   5.711   3.222  16.274  0.9335 -1.2524  2.2831
17728TIP3    H274600   5.806   3.339  16.261 -0.3063 -0.4890 -0.8199
17729TIP3   OH274601   3.143   0.989  10.530 -0.2676 -0.1763  0.5168
17729TIP3    H174602   3.068   1.031  10.573 -0.4496  0.4475 -0.3747
17729TIP3    H274603   3.208   1.059  10.522  0.6378 -0.8377  1.7435
17730TIP3   OH274604   3.953   5.419  13.827 -0.7841  0.4781  0.0316
17730TIP3    H174605   3.959   5.355  13.898 -2.4046 -0.9531 -1.0301
17730TIP3    H274606   4.044   5.432  13.798 -0.2540 -0.0010  1.4010
17731TIP3   OH274607   0.449   1.426  12.142 -0.9607 -0.4391  0.2734
17731TIP3    H174608   0.458   1.393  12.052  0.1580 -2.6175  1.1144
17731TIP3    H274609   0.442   1.521  12.132 -1.0127 -0.6314 -2.1165
17732TIP3   OH274610   1.276   5.122  15.718 -0.4467  0.4764 -0.0385
17732TIP3    H174611   1.305   5.177  15.645 -2.4228  0.4196 -0.9440
17732TIP3    H274612   1.206   5.172  15.760  0.0905  0.1294  1.3295
17733TIP3   OH274613   2.186   1.674   2.943  0.1588 -0.5791  0.8225
17733TIP3    H174614   2.177   1.595   2.890 -1.1788 -0.1919  0.4320
17733TIP3    H274615   2.158   1.647   3.031  1.5062 -0.9929  1.1410
17734TIP3   OH274616   3.359   1.041  12.103  0.0735  0.2593 -0.7538
17734TIP3    H174617   3.408   0.991  12.037  0.6365  0.2606 -0.3465
17734TIP3    H274618   3.425   1.065  12.168 -0.8575 -1.6597  1.0087
17735TIP3   OH274619   3.676   6.050   3.828 -1.0778 -0.2343 -0.4605
17735TIP3    H174620   3.764   6.085   3.813 -1.2576  1.1899  1.5085
17735TIP3    H274621   3.620   6.127   3.833 -2.1066 -1.0113  0.3301
17736TIP3   OH274622   3.577   2.422  15.721 -0.0829 -0.4249  0.0581
17736TIP3    H174623   3.623   2.435  15.804  0.5627  0.3076 -0.3880
17736TIP3    H274624   3.512   2.493  15.718  0.2184 -0.1555 -0.2628
17737TIP3   OH274625   3.956   4.662  12.471  0.1794  0.1760  0.1512
17737TIP3    H174626   3.937   4.607  12.546  0.4499  0.2545  0.2795
17737TIP3    H274627   4.040   4.630  12.438 -0.5364 -0.7024 -0.8983
17738TIP3   OH274628   3.962   6.571   2.607  0.3549 -0.3684  0.4928
17738TIP3    H174629   3.967   6.665   2.626 -2.1326 -0.1758  0.5816
17738TIP3    H274630   3.923   6.566   2.520 -0.8019 -1.2905  1.0321
17739TIP3   OH274631   0.393   5.991   0.805  0.0207  0.1912 -0.1104
17739TIP3    H174632   0.461   5.946   0.855 -0.4766  0.1872  0.5604
17739TIP3    H274633   0.438   6.017   0.724  0.7417 -0.0816  0.1882
17740TIP3   OH274634   4.036   4.130   4.013 -0.4930 -0.0384 -0.5398
17740TIP3    H174635   3.973   4.201   3.997  0.2197  0.6523 -0.3069
17740TIP3    H274636   3.983   4.051   4.009 -1.8223  0.6429  1.9010
17741TIP3   OH274637   1.610   5.425   1.852 -0.2364 -0.1073 -0.4395
17741TIP3    H174638   1.614   5.448   1.759 -1.5570 -2.3207 -1.1399
17741TIP3    H274639   1.537   5.477   1.886 -0.9243 -0.5907 -1.1195
17742TIP3   OH274640   2.755   4.204  14.180 -0.0525  0.9187 -0.2249
17742TIP3    H174641   2.674   4.223  14.132  0.5531 -1.2887 -2.3068
17742TIP3    H274642   2.820   4.190  14.111  2.0355  2.1087  1.3824
17743TIP3   OH274643   5.686   4.770  16.400 -0.6552  0.2663  0.4313
17743TIP3    H174644   5.632   4.694  16.379  0.1419 -0.2053  0.0487
17743TIP3    H274645   5.742   4.781  16.324  0.4503  0.1501  1.2042
17744TIP3   OH274646   3.533   0.326   0.740 -0.3163  0.2327 -0.6109
17744TIP3    H174647   3.564   0.280   0.662  0.2380  0.0513 -0.2861
17744TIP3    H274648   3.608   0.378   0.768 -0.3001 -0.2036  0.1794
17745TIP3   OH274649   1.888   1.393   4.234  0.0916 -0.3786  0.0838
17745TIP3    H174650   1.871   1.416   4.142  0.2120  0.0707  0.1712
17745TIP3    H274651   1.918   1.302   4.230  0.4486 -0.2511 -0.3645
17746TIP3   OH274652   2.983   4.288   3.676  0.3319  0.3560 -0.3465
17746TIP3    H174653   2.975   4.261   3.767 -0.5338 -0.9611 -0.7814
17746TIP3    H274654   3.072   4.264   3.651  0.7887  1.3097  0.3151
17747TIP3   OH274655   0.576   6.710  13.271 -0.5505  0.3169  0.9157
17747TIP3    H174656   0.591   6.615  13.265 -1.5286  0.1369  1.0890
17747TIP3    H274657   0.631   6.747  13.202  2.3508 -0.0566  2.8616
17748TIP3   OH274658   4.976   0.028  15.997 -0.2101  0.0400 -0.0052
17748TIP3    H174659   4.952  -0.064  16.012 -0.2619  0.1475  0.5868
17748TIP3    H274660   5.025   0.027  15.915 -1.1269 -0.3717 -0.5739
17749TIP3   OH274661   5.395   2.135  16.943  0.0518  0.4910  0.0413
17749TIP3    H174662   5.450   2.159  16.868  0.4838  0.2706  0.2814
17749TIP3    H274663   5.424   2.047  16.967 -1.7398 -0.4599 -1.0338
17750TIP3   OH274664   1.998   0.557  15.520  0.2248 -0.4039 -0.2130
17750TIP3    H174665   1.953   0.480  15.485 -0.8142  0.0694  0.0165
17750TIP3    H274666   1.945   0.631  15.488  1.5438  0.2657 -0.9530
17751TIP3   OH274667   4.503   2.578   2.552  0.1472 -0.1731 -0.1513
17751TIP3    H174668   4.546   2.640   2.611 -0.4402  1.4362 -1.3692
17751TIP3    H274669   4.508   2.618   2.466 -0.6036 -1.6519 -0.9237
17752TIP3   OH274670   3.156   0.177  13.398  0.1562  0.3385  0.0627
17752TIP3    H174671   3.242   0.148  13.428  0.2091  0.5037  0.0750
17752TIP3    H274672   3.120   0.225  13.473  0.9381  2.1236 -0.6440
17753TIP3   OH274673   6.739   6.057   2.915 -0.4222 -0.4750  0.3068
17753TIP3    H174674   6.673   6.020   2.857  0.4114  1.4440 -2.0702
17753TIP3    H274675   6.821   6.017   2.886  0.2925  1.9895 -1.3947
17754TIP3   OH274676   1.977   3.548   5.109 -0.2408  0.1580  0.3973
17754TIP3    H174677   2.038   3.618   5.133 -0.4295 -0.1189  1.7946
17754TIP3    H274678   1.928   3.583   5.034  1.3828  0.5152 -0.5383
17755TIP3   OH274679   3.096   4.517  17.098 -0.1684 -0.1113 -0.1251
17755TIP3    H174680   3.161   4.533  17.029 -1.6414  0.5486 -1.4439
17755TIP3    H274681   3.018   4.563  17.067 -1.0508 -0.2667  1.7557
17756TIP3   OH274682   1.781   3.894   1.700 -0.2380 -0.1683 -0.3431
17756TIP3    H174683   1.757   3.917   1.609  0.7239 -0.6340 -0.7246
17756TIP3    H274684   1.804   3.801   1.696  1.5804  0.2319 -0.0130
17757TIP3   OH274685   6.420   0.119   0.120  0.3330 -0.1704  0.5709
17757TIP3    H174686   6.397   0.186   0.055 -0.5873 -0.6925  0.3411
17757TIP3    H274687   6.378   0.149   0.201 -0.1564 -0.5054  0.4460
17758TIP3   OH274688   5.260   3.591   5.505 -0.2722 -0.0546  0.1158
17758TIP3    H174689   5.172   3.628   5.511  0.4807  1.6793  1.0470
17758TIP3    H274690   5.293   3.593   5.594  0.4781 -1.3555 -0.1148
17759TIP3   OH274691   5.063   1.814  11.807  0.4729  0.3718 -0.0665
17759TIP3    H174692   5.056   1.818  11.902 -1.5986 -0.9323 -0.0858
17759TIP3    H274693   5.004   1.884  11.776  1.6732  1.2588 -0.4280
17760TIP3   OH274694   1.739   3.822   4.095 -0.2153  0.0632  0.2248
17760TIP3    H174695   1.648   3.831   4.067  0.1319  0.2032 -0.9111
17760TIP3    H274696   1.789   3.819   4.013  0.8346  0.3289  0.8407
17761TIP3   OH274697   0.025   1.917  11.864 -0.2867  0.0785  0.0758
17761TIP3    H174698  -0.055   1.874  11.834  0.3603  0.2594 -2.0164
17761TIP3    H274699  -0.006   1.985  11.924 -1.4734 -1.6981  1.5961
17762TIP3   OH274700   1.940   2.568   4.882 -0.3595 -0.5483 -0.3156
17762TIP3    H174701   1.853   2.530   4.865 -0.3598 -1.2167  1.0317
17762TIP3    H274702   1.960   2.618   4.803 -2.8801  1.3931  0.1413
17763TIP3   OH274703   0.823   6.235  13.278 -0.2743  0.0066  0.6710
17763TIP3    H174704   0.893   6.230  13.213 -0.7273 -1.0401  0.2356
17763TIP3    H274705   0.865   6.212  13.360  0.0309  0.0245  0.5215
17764TIP3   OH274706   1.492   2.331   3.778 -0.6020 -0.0645  0.1222
17764TIP3    H174707   1.471   2.393   3.848 -0.6677  0.3318 -0.2474
17764TIP3    H274708   1.431   2.352   3.708  0.9101  1.0217 -0.9278
17765TIP3   OH274709   4.888   5.787  12.863  0.2207  0.0835  0.6842
17765TIP3    H174710   4.947   5.720  12.899  0.8165  0.5354  0.5615
17765TIP3    H274711   4.940   5.867  12.863  0.3193  0.0781 -1.3258
17766TIP3   OH274712   0.583   3.347  16.075  0.0416 -0.0373 -0.3225
17766TIP3    H174713   0.674   3.353  16.102 -0.0493 -0.1572  0.0139
17766TIP3    H274714   0.584   3.368  15.981  0.3340  0.5413 -0.1936
17767TIP3   OH274715   4.054   0.001   2.891  0.0959  0.3774  0.5375
17767TIP3    H174716   4.081  -0.003   2.799  0.3746 -1.1631  0.6643
17767TIP3    H274717   4.011   0.087   2.899  0.9470  0.9685 -0.7719
17768TIP3   OH274718   0.228   6.334   0.192 -0.0758 -0.3502  0.0537
17768TIP3    H174719   0.172   6.300   0.262  0.2117 -2.0579 -0.5012
17768TIP3    H274720   0.240   6.426   0.214 -1.2077 -0.4923  1.4361
17769TIP3   OH274721   5.558   4.935   5.635 -0.2810  0.3293  0.1078
17769TIP3    H174722   5.640   4.978   5.660 -0.3069  1.0527 -0.9647
17769TIP3    H274723   5.584   4.847   5.609  0.0508  0.3049  0.5217
17770TIP3   OH274724   0.303   3.638   4.712  0.2510 -0.4600  0.6821
17770TIP3    H174725   0.225   3.584   4.702  0.3793 -0.9403  2.1624
17770TIP3    H274726   0.374   3.584   4.678 -0.2145  0.6921 -2.5402
17771TIP3   OH274727   2.379   6.555   1.388 -0.0067 -0.3754 -0.0307
17771TIP3    H174728   2.344   6.552   1.300 -0.7912  1.0188  0.2078
17771TIP3    H274729   2.451   6.618   1.384  0.4165 -0.8320  0.1825
17772TIP3   OH274730   1.405   1.833   0.891  0.6523  0.0823  0.2078
17772TIP3    H174731   1.460   1.809   0.817  0.6761 -0.2903  0.3447
17772TIP3    H274732   1.467   1.858   0.960  0.6521 -0.3028  0.3502
17773TIP3   OH274733   1.967   2.049  15.198  0.2616 -0.1997  0.7997
17773TIP3    H174734   1.925   2.011  15.276 -1.0235 -2.8119 -1.0195
17773TIP3    H274735   1.896   2.097  15.154  0.6959  0.3091  0.6474
17774TIP3   OH274736   4.759   2.109   0.721  0.2112 -0.1827  0.2506
17774TIP3    H174737   4.765   2.199   0.754  0.9339 -0.1044 -0.0710
17774TIP3    H274738   4.692   2.068   0.776  0.6370  0.2493  1.1092
17775TIP3   OH274739   6.506   2.907   1.571  0.1366 -0.4982 -0.3199
17775TIP3    H174740   6.496   2.846   1.498 -1.1561 -1.1967  0.4088
17775TIP3    H274741   6.516   2.993   1.529  0.1834 -0.9838 -1.3260
17776TIP3   OH274742   5.435   1.630   0.421  0.1745 -0.1158  0.3191
17776TIP3    H174743   5.362   1.676   0.380 -0.1538  0.1295  1.1599
17776TIP3    H274744   5.395   1.554   0.464  0.5156 -0.3821  0.1704
17777TIP3   OH274745   4.769   4.796  15.382 -0.2807  0.1863 -0.3551
17777TIP3    H174746   4.759   4.802  15.477 -0.3238 -2.6506 -0.0985
17777TIP3    H274747   4.863   4.787  15.369 -0.4260 -3.1272 -0.1366
17778TIP3   OH274748   6.005   4.906  12.163  0.8723  0.2719  0.7725
17778TIP3    H174749   6.068   4.934  12.097  0.3026  1.1089  0.5735
17778TIP3    H274750   5.932   4.968  12.155 -0.2852 -1.0835  0.5433
17779TIP3   OH274751   6.673   1.559  15.559 -0.1880  0.2611  0.7321
17779TIP3    H174752   6.736   1.631  15.555  0.5809 -0.1150  3.5294
17779TIP3    H274753   6.727   1.481  15.571 -1.1262 -0.3138  1.3299
17780TIP3   OH274754   6.533   1.951  14.221  0.5420  0.2533 -0.3393
17780TIP3    H174755   6.453   1.947  14.170 -0.0095  0.6088  0.4814
17780TIP3    H274756   6.602   1.969  14.156 -0.1294  0.6514 -0.9521
17781TIP3   OH274757   4.549   6.398  15.156  0.8450  0.1844 -0.6455
17781TIP3    H174758   4.528   6.383  15.063 -0.3927  0.4304 -0.4242
17781TIP3    H274759   4.583   6.487  15.158  2.3316 -0.3342 -1.0586
17782TIP3   OH274760   3.087   0.473  16.022 -0.6744  0.3507  0.1373
17782TIP3    H174761   3.071   0.565  15.999 -2.3150 -0.3630 -1.8340
17782TIP3    H274762   3.157   0.477  16.087 -1.7325  3.0848  1.2479
17783TIP3   OH274763   3.139   4.922   2.860  0.3162  0.2354 -0.3057
17783TIP3    H174764   3.057   4.967   2.842  0.1748 -0.0148 -0.2845
17783TIP3    H274765   3.199   4.992   2.888  0.4702  0.6089 -1.4944
17784TIP3   OH274766   2.214   6.704  13.684  0.7307 -0.2945  0.1651
17784TIP3    H174767   2.178   6.727  13.599  0.2285  0.4263  0.5661
17784TIP3    H274768   2.298   6.750  13.688 -0.0782  1.2082  0.7933
17785TIP3   OH274769   1.074   1.546   0.400 -0.4133  0.1135  0.0616
17785TIP3    H174770   1.118   1.520   0.319 -0.5557 -0.3189  0.1218
17785TIP3    H274771   1.141   1.539   0.467 -0.2243  0.7210 -0.0554
17786TIP3   OH274772   0.726   2.659  13.178 -0.0307 -0.5473  0.1041
17786TIP3    H174773   0.800   2.605  13.153  1.3911  1.8989 -1.3877
17786TIP3    H274774   0.650   2.618  13.137  0.3829 -3.1564  1.7471
17787TIP3   OH274775   4.101   3.123  17.039 -0.1779 -0.0493 -0.2168
17787TIP3    H174776   4.183   3.137  17.087 -0.3415 -0.0392  0.0611
17787TIP3    H274777   4.124   3.140  16.948  0.8104 -2.7178 -0.5372
17788TIP3   OH274778   0.656   3.843   0.580 -0.1112  0.1161 -0.0805
17788TIP3    H174779   0.714   3.833   0.505  2.0979  0.2672  1.5052
17788TIP3    H274780   0.706   3.896   0.642 -1.4518 -0.8033  1.8843
17789TIP3   OH274781   5.838   3.437  10.672 -0.1224 -0.0408 -0.1354
17789TIP3    H174782   5.822   3.514  10.726  0.8438  0.3469 -0.3756
17789TIP3    H274783   5.934   3.429  10.669 -0.1565 -0.2751 -1.4574
17790TIP3   OH274784   1.991   4.162   0.888  0.4887 -0.6127 -0.0966
17790TIP3    H174785   2.069   4.218   0.899  0.3904 -0.3458 -0.7023
17790TIP3    H274786   2.024   4.086   0.840  1.0034 -1.9658  2.2530
17791TIP3   OH274787   3.786   0.661  12.201 -0.1062 -0.1613  0.0747
17791TIP3    H174788   3.863   0.607  12.216  0.2882  0.5475  0.6939
17791TIP3    H274789   3.771   0.706  12.285 -0.4313  0.6631 -0.4102
17792TIP3   OH274790   3.644   3.319   1.395 -0.3651  0.2113 -0.1770
17792TIP3    H174791   3.587   3.243   1.409 -0.4999 -0.1583 -2.3932
17792TIP3    H274792   3.649   3.361   1.481 -0.5872 -2.0772  1.0541
17793TIP3   OH274793   2.333   2.999   3.104 -0.7859  0.2957  0.4785
17793TIP3    H174794   2.267   3.048   3.154 -0.9281 -1.8146  2.5224
17793TIP3    H274795   2.416   3.042   3.126 -0.8135 -0.6886  2.8504
17794TIP3   OH274796   0.015   3.739   4.100  0.7243  0.3889  0.2142
17794TIP3    H174797  -0.056   3.749   4.164  1.4604  0.5804  1.0248
17794TIP3    H274798  -0.008   3.659   4.052  1.2845 -1.0912  2.2596
17795TIP3   OH274799   6.601   3.649  11.502  0.1992 -0.4367  0.3731
17795TIP3    H174800   6.666   3.610  11.561  1.3927  0.4740 -0.3094
17795TIP3    H274801   6.517   3.635  11.547  1.0823  0.4478  2.4424
17796TIP3   OH274802   1.132   1.775   1.583 -0.0991 -0.5856  0.0923
17796TIP3    H174803   1.215   1.821   1.569  0.0176 -0.9843 -0.6046
17796TIP3    H274804   1.119   1.724   1.502  0.1655 -2.3702  1.1220
17797TIP3   OH274805   2.449   3.657  13.899  0.1210  0.2138  0.3281
17797TIP3    H174806   2.519   3.721  13.891 -0.4251  1.0226  1.8003
17797TIP3    H274807   2.412   3.671  13.986  0.1452 -2.2806  0.8258
17798TIP3   OH274808   1.556   2.868  11.501  0.2371  0.1392 -0.3001
17798TIP3    H174809   1.583   2.787  11.458 -1.4684 -0.0455 -1.1372
17798TIP3    H274810   1.607   2.936  11.457  0.2316 -0.2930 -0.9987
17799TIP3   OH274811   3.411   0.088  15.762  0.4837  0.3818  0.8137
17799TIP3    H174812   3.319   0.076  15.739  0.6292 -1.5758  1.0745
17799TIP3    H274813   3.456   0.013  15.722  2.0631  1.5590  0.2593
17800TIP3   OH274814   5.173   1.819  14.033 -0.3169  0.9396  0.4491
17800TIP3    H174815   5.253   1.769  14.051 -1.7071 -1.2961  0.6888
17800TIP3    H274816   5.109   1.789  14.097 -1.9461  1.2341 -0.9577
17801TIP3   OH274817   4.113   3.829  14.027 -0.1106 -0.0017  0.2227
17801TIP3    H174818   4.120   3.750  14.081 -1.2391  1.0103  1.9530
17801TIP3    H274819   4.184   3.822  13.964  0.0434 -2.2070  0.5839
17802TIP3   OH274820   1.298   0.475   5.187 -0.2773  0.4187  0.1413
17802TIP3    H174821   1.320   0.465   5.094  0.9467  2.5315  0.1490
17802TIP3    H274822   1.302   0.386   5.222  0.0740 -0.3089 -1.6416
17803TIP3   OH274823   1.173   2.072   0.490  0.2765  0.0313 -0.1478
17803TIP3    H174824   1.218   2.075   0.574 -1.0130 -0.3282  0.5615
17803TIP3    H274825   1.082   2.054   0.511  0.2084 -1.7568 -1.7090
17804TIP3   OH274826   6.002   2.733  16.641 -0.0517  0.5252 -0.4495
17804TIP3    H174827   6.080   2.756  16.692  0.1605  1.0335 -0.9849
17804TIP3    H274828   5.929   2.748  16.701  0.3506 -2.1621  0.8420
17805TIP3   OH274829   0.133   6.456  10.667  0.0605 -0.0461 -0.2081
17805TIP3    H174830   0.220   6.465  10.629  0.8307 -1.4099  1.1648
17805TIP3    H274831   0.073   6.464  10.592  1.3810  0.1992 -1.2645
17806TIP3   OH274832   5.973   4.043  13.345 -0.1214  0.2987 -0.2135
17806TIP3    H174833   6.065   4.069  13.333 -0.0966 -0.1083 -0.9557
17806TIP3    H274834   5.929   4.074  13.266 -0.0214 -2.1605 -1.3422
17807TIP3   OH274835   2.142   6.023  11.924 -0.2046 -0.4488  0.4829
17807TIP3    H174836   2.105   5.941  11.957  1.5599 -1.3487  0.3145
17807TIP3    H274837   2.070   6.062  11.874 -1.2883 -1.5604  1.0932
17808TIP3   OH274838   0.314   3.591   3.908  0.3779  0.0961 -0.3327
17808TIP3    H174839   0.234   3.542   3.925  0.3083  0.5486  0.7031
17808TIP3    H274840   0.299   3.632   3.822 -0.2212 -0.3618 -0.4507
17809TIP3   OH274841   0.492   6.185   5.314 -0.1293 -0.6952  0.2341
17809TIP3    H174842   0.561   6.222   5.259  0.5205 -1.6739  0.3581
17809TIP3    H274843   0.427   6.255   5.321  0.1691 -0.2554 -1.0706
17810TIP3   OH274844   5.079   4.916   2.641 -0.2908 -0.3425 -0.0790
17810TIP3    H174845   5.050   4.825   2.646  1.8094 -1.1399 -1.2461
17810TIP3    H274846   5.135   4.928   2.718 -0.2549 -0.1542 -0.1329
17811TIP3   OH274847   1.424   5.269   2.155 -0.5254  0.0031 -0.1292
17811TIP3    H174848   1.446   5.208   2.224 -0.5694 -0.2676 -0.3539
17811TIP3    H274849   1.332   5.292   2.170 -0.2955  0.6141  0.4112
17812TIP3   OH274850   5.553   3.581  15.378  0.4112  0.5448 -0.3132
17812TIP3    H174851   5.590   3.628  15.453  0.1600  0.5082 -0.1614
17812TIP3    H274852   5.480   3.635  15.350  0.1140  0.2441 -0.1318
17813TIP3   OH274853   2.372   4.908  14.495  0.3145  0.3576  0.1033
17813TIP3    H174854   2.278   4.912  14.515  0.3293  0.8462  0.1009
17813TIP3    H274855   2.404   4.833  14.544 -0.4568 -1.0910 -1.4949
17814TIP3   OH274856   2.907   2.584  14.497 -0.2580 -0.0129 -0.5520
17814TIP3    H174857   2.858   2.666  14.502  1.7084  1.1624  1.0921
17814TIP3    H274858   2.925   2.561  14.588 -0.6553 -2.2610 -0.9796
17815TIP3   OH274859   6.192   1.905  11.841  0.0013  0.5127 -0.4090
17815TIP3    H174860   6.122   1.900  11.775 -0.3809 -0.6624  0.0602
17815TIP3    H274861   6.237   1.988  11.822 -3.4126  2.9551  1.2165
17816TIP3   OH274862   6.051   5.551   4.945  0.1802 -0.3320 -0.3360
17816TIP3    H174863   5.985   5.485   4.925  0.1981 -0.1322 -1.0740
17816TIP3    H274864   6.025   5.586   5.030 -0.4206 -0.5627 -0.4211
17817TIP3   OH274865   3.791   1.336  17.128  0.3271  0.0476 -0.1855
17817TIP3    H174866   3.797   1.430  17.141  0.3573 -0.0220  0.3340
17817TIP3    H274867   3.880   1.308  17.108  0.6070 -0.0688  1.1102
17818TIP3   OH274868   3.058   4.682  16.152  0.4140  0.5239 -1.0254
17818TIP3    H174869   3.090   4.726  16.073  3.1723  2.1527  0.8251
17818TIP3    H274870   3.061   4.749  16.220 -1.7215 -0.8530  0.5415
17819TIP3   OH274871   0.068   0.924   0.603  0.4765  0.0788 -0.0029
17819TIP3    H174872   0.080   0.849   0.544 -1.2983 -0.0946 -0.1838
17819TIP3    H274873  -0.003   0.975   0.564  2.5913  2.7266 -0.7005
17820TIP3   OH274874   3.874   5.008   4.916 -0.3195 -0.6195 -0.2355
17820TIP3    H174875   3.784   5.012   4.882 -0.8417  1.7208  1.2092
17820TIP3    H274876   3.874   5.066   4.991  2.2270 -1.2504  0.3473
17821TIP3   OH274877   5.395   0.678   1.072 -0.1417  0.3161 -0.5987
17821TIP3    H174878   5.326   0.614   1.055  1.9211 -2.6905  1.4387
17821TIP3    H274879   5.351   0.748   1.120 -2.1130 -0.5290 -1.0534
17822TIP3   OH274880   3.020   1.925  15.500 -0.6164  0.0406 -0.3830
17822TIP3    H174881   2.939   1.976  15.498  0.4992  1.9305 -3.0026
17822TIP3    H274882   3.001   1.848  15.446 -1.1880 -0.4779  0.5329
17823TIP3   OH274883   6.221   3.549   1.793 -0.0836  0.2922 -0.3881
17823TIP3    H174884   6.158   3.573   1.860 -0.8911  0.2266 -1.1126
17823TIP3    H274885   6.185   3.584   1.711 -0.1557 -1.3928 -1.1108
17824TIP3   OH274886   3.142   2.144  12.717  0.3511 -0.1368 -0.5725
17824TIP3    H174887   3.177   2.215  12.772 -0.7791 -0.3565  0.4773
17824TIP3    H274888   3.083   2.188  12.656 -1.1351 -0.2207  0.7310
17825TIP3   OH274889   5.335   3.508   0.600 -0.6014 -1.0644  0.6140
17825TIP3    H174890   5.413   3.483   0.550  0.3117  0.4582  1.1761
17825TIP3    H274891   5.367   3.517   0.690 -0.8629  1.5968  0.5435
17826TIP3   OH274892   6.750   4.072   5.464 -0.2908 -0.1527  0.1457
17826TIP3    H174893   6.814   4.002   5.448 -0.5536 -0.2567 -0.4503
17826TIP3    H274894   6.783   4.146   5.412 -0.9888 -0.4035 -0.6791
17827TIP3   OH274895   4.791   6.206  15.311 -0.3789  0.3258 -0.4007
17827TIP3    H174896   4.723   6.181  15.374  0.4378  3.2440  1.8899
17827TIP3    H274897   4.769   6.296  15.287  0.0315 -0.3079 -3.5029
17828TIP3   OH274898   0.670   2.568   4.996 -0.1105  0.6110 -0.6372
17828TIP3    H174899   0.732   2.597   5.063 -1.5489  1.4413  0.4149
17828TIP3    H274900   0.597   2.631   5.003 -2.1976 -1.7004 -0.0735
17829TIP3   OH274901   6.730   3.456   2.580 -0.7074 -0.2527  0.0737
17829TIP3    H174902   6.777   3.536   2.555  2.0410 -2.1732 -1.3375
17829TIP3    H274903   6.662   3.446   2.512 -2.0649  1.5291  1.0616
17830TIP3   OH274904   0.546   2.953  11.743 -0.5929  0.1696 -0.0915
17830TIP3    H174905   0.569   2.867  11.707 -0.5375  0.1627 -0.0389
17830TIP3    H274906   0.517   2.935  11.832  0.6101  0.3441  0.3524
17831TIP3   OH274907   2.486   4.590   1.581 -0.3595  0.2162  0.1337
17831TIP3    H174908   2.498   4.525   1.649 -0.2155  0.0391 -0.0596
17831TIP3    H274909   2.483   4.540   1.499 -0.7894  0.3984  0.0295
17832TIP3   OH274910   5.041   3.847  13.841 -0.9802  0.3892 -0.7004
17832TIP3    H174911   4.983   3.868  13.914 -1.1147 -2.0049 -0.0053
17832TIP3    H274912   5.115   3.801  13.883  0.6734  1.9920 -1.7295
17833TIP3   OH274913   5.399   2.083  12.379 -0.2669  0.2295 -0.1601
17833TIP3    H174914   5.461   2.151  12.403  0.1894  0.5947 -2.2110
17833TIP3    H274915   5.327   2.129  12.336 -0.1753 -0.4996 -1.1448
17834TIP3   OH274916   5.533   5.173  14.954  0.8330  0.2691  0.1268
17834TIP3    H174917   5.459   5.154  15.012 -0.1686 -1.8461 -1.7109
17834TIP3    H274918   5.530   5.105  14.887  1.4024  3.0438 -2.9716
17835TIP3   OH274919   3.709   2.432  11.873  0.0626  0.2212 -0.5010
17835TIP3    H174920   3.764   2.503  11.843  1.9663 -1.0417 -0.1953
17835TIP3    H274921   3.703   2.372  11.799 -1.8168  0.7829 -0.8798
17836TIP3   OH274922   3.572   5.622   0.701  0.4642  0.4058 -0.2975
17836TIP3    H174923   3.545   5.712   0.716  0.1688  0.5032 -1.3405
17836TIP3    H274924   3.525   5.596   0.622  1.3589 -0.3175 -0.6066
17837TIP3   OH274925   5.136   1.657  10.746 -0.5390  0.5691  0.2923
17837TIP3    H174926   5.075   1.666  10.819  1.2309  0.1759  1.8848
17837TIP3    H274927   5.223   1.665  10.785  0.5019 -0.4591 -1.6343
17838TIP3   OH274928   5.140   1.925   2.272 -0.0799 -0.0942 -0.1777
17838TIP3    H174929   5.172   1.875   2.348 -0.9295 -0.1617  0.1537
17838TIP3    H274930   5.117   1.858   2.208  0.0708 -0.0628 -0.2649
17839TIP3   OH274931   2.403   0.788  12.104  0.0914  0.3184  0.8343
17839TIP3    H174932   2.424   0.710  12.155 -0.1087 -0.0559  0.3594
17839TIP3    H274933   2.461   0.856  12.138  2.0705 -0.6546 -0.3935
17840TIP3   OH274934   0.353   5.858  12.501  0.6440  0.7276  0.5532
17840TIP3    H174935   0.399   5.929  12.457  3.2363 -1.3934 -0.4163
17840TIP3    H274936   0.421   5.813  12.552 -0.3336 -2.3346 -0.5882
17841TIP3   OH274937   0.626   0.318  13.682  0.2180 -0.4130 -0.0878
17841TIP3    H174938   0.638   0.260  13.757 -0.4940 -0.9858 -0.4067
17841TIP3    H274939   0.617   0.259  13.607  0.7510  0.1457 -0.6046
17842TIP3   OH274940   2.935   0.381   3.524  0.2468  0.4488  0.2456
17842TIP3    H174941   3.003   0.424   3.576 -0.1233 -0.2521  1.3321
17842TIP3    H274942   2.876   0.343   3.588 -0.5458  0.0515 -0.6918
17843TIP3   OH274943   5.049   6.413  12.617  0.5542 -0.6251  0.4190
17843TIP3    H174944   5.065   6.331  12.571  2.0141 -0.1335  0.0124
17843TIP3    H274945   4.964   6.400  12.659 -0.1010 -1.6518 -1.1283
17844TIP3   OH274946   0.206   4.397  12.011 -0.5894 -0.6984  0.0381
17844TIP3    H174947   0.200   4.428  12.101 -0.9778 -3.9660  1.2296
17844TIP3    H274948   0.296   4.420  11.984  0.5335 -2.1572  2.2882
17845TIP3   OH274949   3.312   5.352   2.613 -0.1273  0.6726 -0.1004
17845TIP3    H174950   3.359   5.362   2.531  1.1402 -1.6793  0.2512
17845TIP3    H274951   3.238   5.295   2.591  0.0464  0.2788  0.3177
17846TIP3   OH274952   0.617   6.762   0.935 -0.2528  0.5913 -0.0140
17846TIP3    H174953   0.702   6.720   0.948  0.1588  0.8653 -1.5894
17846TIP3    H274954   0.608   6.767   0.840 -0.8774  2.8571  0.1145
17847TIP3   OH274955   5.015   6.490  13.797  0.8541  0.3173 -0.3131
17847TIP3    H174956   5.024   6.448  13.882 -0.8534  1.9827  0.7674
17847TIP3    H274957   5.093   6.544  13.789  0.8416  0.4572  0.4079
17848TIP3   OH274958   3.826   1.208   3.453  0.2685 -0.0801  0.1099
17848TIP3    H174959   3.784   1.270   3.512 -0.7070 -0.6080 -0.0186
17848TIP3    H274960   3.850   1.261   3.377 -0.4311  0.1757  0.0607
17849TIP3   OH274961   6.144   4.674  14.718 -0.0361  0.3674  1.1679
17849TIP3    H174962   6.208   4.736  14.684  0.8881 -0.7695  0.7601
17849TIP3    H274963   6.175   4.588  14.687 -2.7719 -0.0944 -0.6764
17850TIP3   OH274964   3.928   4.103   4.727  0.7292  0.6617  0.6461
17850TIP3    H174965   3.920   4.008   4.735 -1.6519  0.7842  0.5524
17850TIP3    H274966   3.935   4.135   4.817 -2.0693  0.5595  0.9811
17851TIP3   OH274967   5.174   6.148   3.553  0.4783 -0.3381  0.2516
17851TIP3    H174968   5.170   6.143   3.457  2.3265 -0.4701  0.1423
17851TIP3    H274969   5.106   6.212   3.577  2.4597  2.6753 -1.4795
17852TIP3   OH274970   1.917   0.838   3.548 -0.5981  0.2361  0.0157
17852TIP3    H174971   1.914   0.886   3.631  1.3440  0.3654  0.0496
17852TIP3    H274972   1.828   0.843   3.514 -1.3714  0.4090  1.9606
17853TIP3   OH274973   2.944   0.886  14.226 -0.6751 -0.0572 -0.8165
17853TIP3    H174974   2.908   0.847  14.146 -0.0065  0.2539 -1.2864
17853TIP3    H274975   2.868   0.923  14.271 -1.3337 -1.8699 -0.3500
17854TIP3   OH274976   0.840   5.844  16.701 -0.5726  0.0028  0.2349
17854TIP3    H174977   0.789   5.821  16.779 -0.1794 -1.7839  0.0176
17854TIP3    H274978   0.815   5.778  16.636 -1.2515  1.7251 -1.3570
17855TIP3   OH274979   5.381   5.817   4.855 -0.3674 -0.2280 -0.0231
17855TIP3    H174980   5.304   5.862   4.820  0.2007 -0.6483 -1.8962
17855TIP3    H274981   5.345   5.735   4.890 -0.8568 -0.0986 -0.2064
17856TIP3   OH274982   4.048   1.927  12.164 -0.5926  0.4123 -0.0781
17856TIP3    H174983   4.056   1.835  12.138  2.2517  0.7851 -0.9019
17856TIP3    H274984   4.121   1.971  12.120  0.1027  2.4698  2.8028
17857TIP3   OH274985   6.581   3.403  14.122 -0.4630 -0.1348 -0.1282
17857TIP3    H174986   6.505   3.400  14.064  0.7258  0.0665 -1.7725
17857TIP3    H274987   6.613   3.313  14.124 -1.6945 -0.5822  1.9593
17858TIP3   OH274988   3.197   1.546  16.491  0.5798  0.5267  0.1328
17858TIP3    H174989   3.104   1.541  16.470  0.9652 -0.9295 -1.3344
17858TIP3    H274990   3.200   1.535  16.586 -0.6756 -0.5657  0.0774
17859TIP3   OH274991   1.412   4.490  13.599 -0.1915  0.2448  0.1284
17859TIP3    H174992   1.453   4.528  13.677  1.4109 -1.6519  0.3125
17859TIP3    H274993   1.446   4.542  13.526  1.8416 -0.6147  0.3742
17860TIP3   OH274994   2.765   4.360   2.684  0.3110 -0.3830  0.8582
17860TIP3    H174995   2.729   4.312   2.758  0.7633  0.5825  1.7304
17860TIP3    H274996   2.813   4.433   2.723 -2.5058  2.3799 -0.3813
17861TIP3   OH274997   3.652   1.811   2.576 -0.0424 -0.6495 -0.0107
17861TIP3    H174998   3.619   1.817   2.666 -0.1865  1.2727 -0.1515
17861TIP3    H274999   3.596   1.870   2.526  1.2191 -0.2615 -1.0050
17862TIP3   OH275000   2.350   3.356  12.283  0.7771 -0.2053  0.1936
17862TIP3    H175001   2.386   3.272  12.254  1.3383  0.5072 -1.2776
17862TIP3    H275002   2.270   3.367  12.232 -0.6070 -0.9184  2.1190
17863TIP3   OH275003   5.966   5.736   2.569 -0.3590 -0.1801 -0.3993
17863TIP3    H175004   5.919   5.807   2.613 -0.3561  0.5727 -1.5949
17863TIP3    H275005   5.922   5.656   2.600  0.0345  0.2604  1.4372
17864TIP3   OH275006   5.655   0.122  14.641  0.0217 -0.3530 -0.4692
17864TIP3    H175007   5.738   0.079  14.661 -0.4001 -1.5482 -1.2147
17864TIP3    H275008   5.676   0.216  14.639  0.6437 -0.3164  2.7798
17865TIP3   OH275009   4.653   2.688  15.300 -0.2106 -0.7565  0.2351
17865TIP3    H175010   4.719   2.632  15.341  0.3341 -0.2845  0.0229
17865TIP3    H275011   4.698   2.772  15.287 -0.8716 -0.4147  0.1325
17866TIP3   OH275012   5.981   3.375  14.533  0.0809  0.0512  0.3897
17866TIP3    H175013   6.056   3.422  14.568  1.2138 -2.1166  1.0215
17866TIP3    H275014   5.905   3.424  14.565  1.1359  2.6321 -0.7217
17867TIP3   OH275015   0.355   3.247  14.257 -0.2617  0.6476 -0.4363
17867TIP3    H175016   0.450   3.244  14.264 -0.2618  2.6486  1.2521
17867TIP3    H275017   0.338   3.281  14.169  0.5925  0.9922 -0.4753
17868TIP3   OH275018   5.315   3.026  11.991 -0.3420  0.4716  0.0095
17868TIP3    H175019   5.317   3.035  12.086  1.6392  0.2515  0.0309
17868TIP3    H275020   5.375   3.094  11.960 -1.0738  0.6303 -1.0999
17869TIP3   OH275021   5.012   6.223   0.499 -0.4287 -0.4116  0.1080
17869TIP3    H175022   4.950   6.181   0.439 -0.7438  0.7077 -0.3709
17869TIP3    H275023   5.037   6.153   0.560 -0.8086 -1.3357 -0.7585
17870TIP3   OH275024   2.569   6.010   0.241 -0.0444  0.5799  0.3173
17870TIP3    H175025   2.594   5.949   0.172  0.2017  0.8376  0.1754
17870TIP3    H275026   2.480   6.037   0.218 -0.8735 -1.0745  1.3439
17871TIP3   OH275027   0.113   5.018   4.799  0.0011 -0.0206 -0.1441
17871TIP3    H175028   0.096   5.091   4.857 -0.8544 -0.5085  0.2345
17871TIP3    H275029   0.166   5.055   4.728  0.2199  0.7852  0.4353
17872TIP3   OH275030   5.824   3.529  13.531 -0.5070  0.0791  0.0793
17872TIP3    H175031   5.779   3.611  13.511  0.9146  1.1597  1.0821
17872TIP3    H275032   5.913   3.541  13.498 -0.3357 -1.1818  0.0035
17873TIP3   OH275033   0.601   6.571  16.064  0.3515  0.1599  0.3486
17873TIP3    H175034   0.549   6.645  16.097 -0.9216 -0.8289  0.6449
17873TIP3    H275035   0.677   6.612  16.023 -0.5904  1.6636  0.0233
17874TIP3   OH275036   3.314   5.938  15.976  0.0866  0.7837  0.5708
17874TIP3    H175037   3.244   5.889  15.934 -0.0792  1.5074 -0.0176
17874TIP3    H275038   3.272   6.019  16.007  0.6923  1.3146  0.0279
17875TIP3   OH275039   4.283   1.660   0.527 -0.5738 -0.2369 -0.7482
17875TIP3    H175040   4.350   1.720   0.494 -0.0999  0.2886  1.0538
17875TIP3    H275041   4.208   1.716   0.545 -0.4835 -0.3440 -0.0235
17876TIP3   OH275042   0.427   2.624  10.507 -0.1094  0.4747  0.1883
17876TIP3    H175043   0.470   2.664  10.582 -0.1941  0.6025  0.1691
17876TIP3    H275044   0.364   2.562  10.545  2.3301 -2.1614  0.2284
17877TIP3   OH275045   0.306   6.300  14.569 -0.0753 -0.1414  0.1161
17877TIP3    H175046   0.325   6.246  14.492 -0.2762  0.0365 -0.0635
17877TIP3    H275047   0.330   6.389  14.541 -0.3237 -0.0496  0.1961
17878TIP3   OH275048   2.217   1.717  15.876 -0.3367 -0.5805  0.1846
17878TIP3    H175049   2.143   1.660  15.897 -0.9811 -0.4275 -1.5272
17878TIP3    H275050   2.278   1.661  15.828 -0.3918 -0.1695 -0.3793
17879TIP3   OH275051   5.379   2.204   5.294  0.1641  0.1232  0.3045
17879TIP3    H175052   5.379   2.164   5.207  1.3592  1.2815 -0.2600
17879TIP3    H275053   5.447   2.157   5.342 -1.2115 -1.2350  0.9992
17880TIP3   OH275054   6.700   6.695  12.908 -0.6451 -0.0899  0.5162
17880TIP3    H175055   6.723   6.698  13.001  1.1668  3.9688  0.1468
17880TIP3    H275056   6.779   6.663  12.865 -0.8993 -0.3652  0.2504
17881TIP3   OH275057   4.666   0.692  14.739  0.0932 -0.6109  0.2678
17881TIP3    H175058   4.710   0.649  14.666  0.3352  2.5901 -1.6451
17881TIP3    H275059   4.600   0.748  14.698  0.6392  1.7833  2.3897
17882TIP3   OH275060   1.760   2.313   5.210  0.3661  0.2620 -0.3842
17882TIP3    H175061   1.697   2.384   5.225 -0.1726  0.1332 -1.8296
17882TIP3    H275062   1.724   2.265   5.135  1.1203 -1.0842  0.0924
17883TIP3   OH275063   3.053   2.458   3.624 -0.1337 -0.1701 -0.1363
17883TIP3    H175064   3.005   2.509   3.690 -0.1554  0.7363 -0.8206
17883TIP3    H275065   2.991   2.391   3.596 -0.0364 -0.7230  0.9388
17884TIP3   OH275066   3.848   5.581  10.522 -0.3688 -0.1628  0.3697
17884TIP3    H175067   3.807   5.646  10.578  0.5584 -0.2916  1.2197
17884TIP3    H275068   3.779   5.519  10.502 -1.1207  0.7625  0.0198
17885TIP3   OH275069   2.751   0.436  11.583 -0.1534 -0.0767  0.0430
17885TIP3    H175070   2.749   0.453  11.678 -0.6925 -0.4576  0.1009
17885TIP3    H275071   2.796   0.352  11.575 -0.9589 -0.5147  0.0332
17886TIP3   OH275072   1.323   6.390   1.849 -0.1567 -0.3324  0.0594
17886TIP3    H175073   1.395   6.333   1.820 -1.3805 -1.6049 -0.6059
17886TIP3    H275074   1.331   6.392   1.945  1.7977  1.0137 -0.0844
17887TIP3   OH275075   4.526   6.655  11.252 -0.1644  0.0089 -0.0052
17887TIP3    H175076   4.543   6.617  11.338  0.8487 -0.3884 -0.3636
17887TIP3    H275077   4.470   6.591  11.208 -1.3129  0.5596  0.6034
17888TIP3   OH275078   3.216   5.764  14.024 -0.1489 -0.0560 -0.2480
17888TIP3    H175079   3.252   5.795  14.107  1.6501  0.3430 -1.1324
17888TIP3    H275080   3.134   5.813  14.014  0.6805  1.5198  0.2752
17889TIP3   OH275081   6.430   6.227  12.587 -0.5357 -0.1720  1.2053
17889TIP3    H175082   6.477   6.290  12.641  0.6887 -0.3808  0.4334
17889TIP3    H275083   6.342   6.223  12.625 -0.9974  2.7730  0.6359
17890TIP3   OH275084   2.639   4.531  13.847  0.1444 -0.4879 -0.4685
17890TIP3    H175085   2.564   4.563  13.896 -1.1024 -2.4546 -0.9663
17890TIP3    H275086   2.611   4.533  13.755  1.5845  0.9364 -0.9218
17891TIP3   OH275087   5.457   4.888  14.362  0.1868  0.3626  0.3541
17891TIP3    H175088   5.508   4.886  14.281  2.6645 -1.1982  1.8163
17891TIP3    H275089   5.486   4.968  14.407 -0.8798  1.0125 -0.0878
17892TIP3   OH275090   1.034   3.021   5.173 -0.0632 -0.2090  0.2212
17892TIP3    H175091   0.956   3.067   5.203 -1.1412 -0.3934 -2.1005
17892TIP3    H275092   1.004   2.969   5.098  2.1170 -0.9577 -0.2101
17893TIP3   OH275093   2.063   3.127   0.147 -0.9160 -0.3807 -0.7038
17893TIP3    H175094   2.055   3.220   0.127  0.7796 -0.3109 -1.2218
17893TIP3    H275095   2.008   3.114   0.224 -0.7217  1.1636 -0.2780
17894TIP3   OH275096   2.342   5.144   2.420  0.0978  0.3351  0.6229
17894TIP3    H175097   2.347   5.128   2.325 -0.3792 -0.1765  0.6785
17894TIP3    H275098   2.375   5.233   2.431  0.8052  0.1490  0.0555
17895TIP3   OH275099   6.482   4.232   2.095 -0.5136 -0.7381 -0.1898
17895TIP3    H175100   6.544   4.215   2.166  0.6147 -0.1155 -0.9974
17895TIP3    H275101   6.457   4.324   2.106  0.0507 -0.4980 -0.8826
17896TIP3   OH275102   2.850   6.246  15.503 -0.0700 -0.1485  1.0267
17896TIP3    H175103   2.784   6.187  15.466 -1.7333 -0.5713  4.2154
17896TIP3    H275104   2.862   6.314  15.437 -1.9590 -1.3412 -0.6695
17897TIP3   OH275105   6.450   3.197   4.722 -0.1951  0.2195 -0.1779
17897TIP3    H175106   6.380   3.261   4.706  1.0442  1.6388 -0.1520
17897TIP3    H275107   6.513   3.243   4.778  1.4254 -0.5129 -1.3032
17898TIP3   OH275108   6.235   6.701   6.084  0.0399 -0.3923  0.2351
17898TIP3    H175109   6.202   6.650   6.009  1.0602  0.3755 -0.7773
17898TIP3    H275110   6.205   6.790   6.067  1.1426 -0.0153  0.1938
17899TIP3   OH275111   2.040   4.099  11.797  0.0832  0.9083  0.2844
17899TIP3    H175112   2.054   4.133  11.708 -0.0574  0.7980  0.2198
17899TIP3    H275113   1.951   4.127  11.819  0.5467  1.9620  0.8544
17900TIP3   OH275114   6.684   3.225  16.417  0.0274  0.2852 -0.2633
17900TIP3    H175115   6.595   3.260  16.418 -0.0673  0.1423 -1.6740
17900TIP3    H275116   6.718   3.248  16.330  0.0579 -2.7697 -1.1867
17901TIP3   OH275117   3.030   0.738  15.079 -0.2256  0.3516  0.4322
17901TIP3    H175118   3.096   0.675  15.050 -1.0194 -0.8801  1.1781
17901TIP3    H275119   2.950   0.713  15.032 -1.2984 -1.1185  2.8601
17902TIP3   OH275120   6.647   6.202  17.166 -0.4911  0.5255  0.0334
17902TIP3    H175121   6.589   6.207  17.241  0.3655 -0.3916  0.7891
17902TIP3    H275122   6.660   6.292  17.138 -0.2646  0.9481  1.4344
17903TIP3   OH275123   4.247   6.446   5.068 -0.1282  0.1576 -0.3390
17903TIP3    H175124   4.268   6.364   5.113 -2.6611 -0.9368 -0.9747
17903TIP3    H275125   4.198   6.420   4.990 -1.5218  2.2494 -0.2735
17904TIP3   OH275126   5.041   2.330  14.491  0.8541  0.5024  0.1892
17904TIP3    H175127   4.996   2.414  14.498 -0.9885 -0.5095  1.1084
17904TIP3    H275128   5.128   2.353  14.457  0.6623  2.8386  1.0640
17905TIP3   OH275129   5.149   4.573  15.548 -0.2833  0.3521  0.6283
17905TIP3    H175130   5.170   4.652  15.498 -1.5463  0.0178 -0.4885
17905TIP3    H275131   5.230   4.551  15.594 -0.0711  2.6390  1.4600
17906TIP3   OH275132   2.990   1.733   1.445  0.3042 -0.0718  0.3132
17906TIP3    H175133   3.070   1.686   1.420 -0.3428 -0.9613 -0.1233
17906TIP3    H275134   2.933   1.666   1.481 -1.6443 -0.1641 -2.6190
17907TIP3   OH275135   3.786   1.027  12.740  0.3349 -0.7613 -0.3765
17907TIP3    H175136   3.815   1.032  12.649  1.7815 -1.4842  0.0135
17907TIP3    H275137   3.852   1.078  12.788 -0.1241 -0.8243  0.3225
17908TIP3   OH275138   3.201   1.648   5.905  0.5843 -0.3008  0.4822
17908TIP3    H175139   3.248   1.568   5.926 -0.4214 -0.8572  0.6634
17908TIP3    H275140   3.145   1.664   5.981  0.4647  0.3366  0.2671
17909TIP3   OH275141   3.742   3.592  11.930 -0.1615  0.6088  0.7558
17909TIP3    H175142   3.667   3.542  11.964  0.5186 -0.2019  1.0975
17909TIP3    H275143   3.704   3.675  11.900 -1.5295 -0.5223 -0.8645
17910TIP3   OH275144   5.931   4.711  13.149  0.0793 -0.1514  0.0411
17910TIP3    H175145   5.933   4.757  13.233 -2.1952 -0.9174  0.5963
17910TIP3    H275146   5.915   4.780  13.085 -2.1419  0.0935  0.7428
17911TIP3   OH275147   6.528   1.355  16.156  0.6331  0.1050 -0.2228
17911TIP3    H175148   6.600   1.409  16.122  0.8824 -0.0356  0.0737
17911TIP3    H275149   6.503   1.300  16.081  0.5412  0.4605 -0.4535
17912TIP3   OH275150   6.255   3.816   4.269 -0.3785 -0.1936  0.7616
17912TIP3    H175151   6.304   3.871   4.207 -1.0032 -0.3077  0.1579
17912TIP3    H275152   6.264   3.727   4.234  0.2009 -0.4223  1.4574
17913TIP3   OH275153   6.062   4.500  10.988  0.3570  0.9241 -0.3156
17913TIP3    H175154   6.108   4.420  11.010 -0.6980  0.4400  0.2073
17913TIP3    H275155   6.129   4.568  10.990  0.9209  0.3606  1.0994
17914TIP3   OH275156   2.716   3.203   5.907 -0.4372 -0.1819  0.1141
17914TIP3    H175157   2.706   3.295   5.933  2.6438  0.8327 -1.7243
17914TIP3    H275158   2.649   3.190   5.840  0.0313  1.2343 -0.6754
17915TIP3   OH275159   5.165   4.678   4.104  0.1756  0.4029  0.1352
17915TIP3    H175160   5.094   4.700   4.043  0.8247  1.3133 -0.2997
17915TIP3    H275161   5.188   4.587   4.082 -1.0254 -0.0053  0.4689
17916TIP3   OH275162   0.902   2.110  11.035 -0.0034  0.2695 -0.2841
17916TIP3    H175163   0.919   2.079  10.946  0.1887  1.0539 -0.5339
17916TIP3    H275164   0.865   2.035  11.080  2.6036 -1.0490 -0.1938
17917TIP3   OH275165   4.380   4.133   0.822 -0.0811 -0.4251  0.0492
17917TIP3    H175166   4.453   4.171   0.870  1.0222 -0.1121 -1.7847
17917TIP3    H275167   4.305   4.187   0.846 -0.1154 -1.6203  3.1005
17918TIP3   OH275168   0.745   4.263   5.181 -0.2141 -0.4307  0.1422
17918TIP3    H175169   0.752   4.346   5.135 -0.7743 -0.4182  0.0738
17918TIP3    H275170   0.831   4.222   5.171 -0.7134 -1.0527 -2.0924
17919TIP3   OH275171   1.785   1.968   1.981 -0.1133 -0.5902 -0.1742
17919TIP3    H175172   1.732   1.998   1.907 -2.2489 -0.4003  1.3433
17919TIP3    H275173   1.721   1.938   2.045  1.6306 -0.0217  1.9322
17920TIP3   OH275174   3.943   5.738   4.240  0.1578 -0.1204  0.3707
17920TIP3    H175175   3.975   5.664   4.188  1.9132  0.4890  0.5171
17920TIP3    H275176   3.960   5.814   4.186  0.0898  0.3487  0.9982
17921TIP3   OH275177   2.762   5.109  11.998  0.3282  0.1472  0.0868
17921TIP3    H175178   2.796   5.045  12.060 -0.3743  0.5941  0.9515
17921TIP3    H275179   2.679   5.072  11.969  0.6650 -0.0697 -0.6154
17922TIP3   OH275180   3.148   2.322   1.383  0.8943  0.0144 -0.0745
17922TIP3    H175181   3.226   2.338   1.330  0.7393 -0.3256 -0.4101
17922TIP3    H275182   3.131   2.406   1.426  1.6368 -0.0086  0.2688
17923TIP3   OH275183   0.852   5.566   2.686 -0.0460  0.5507  0.0279
17923TIP3    H175184   0.822   5.482   2.651 -0.3898  0.9531 -0.6504
17923TIP3    H275185   0.943   5.572   2.659 -0.4799  1.1454 -1.3712
17924TIP3   OH275186   1.054   3.765  11.890  0.1990 -0.4508 -0.5848
17924TIP3    H175187   1.097   3.714  11.958 -1.8844 -1.0717  0.3651
17924TIP3    H275188   1.074   3.719  11.809  0.2542 -1.4825 -0.0075
17925TIP3   OH275189   2.451   5.235   5.367  0.4697  0.0427 -0.7665
17925TIP3    H175190   2.520   5.216   5.431  0.5556  0.9975 -0.5606
17925TIP3    H275191   2.497   5.281   5.296  0.2165 -0.2028 -1.0888
17926TIP3   OH275192   6.359   4.631   0.173 -0.0036  0.3417  0.5014
17926TIP3    H175193   6.330   4.620   0.263 -0.8478 -3.1008 -0.0325
17926TIP3    H275194   6.427   4.565   0.161 -1.2396 -0.6696 -1.7962
17927TIP3   OH275195   1.510   2.743   5.337 -0.2724  0.2815  0.5111
17927TIP3    H175196   1.555   2.737   5.252  0.9507 -1.5191  1.2303
17927TIP3    H275197   1.429   2.790   5.318  0.1958  0.3444 -1.5522
17928TIP3   OH275198   6.409   5.482  14.526  1.0499  0.2908  0.3056
17928TIP3    H175199   6.442   5.570  14.505 -2.4895  1.6149 -0.2842
17928TIP3    H275200   6.330   5.498  14.577 -1.0895 -2.4565 -1.8817
17929TIP3   OH275201   3.490   0.097  13.984  0.0471  0.0260  0.0574
17929TIP3    H175202   3.421   0.065  13.925  1.2388  0.6913 -1.7857
17929TIP3    H275203   3.565   0.040  13.966  0.6868  0.7703  0.3113
17930TIP3   OH275204   0.801   2.202   3.244 -0.5749 -0.4036  0.3181
17930TIP3    H175205   0.754   2.279   3.278  0.9754 -0.1269  2.0104
17930TIP3    H275206   0.736   2.132   3.245 -2.1912  0.9252 -1.7757
17931TIP3   OH275207   1.753   3.294  13.934  0.5813  0.7159  0.1688
17931TIP3    H175208   1.792   3.381  13.944  2.1850  0.1589 -0.7148
17931TIP3    H275209   1.817   3.247  13.880 -0.2022 -1.0464  0.7409
17932TIP3   OH275210   5.139   3.168  11.827 -0.3531  0.0013  0.0270
17932TIP3    H175211   5.147   3.114  11.905  0.2082 -0.7989 -0.5633
17932TIP3    H275212   5.180   3.251  11.851  1.5275 -0.8745  0.0301
17933TIP3   OH275213   5.867   2.613   0.131  0.0642  0.4751  0.2553
17933TIP3    H175214   5.795   2.614   0.195 -0.0584  0.8363  0.1100
17933TIP3    H275215   5.945   2.596   0.184  0.0280  1.2582  0.5635
17934TIP3   OH275216   4.664   4.122  16.515 -0.0470 -0.1341 -0.5604
17934TIP3    H175217   4.602   4.066  16.561  0.2183 -0.0928 -0.1428
17934TIP3    H275218   4.666   4.088  16.426  0.5872 -1.2100 -0.1659
17935TIP3   OH275219   3.934   2.881  16.032  0.0697  0.4366 -0.3787
17935TIP3    H175220   3.900   2.927  15.955 -0.1982  0.9622  0.0482
17935TIP3    H275221   3.865   2.818  16.054 -1.7883  3.0587  1.8777
17936TIP3   OH275222   0.405   6.317  10.767  0.4618  0.5919  0.6481
17936TIP3    H175223   0.390   6.385  10.702 -0.9604 -0.3385 -0.0327
17936TIP3    H275224   0.337   6.252  10.751  1.4570 -0.7512  1.6180
17937TIP3   OH275225   2.653   1.897  12.649 -0.1322 -0.4662  0.1343
17937TIP3    H175226   2.744   1.891  12.618 -1.1578 -2.1103 -2.9892
17937TIP3    H275227   2.624   1.806  12.655 -2.0418  0.0546 -0.5503
17938TIP3   OH275228   0.089   3.591  16.360  0.3827 -0.2864  0.6210
17938TIP3    H175229   0.137   3.673  16.357  1.1113 -0.7156 -2.0497
17938TIP3    H275230   0.135   3.538  16.426  2.8701 -0.2155 -0.9484
17939TIP3   OH275231   1.617   3.067   4.212  0.4848  0.0795  0.0721
17939TIP3    H175232   1.546   3.076   4.276 -0.0590  0.6493 -0.5841
17939TIP3    H275233   1.606   3.142   4.154  1.0414 -0.3545 -0.6110
17940TIP3   OH275234   3.701   0.970   0.843 -0.5415  0.0402 -0.0597
17940TIP3    H175235   3.770   0.904   0.855 -0.4216  0.0622 -0.5744
17940TIP3    H275236   3.628   0.939   0.897  0.0364  0.2687  0.8659
17941TIP3   OH275237   6.345   3.243   4.393 -0.3260 -0.1930 -0.1738
17941TIP3    H175238   6.250   3.254   4.384 -0.6213 -3.2417 -2.0087
17941TIP3    H275239   6.361   3.239   4.487 -2.4434 -2.2407  0.1679
17942TIP3   OH275240   2.136   2.257   2.665  0.5658 -0.2018  0.8972
17942TIP3    H175241   2.055   2.211   2.689 -0.6785  0.9359 -0.8290
17942TIP3    H275242   2.191   2.190   2.625 -0.2810 -0.6523  0.4554
17943TIP3   OH275243   2.384   2.808  13.845  0.9862 -0.3470  0.2649
17943TIP3    H175244   2.474   2.839  13.856  0.4191  0.8596  2.0218
17943TIP3    H275245   2.391   2.713  13.852  2.1385 -0.2882  0.1933
17944TIP3   OH275246   3.880   2.991  15.763 -0.2117 -0.0256 -0.0222
17944TIP3    H175247   3.959   3.004  15.710 -0.8761 -2.8337 -1.9260
17944TIP3    H275248   3.846   3.079  15.777  0.6970  0.9860 -3.2662
17945TIP3   OH275249   2.196   0.642   3.006  0.2232  0.1486 -0.0051
17945TIP3    H175250   2.256   0.573   3.033 -0.1834 -0.6433 -1.0339
17945TIP3    H275251   2.152   0.606   2.929 -3.6641 -0.5526  2.2556
17946TIP3   OH275252   1.598   5.291   5.527  0.1380 -0.3578  0.0475
17946TIP3    H175253   1.662   5.277   5.457 -0.9328  2.0298 -1.5285
17946TIP3    H275254   1.516   5.258   5.491  0.0027 -1.2848  1.1512
17947TIP3   OH275255   6.209   1.687  14.840  0.1594  0.2991 -0.3371
17947TIP3    H175256   6.253   1.715  14.920  1.6399 -0.4282 -0.8601
17947TIP3    H275257   6.191   1.768  14.793 -2.1311  0.8771  1.3677
17948TIP3   OH275258   2.280   2.748  13.172  0.3761 -0.3718  0.1032
17948TIP3    H175259   2.246   2.696  13.099 -0.7934 -0.6080  0.7975
17948TIP3    H275260   2.202   2.779  13.218  1.0629  1.3714  0.1609
17949TIP3   OH275261   0.981   1.596  11.583 -0.5103 -0.2825 -0.4253
17949TIP3    H175262   0.889   1.618  11.566 -0.8812 -1.2534  0.2739
17949TIP3    H275263   1.030   1.664  11.536 -1.5624 -0.1728 -1.4173
17950TIP3   OH275264   2.712   0.632  15.167  0.2216 -0.1323  0.1158
17950TIP3    H175265   2.762   0.612  15.088 -1.1368 -1.2560 -0.4922
17950TIP3    H275266   2.621   0.618  15.142 -0.4721  2.0986  1.1199
17951TIP3   OH275267   3.191   2.906  16.137  0.2355  0.2119 -0.3397
17951TIP3    H175268   3.128   2.976  16.120  1.3987  1.6026  0.7453
17951TIP3    H275269   3.141   2.838  16.181 -0.5305  1.2704  0.4736
17952TIP3   OH275270   0.188   4.006  16.036 -0.0718  0.6161 -0.1952
17952TIP3    H175271   0.269   3.955  16.028 -0.7843 -1.0320  2.0006
17952TIP3    H275272   0.119   3.939  16.043 -1.4153  1.9538 -0.2844
17953TIP3   OH275273   2.787   2.665  10.840 -0.1615 -0.1444 -0.4345
17953TIP3    H175274   2.828   2.745  10.873 -1.3012  0.6381 -0.8358
17953TIP3    H275275   2.849   2.631  10.775 -0.4614  1.4489 -1.6220
17954TIP3   OH275276   1.321   5.961   5.394  0.4542 -0.3621 -0.2166
17954TIP3    H175277   1.282   5.931   5.312  0.8858  0.5191 -0.7515
17954TIP3    H275278   1.310   6.056   5.392 -1.6415 -0.4729  1.8188
17955TIP3   OH275279   0.910   5.422   3.110 -0.2955  0.0425  0.1771
17955TIP3    H175280   0.904   5.480   3.186 -2.2846  1.1477 -0.7311
17955TIP3    H275281   0.841   5.453   3.051  1.0548 -0.8804 -2.0114
17956TIP3   OH275282   2.688   0.459   6.453  0.2653  0.0888 -0.0565
17956TIP3    H175283   2.654   0.400   6.521  1.2521  1.4877  1.7501
17956TIP3    H275284   2.611   0.482   6.401 -0.6316 -0.6537  0.8892
17957TIP3   OH275285   6.582   5.202   1.326  0.3556  0.9478 -0.6136
17957TIP3    H175286   6.531   5.282   1.339  0.1990  0.5999  1.0745
17957TIP3    H275287   6.636   5.194   1.404  0.2560 -0.6803 -0.6662
17958TIP3   OH275288   5.087   0.267  17.201 -0.4158 -0.2690 -0.1882
17958TIP3    H175289   4.993   0.252  17.194 -0.6525  1.0241 -0.1187
17958TIP3    H275290   5.118   0.270  17.111 -0.0359 -2.7689 -0.2116
17959TIP3   OH275291   5.221   6.225   1.060 -0.0028 -0.3780  0.1106
17959TIP3    H175292   5.129   6.210   1.082  0.1322 -1.5354 -0.0866
17959TIP3    H275293   5.219   6.266   0.974 -0.3060 -1.3796 -0.3710
17960TIP3   OH275294   5.518   3.429   2.096 -0.1109 -0.6068 -0.3408
17960TIP3    H175295   5.578   3.363   2.131  1.5789  0.4585 -1.0749
17960TIP3    H275296   5.564   3.512   2.108 -3.3787  0.9563  3.2663
17961TIP3   OH275297   5.567   1.199  11.131  0.0672  0.2248  0.0349
17961TIP3    H175298   5.644   1.173  11.182  0.8205 -1.2006 -1.7138
17961TIP3    H275299   5.512   1.121  11.128  0.9783 -0.4572 -2.8568
17962TIP3   OH275300   6.142   1.450  14.747 -0.7602  0.0723  0.2421
17962TIP3    H175301   6.090   1.502  14.686 -1.0307  0.4179  0.7579
17962TIP3    H275302   6.184   1.515  14.804  0.7308 -0.1624 -0.5409
17963TIP3   OH275303   1.898   2.336   4.112  0.3474  0.0993 -0.1298
17963TIP3    H175304   1.900   2.261   4.172 -0.7795  1.6132  1.8939
17963TIP3    H275305   1.805   2.355   4.100  0.5504  0.0243 -2.1929
17964TIP3   OH275306   4.313   2.351  15.963  0.0301  0.1569 -0.7920
17964TIP3    H175307   4.301   2.280  15.900 -1.9842 -1.0657  0.8042
17964TIP3    H275308   4.387   2.323  16.017 -0.0416 -0.2028 -0.8783
17965TIP3   OH275309   6.338   3.144   2.628 -0.2901 -0.3577  0.8761
17965TIP3    H175310   6.380   3.155   2.713 -0.2688  0.5870  0.7564
17965TIP3    H275311   6.246   3.169   2.643 -0.2971 -0.2335  0.6396
17966TIP3   OH275312   2.713   3.786  13.952  0.4135  0.2666 -0.3530
17966TIP3    H175313   2.731   3.873  13.917 -2.2451  1.3206  0.6833
17966TIP3    H275314   2.743   3.790  14.042 -0.0941  0.2627 -0.1814
17967TIP3   OH275315   6.500   2.797   3.356 -0.2507  0.2247  0.5918
17967TIP3    H175316   6.505   2.709   3.319 -0.1601 -0.9068  3.1334
17967TIP3    H275317   6.565   2.847   3.305 -1.8051 -0.4997 -2.3466
17968TIP3   OH275318   1.530   0.129   0.314 -0.2173  0.1155 -0.4419
17968TIP3    H175319   1.623   0.126   0.290  0.2676  0.2544  1.2707
17968TIP3    H275320   1.530   0.151   0.408 -1.9939  0.5064 -0.4943
17969TIP3   OH275321   5.763   1.400   3.257 -0.0289 -0.0050 -0.0488
17969TIP3    H175322   5.852   1.365   3.266 -0.2301 -0.5593 -0.1462
17969TIP3    H275323   5.773   1.495   3.264  0.6527 -0.0231 -0.6757
17970TIP3   OH275324   1.170   2.094  13.836 -0.0946  0.1923  0.0568
17970TIP3    H175325   1.218   2.166  13.796 -2.2527  2.5973  1.5033
17970TIP3    H275326   1.132   2.046  13.763  0.6294  1.0648 -0.9153
17971TIP3   OH275327   4.172   2.638  12.158 -0.3408 -0.2450  0.0238
17971TIP3    H175328   4.168   2.553  12.201 -1.0460 -0.3703 -0.2758
17971TIP3    H275329   4.253   2.677  12.190  0.0399 -1.0642  0.0871
17972TIP3   OH275330   0.220   5.406  13.700 -0.6537  0.3855  0.2138
17972TIP3    H175331   0.278   5.397  13.776  1.1822  1.1331 -1.0407
17972TIP3    H275332   0.274   5.448  13.633 -2.6333  1.0330 -1.0634
17973TIP3   OH275333   5.350   1.217  12.663 -0.0872  0.0309 -0.3427
17973TIP3    H175334   5.284   1.173  12.609  0.3049 -0.7017 -0.2352
17973TIP3    H275335   5.329   1.191  12.752  0.3354 -0.1965 -0.3072
17974TIP3   OH275336   1.227   3.463   3.257  0.4051 -0.3009 -0.2702
17974TIP3    H175337   1.246   3.531   3.193 -1.2604 -0.3505 -0.8739
17974TIP3    H275338   1.184   3.394   3.207 -1.4088 -0.1211  0.9151
17975TIP3   OH275339   2.493   3.027   6.100 -0.2665 -0.2223 -0.1107
17975TIP3    H175340   2.501   3.064   6.012 -3.1135  2.0000  0.4332
17975TIP3    H275341   2.478   2.933   6.084 -0.6798  0.1158 -1.9851
17976TIP3   OH275342   6.184   3.707  16.721 -0.1170  0.0077  0.5899
17976TIP3    H175343   6.108   3.757  16.691  0.5758  1.0312  0.4737
17976TIP3    H275344   6.170   3.696  16.815 -1.1103 -1.0984  0.3331
17977TIP3   OH275345   5.813   1.994  15.174 -0.4594  0.2052 -0.2035
17977TIP3    H175346   5.906   2.000  15.193 -0.2497  1.0124 -1.3527
17977TIP3    H275347   5.771   2.052  15.238 -0.1130  0.2313 -0.0010
17978TIP3   OH275348   6.216   2.364   3.103 -0.3015  0.3997  0.4983
17978TIP3    H175349   6.207   2.357   3.008  2.7175  0.3367  0.1198
17978TIP3    H275350   6.189   2.279   3.137 -0.0572 -0.0635 -0.4448
17979TIP3   OH275351   5.863   0.610   1.901  0.4049  0.2254 -0.4893
17979TIP3    H175352   5.953   0.643   1.896  1.0249 -1.3831 -0.4089
17979TIP3    H275353   5.843   0.611   1.994  0.9205 -0.8787 -0.3575
17980TIP3   OH275354   4.325   0.091  15.588  0.2135  0.1412  0.4719
17980TIP3    H175355   4.370   0.152  15.647  0.8109 -0.8031  1.0297
17980TIP3    H275356   4.364   0.006  15.609 -2.1309 -0.8003  1.2659
17981TIP3   OH275357   2.651   1.930   2.901 -0.3324  0.1381 -0.3489
17981TIP3    H175358   2.561   1.949   2.928  0.0326 -0.6898  1.7069
17981TIP3    H275359   2.668   1.842   2.936  0.8555 -0.2585 -1.8333
17982TIP3   OH275360   4.916   1.013  12.203  0.2106 -0.0227 -0.6042
17982TIP3    H175361   4.952   1.100  12.223  0.6704 -0.6032  1.2377
17982TIP3    H275362   4.828   1.014  12.241  0.1171 -0.2836 -0.8092
17983TIP3   OH275363   2.346   5.476  13.282  0.1620 -0.2404  0.0752
17983TIP3    H175364   2.399   5.480  13.202 -0.2969 -0.6737 -0.2535
17983TIP3    H275365   2.393   5.532  13.344  1.0929 -0.7391 -0.1543
17984TIP3   OH275366   6.217   6.467  12.454  0.3270 -0.0371 -0.4542
17984TIP3    H175367   6.249   6.385  12.415 -0.1332 -0.6756  0.4537
17984TIP3    H275368   6.156   6.438  12.522  1.4105  1.0088  1.0283
17985TIP3   OH275369   4.179   4.869   3.100 -0.4767 -0.1851 -0.1201
17985TIP3    H175370   4.274   4.876   3.116 -0.3817  1.3682 -1.1564
17985TIP3    H275371   4.171   4.800   3.034 -0.0272  0.0309 -0.4031
17986TIP3   OH275372   0.397   5.971  11.781 -0.3896  0.1020 -0.0371
17986TIP3    H175373   0.474   5.942  11.731  0.9477  2.0552  0.7713
17986TIP3    H275374   0.379   5.899  11.841  1.1975 -0.1672  0.1533
17987TIP3   OH275375   4.578   6.729  14.105  0.0363 -0.0752 -0.0154
17987TIP3    H175376   4.518   6.693  14.171  1.3009 -0.5048  0.9343
17987TIP3    H275377   4.561   6.823  14.108 -1.1332 -0.2603 -0.3266
17988TIP3   OH275378   5.780   3.745  16.198 -0.0327 -0.8731 -0.2042
17988TIP3    H175379   5.686   3.724  16.201 -0.3280  0.4249  0.8715
17988TIP3    H275380   5.790   3.797  16.118 -0.5667  0.2470  0.4181
17989TIP3   OH275381   2.855   0.400   5.075 -0.5597 -0.2246 -0.0136
17989TIP3    H175382   2.922   0.363   5.132 -2.4995 -1.0328  1.8913
17989TIP3    H275383   2.875   0.494   5.073  0.1070 -0.3140  1.2703
17990TIP3   OH275384   0.044   6.706  15.785  0.4690  0.3721 -0.0728
17990TIP3    H175385   0.066   6.613  15.783  0.2973  0.2915  1.0647
17990TIP3    H275386  -0.046   6.711  15.753  0.3781  0.1092  0.1388
17991TIP3   OH275387   3.625   5.420  10.488 -0.3099  0.1478 -0.3410
17991TIP3    H175388   3.555   5.461  10.436  1.1265  0.3677 -2.2357
17991TIP3    H275389   3.598   5.433  10.579 -1.4646  2.5749 -0.9273
17992TIP3   OH275390   3.576   4.058  17.148  0.5926 -0.2573  0.2324
17992TIP3    H175391   3.503   4.026  17.094 -0.4671  1.2305  0.7352
17992TIP3    H275392   3.573   4.153  17.140  1.8428 -0.1117  1.1099
17993TIP3   OH275393   2.739   4.032  15.003 -1.2439 -0.4298 -0.2057
17993TIP3    H175394   2.823   3.988  14.989 -1.3156 -0.7195  0.2538
17993TIP3    H275395   2.715   4.066  14.917 -0.1997  0.4771 -0.1515
17994TIP3   OH275396   6.577   1.717   5.669 -0.0609 -0.3090 -0.1123
17994TIP3    H175397   6.489   1.706   5.705 -0.0001 -0.3126  0.0377
17994TIP3    H275398   6.563   1.752   5.581 -0.1973  0.2262  0.1176
17995TIP3   OH275399   0.099   2.075   3.884 -0.3377 -0.4964  0.4426
17995TIP3    H175400   0.141   2.124   3.955 -1.0441 -0.7601  1.0557
17995TIP3    H275401   0.086   1.988   3.920  1.5336 -1.3944 -0.8783
17996TIP3   OH275402   4.272   1.755   4.371  0.2916 -0.0275 -0.6583
17996TIP3    H175403   4.355   1.708   4.361 -1.0750 -2.2290 -2.5022
17996TIP3    H275404   4.294   1.846   4.350  2.4109 -0.3599 -0.1442
17997TIP3   OH275405   2.161   4.541  13.669  0.1788 -0.2913 -0.1318
17997TIP3    H175406   2.140   4.491  13.747 -0.1571 -0.1188 -0.1066
17997TIP3    H275407   2.097   4.613  13.668  1.1147  0.5770  0.2412
17998TIP3   OH275408   1.668   5.659  12.681  0.5236 -0.2112 -0.1603
17998TIP3    H175409   1.696   5.649  12.773 -1.0502  2.4065  0.7082
17998TIP3    H275410   1.670   5.753  12.666 -1.7448 -0.3788 -1.9764
17999TIP3   OH275411   1.171   4.306  15.712 -0.3423 -0.2410  0.0578
17999TIP3    H175412   1.119   4.226  15.711 -0.8313  0.0248  1.4579
17999TIP3    H275413   1.257   4.279  15.745 -1.1666  0.1124  2.7112
18000TIP3   OH275414   4.342   3.089   2.789  0.0990 -0.2674  0.0433
18000TIP3    H175415   4.356   3.181   2.767 -2.0146 -0.5887 -3.4013
18000TIP3    H275416   4.251   3.084   2.817  0.2048 -1.3112  0.2613
18001TIP3   OH275417   6.581   0.778   1.824 -0.2483  0.1501  0.5193
18001TIP3    H175418   6.501   0.797   1.775 -0.8406 -0.4765  1.2201
18001TIP3    H275419   6.643   0.747   1.758 -0.6619  0.3981  0.0068
18002TIP3   OH275420   5.420   6.382  10.411 -0.2235 -0.4289 -0.0794
18002TIP3    H175421   5.438   6.470  10.443  1.4962 -0.1109 -1.7525
18002TIP3    H275422   5.343   6.354  10.460  0.8137  0.9059  2.5307
18003TIP3   OH275423   0.498   6.242  15.709 -0.0326 -0.3561 -0.0475
18003TIP3    H175424   0.465   6.264  15.796  1.4269  2.8802 -0.1879
18003TIP3    H275425   0.474   6.317  15.655  0.8780 -1.3690 -1.9501
18004TIP3   OH275426   2.453   2.561   3.876  0.1179  0.2259  0.0717
18004TIP3    H175427   2.473   2.649   3.908  1.3173  0.0833 -0.2512
18004TIP3    H275428   2.368   2.541   3.915 -0.0241  1.3922  0.4170
18005TIP3   OH275429   0.716   6.636   0.270  0.8280 -0.0939  0.2765
18005TIP3    H175430   0.711   6.578   0.347 -1.0226  0.4600  0.6306
18005TIP3    H275431   0.783   6.596   0.214  1.2165 -1.2962  1.5368
18006TIP3   OH275432   0.744   4.376  16.915 -0.2536  0.2808  0.1745
18006TIP3    H175433   0.836   4.397  16.903  0.0743 -0.2226  1.5540
18006TIP3    H275434   0.724   4.313  16.845  0.3542  0.6355 -0.3243
18007TIP3   OH275435   2.943   0.056   2.644 -0.4481 -0.2655 -0.4331
18007TIP3    H175436   3.000  -0.010   2.604  0.1584 -0.0470  0.0560
18007TIP3    H275437   2.855   0.021   2.633 -0.2126 -0.6493 -1.1259
18008TIP3   OH275438   4.885   1.102  15.416  0.2731  0.4758  0.0384
18008TIP3    H175439   4.946   1.110  15.343  0.1371  0.7639 -0.0421
18008TIP3    H275440   4.798   1.101  15.376  0.1908  0.7693  0.2035
18009TIP3   OH275441   1.125   5.575  12.258  0.0188  0.4773  0.3498
18009TIP3    H175442   1.150   5.483  12.250 -0.9081  0.2472 -0.0867
18009TIP3    H275443   1.193   5.614  12.313  0.0226 -0.6254  1.1544
18010TIP3   OH275444   1.584   0.815  10.964 -0.2262  0.5582 -0.7641
18010TIP3    H175445   1.511   0.876  10.954  0.0805  1.0263 -0.1495
18010TIP3    H275446   1.615   0.828  11.053  0.2662 -0.0270 -0.8431
18011TIP3   OH275447   4.838   2.693   5.255 -0.9482 -0.1637  0.3204
18011TIP3    H175448   4.920   2.643   5.246 -1.1662 -0.3938 -0.4148
18011TIP3    H275449   4.856   2.777   5.213 -0.9827 -0.0901  0.4526
18012TIP3   OH275450   4.362   6.392  10.572 -1.1346  0.4651  0.7542
18012TIP3    H175451   4.384   6.468  10.517  0.6699  0.4170  1.3347
18012TIP3    H275452   4.339   6.429  10.657  0.3178  0.3833  1.2130
18013TIP3   OH275453   6.442   1.373  13.486  0.0129 -0.1453  0.6770
18013TIP3    H175454   6.392   1.430  13.544  1.2031  2.6037 -0.8093
18013TIP3    H275455   6.380   1.349  13.417 -0.0127  1.0228  0.2742
18014TIP3   OH275456   1.413   5.035   1.131  0.2141  0.4032  0.0475
18014TIP3    H175457   1.357   4.965   1.164 -0.4307  0.7962 -0.1823
18014TIP3    H275458   1.454   5.072   1.209 -1.0998  1.1608  0.4117
18015TIP3   OH275459   0.287   5.760  15.779  0.6054 -0.2572 -0.0764
18015TIP3    H175460   0.352   5.692  15.795 -0.0126 -1.2864 -1.7067
18015TIP3    H275461   0.258   5.746  15.689 -2.8362 -0.6805  0.9412
18016TIP3   OH275462   0.045   5.057   0.075 -0.1063 -0.1096  0.4495
18016TIP3    H175463  -0.026   5.048   0.139  0.3215 -1.0535  0.7956
18016TIP3    H275464   0.109   4.992   0.100 -0.2107 -0.9548 -1.3190
18017TIP3   OH275465   0.387   3.723  12.910  0.3313 -0.1021  0.2755
18017TIP3    H175466   0.473   3.683  12.922 -0.0074 -0.3973  2.1583
18017TIP3    H275467   0.326   3.649  12.915 -0.0816  0.1821 -0.3980
18018TIP3   OH275468   6.759   3.002  13.984 -0.0754  0.2357  0.1113
18018TIP3    H175469   6.832   2.967  14.034  0.4119  0.9755 -0.0646
18018TIP3    H275470   6.723   3.072  14.039 -0.2508  0.2940 -0.0761
18019TIP3   OH275471   4.972   6.406   2.613 -0.1782  0.6225  0.7456
18019TIP3    H175472   4.982   6.313   2.635 -1.1851  0.5364  0.8760
18019TIP3    H275473   4.929   6.444   2.690  0.6650  1.2992  0.8909
18020TIP3   OH275474   3.392   4.978   3.848  0.2847  0.3292  0.7253
18020TIP3    H175475   3.459   5.033   3.888  1.1832  0.1042 -0.3996
18020TIP3    H275476   3.427   4.889   3.854  1.1877  0.4228 -1.8092
18021TIP3   OH275477   5.125   0.901  14.645 -0.3444  0.2625 -0.1422
18021TIP3    H175478   5.170   0.837  14.590 -0.7677 -1.1471  1.0927
18021TIP3    H275479   5.044   0.920  14.598 -0.7348 -0.9829  0.0070
18022TIP3   OH275480   4.370   0.928   1.664 -0.2254  0.6825 -0.2566
18022TIP3    H175481   4.291   0.877   1.680  1.3751 -2.1296 -0.5206
18022TIP3    H275482   4.392   0.909   1.572  1.0131  1.0046 -0.0413
18023TIP3   OH275483   1.956   4.366  15.480  0.1263 -0.0034 -0.2086
18023TIP3    H175484   2.035   4.417  15.498 -0.3135  1.1682 -1.4851
18023TIP3    H275485   1.902   4.422  15.426 -1.3012 -1.0594  0.0468
18024TIP3   OH275486   2.196   1.228  14.146  0.2389  0.0220  0.1770
18024TIP3    H175487   2.138   1.297  14.178  0.4377  1.4264 -2.3069
18024TIP3    H275488   2.148   1.188  14.074  0.4994 -1.9369  1.0035
18025TIP3   OH275489   0.686   3.058  11.294 -0.0213  0.7891 -0.2062
18025TIP3    H175490   0.653   2.995  11.231 -0.6532 -0.2595  1.1370
18025TIP3    H275491   0.610   3.110  11.319 -0.2835 -0.2727  1.3368
18026TIP3   OH275492   2.551   1.626  15.128 -0.1391  0.0204  0.0320
18026TIP3    H175493   2.639   1.602  15.156  0.3301  1.7036  0.1015
18026TIP3    H275494   2.549   1.722  15.135 -2.1466 -0.0242  0.5515
18027TIP3   OH275495   0.167   4.690   5.835  0.0514  0.0123 -0.5123
18027TIP3    H175496   0.193   4.717   5.923  1.2850 -0.1095 -0.8214
18027TIP3    H275497   0.249   4.675   5.789 -0.4814  2.3466 -2.4148
18028TIP3   OH275498   0.765   6.183  12.508  0.0027  0.1627 -0.3363
18028TIP3    H175499   0.858   6.194  12.491  0.5530 -1.6015  1.1413
18028TIP3    H275500   0.735   6.121  12.442  0.2348 -0.3759  0.0537
18029TIP3   OH275501   3.369   4.911   4.380 -0.3151 -0.2491 -0.5244
18029TIP3    H175502   3.384   4.973   4.309  0.5923  0.4452  0.2510
18029TIP3    H275503   3.276   4.888   4.372 -0.1324 -0.5547 -2.2070
18030TIP3   OH275504   4.096   2.850   3.046 -0.2638  0.0408  0.4259
18030TIP3    H175505   4.094   2.911   2.972  0.4241 -1.2398 -0.7116
18030TIP3    H275506   4.189   2.826   3.054 -0.5109 -0.8075  0.8573
18031TIP3   OH275507   3.599   1.058   1.986  0.5129  0.3894  0.0184
18031TIP3    H175508   3.668   1.100   1.935 -0.4920  1.4008 -0.5301
18031TIP3    H275509   3.621   0.965   1.984  2.6442  0.8010  1.0444
18032TIP3   OH275510   5.429   4.817   1.821  0.0010  0.2289 -0.2328
18032TIP3    H175511   5.479   4.898   1.808  1.1484 -0.7060 -2.2573
18032TIP3    H275512   5.408   4.816   1.914  1.9283  1.7288  0.2850
18033TIP3   OH275513   6.067   1.529   3.169 -0.0245 -0.2631  0.0729
18033TIP3    H175514   6.084   1.474   3.245 -1.1780 -0.9498 -0.1354
18033TIP3    H275515   6.101   1.478   3.095 -0.6166 -0.4688 -0.0640
18034TIP3   OH275516   4.941   4.836   1.137  0.3504  0.5254  0.7859
18034TIP3    H175517   4.976   4.922   1.117  1.2936 -0.2463 -1.1319
18034TIP3    H275518   4.849   4.851   1.158  0.1751  1.8558 -0.8093
18035TIP3   OH275519   1.960   0.402  14.580 -0.3311  0.1756  0.3682
18035TIP3    H175520   1.937   0.428  14.491 -0.4204  1.0661  0.6390
18035TIP3    H275521   2.008   0.320  14.570 -0.6223  0.0995 -0.4717
18036TIP3   OH275522   5.477   2.773  12.229  0.3025 -0.1981  0.6248
18036TIP3    H175523   5.539   2.721  12.178  0.8670  0.9393  0.1168
18036TIP3    H275524   5.510   2.768  12.319  1.3754  0.7070  0.3014
18037TIP3   OH275525   4.698   2.559   1.888  0.2891 -0.0626 -0.1122
18037TIP3    H175526   4.651   2.578   1.969 -0.8025  0.8024 -0.9095
18037TIP3    H275527   4.762   2.630   1.880 -0.5300  0.6311 -0.6738
18038TIP3   OH275528   5.081   5.509  13.868  0.1111 -0.5558  0.2028
18038TIP3    H175529   5.141   5.442  13.899  1.3362  0.3813 -0.0824
18038TIP3    H275530   4.994   5.474  13.888  0.7551 -1.4984  1.5430
18039TIP3   OH275531   1.097   3.455  11.617 -0.8545  0.2933 -0.2225
18039TIP3    H175532   1.003   3.476  11.618 -0.8398  0.3712 -0.4441
18039TIP3    H275533   1.102   3.369  11.577 -0.8107  0.3975 -0.4428
18040TIP3   OH275534   3.133   1.474  14.258  0.2548  0.3434 -0.0558
18040TIP3    H175535   3.162   1.492  14.347  1.0165  1.4870 -0.5021
18040TIP3    H275536   3.109   1.381  14.258  2.3763 -0.2701  0.7899
18041TIP3   OH275537   0.891   2.155  14.746 -0.4762  0.0315 -0.4928
18041TIP3    H175538   0.870   2.237  14.791 -0.5259 -0.5086  0.5084
18041TIP3    H275539   0.939   2.104  14.812 -1.2545 -1.1094 -0.7840
18042TIP3   OH275540   3.505   3.664   3.470 -0.0283 -0.5214 -0.0076
18042TIP3    H175541   3.460   3.580   3.482  0.5358 -0.6657  1.1913
18042TIP3    H275542   3.463   3.722   3.534  0.1394 -0.1068 -0.2723
18043TIP3   OH275543   0.156   2.814   3.659  0.1750 -0.3403 -0.0130
18043TIP3    H175544   0.200   2.876   3.600  1.1581 -1.5140 -0.5486
18043TIP3    H275545   0.067   2.807   3.624  0.1070  0.5863 -0.0690
18044TIP3   OH275546   6.042   1.382   0.266  0.1230  0.0294 -0.1557
18044TIP3    H175547   6.012   1.433   0.341  0.4158 -0.1006  0.0557
18044TIP3    H275548   6.135   1.364   0.285 -0.4177 -2.1807  0.7150
18045TIP3   OH275549   2.471   6.411  14.614 -0.1665 -0.2133  0.2000
18045TIP3    H175550   2.554   6.442  14.648  0.3025 -1.1119 -0.0857
18045TIP3    H275551   2.411   6.416  14.688  0.2209  0.1442  0.4923
18046TIP3   OH275552   6.112   0.074   3.709  0.0568 -0.0973  0.3325
18046TIP3    H175553   6.025   0.034   3.710  0.0962 -0.4245 -2.4136
18046TIP3    H275554   6.110   0.136   3.637  2.1767 -0.2921  0.0353
18047TIP3   OH275555   2.182   1.421  11.521  0.7009  0.1923  0.0353
18047TIP3    H175556   2.238   1.376  11.585  1.3162  2.3725  1.1444
18047TIP3    H275557   2.228   1.503  11.503 -1.2245  1.2115 -0.4718
18048TIP3   OH275558   3.515   3.026  16.028 -1.1297 -0.4301 -0.4193
18048TIP3    H175559   3.532   3.015  15.935  2.6977 -1.5621  0.2439
18048TIP3    H275560   3.470   3.110  16.035 -0.2336  0.3571 -3.1610
18049TIP3   OH275561   4.265   0.392  15.177  0.5234  0.1614  0.6928
18049TIP3    H175562   4.175   0.400  15.144  0.7212  0.9584  0.3338
18049TIP3    H275563   4.264   0.439  15.260  0.3776 -0.6491  1.1607
18050TIP3   OH275564   2.336   4.255   2.041 -0.2558 -0.6167  0.2708
18050TIP3    H175565   2.422   4.274   2.080 -0.3947  0.2725  0.1806
18050TIP3    H275566   2.335   4.160   2.031 -0.3809 -0.9529  2.8119
18051TIP3   OH275567   2.649   2.339  16.299  0.1375 -0.6067 -0.0549
18051TIP3    H175568   2.706   2.267  16.273  0.1799 -0.6329  0.1080
18051TIP3    H275569   2.561   2.304  16.291  0.1201 -0.3789 -0.8736
18052TIP3   OH275570   5.813   4.208   1.286  0.0382  0.1605 -0.0024
18052TIP3    H175571   5.890   4.243   1.330  0.8575  0.3296 -1.5087
18052TIP3    H275572   5.833   4.215   1.192 -2.0220  0.7308 -0.4646
18053TIP3   OH275573   3.264   1.570  11.325 -0.1768  0.0726 -0.2180
18053TIP3    H175574   3.224   1.606  11.246 -0.1425 -0.6378 -0.5606
18053TIP3    H275575   3.355   1.555  11.301 -0.6968 -2.4843 -0.8665
18054TIP3   OH275576   1.750   0.253   5.468 -0.6897 -0.1953 -0.3319
18054TIP3    H175577   1.745   0.262   5.373  0.9672 -0.5847 -0.4838
18054TIP3    H275578   1.816   0.317   5.494 -0.3035 -0.8831  0.4126
18055TIP3   OH275579   5.988   1.502   1.310 -0.2054 -0.1353  0.4997
18055TIP3    H175580   5.946   1.584   1.282  0.8923  0.3855  0.3292
18055TIP3    H275581   5.961   1.492   1.402 -1.3934 -0.2770  0.1471
18056TIP3   OH275582   5.432   4.622  12.064 -0.5190 -0.2088  0.1563
18056TIP3    H175583   5.427   4.542  12.012 -0.5954  1.2474 -2.2162
18056TIP3    H275584   5.497   4.676  12.019 -2.7914  2.3632 -0.3281
18057TIP3   OH275585   6.612   3.713   2.001  0.4014 -0.2405  0.3033
18057TIP3    H175586   6.691   3.676   1.962  1.0471  0.3439  1.0305
18057TIP3    H275587   6.637   3.735   2.091  0.1483  2.1505 -0.1374
18058TIP3   OH275588   4.639   4.263   0.627 -0.3313 -0.8029 -0.1405
18058TIP3    H175589   4.546   4.268   0.645 -0.6664 -2.2421 -1.3025
18058TIP3    H275590   4.647   4.291   0.536  0.5558  0.4863  0.2949
18059TIP3   OH275591   3.733   0.205   1.599 -0.3346 -0.1587 -0.2022
18059TIP3    H175592   3.656   0.160   1.564  0.2233 -1.4389  0.1563
18059TIP3    H275593   3.782   0.137   1.645  2.4362 -0.0722 -2.6901
18060TIP3   OH275594   1.038   1.936   5.870 -0.3770  0.1805 -0.4217
18060TIP3    H175595   1.032   1.911   5.962 -1.4319  1.8064  0.0006
18060TIP3    H275596   1.057   2.030   5.872  3.1521 -0.3590 -1.9095
18061TIP3   OH275597   2.370   1.979  15.468 -0.0386  0.0288  0.7532
18061TIP3    H175598   2.346   2.069  15.449 -1.7963 -0.7663 -1.2712
18061TIP3    H275599   2.350   1.967  15.561  2.8443  2.3944  1.8241
18062TIP3   OH275600   5.261   4.433  15.763 -0.7995 -0.2749 -0.0680
18062TIP3    H175601   5.168   4.444  15.782 -0.7601  0.6260 -0.3680
18062TIP3    H275602   5.299   4.520  15.777 -0.0459 -0.5781 -0.1876
18063TIP3   OH275603   2.633   3.675  15.302  0.8301  0.0277 -0.2339
18063TIP3    H175604   2.694   3.630  15.244  1.6571  1.7567 -0.7818
18063TIP3    H275605   2.666   3.765  15.306 -0.4344  0.4702  1.2313
18064TIP3   OH275606   3.052   2.006  14.134  1.1931 -0.1703  0.1858
18064TIP3    H175607   2.997   1.997  14.212 -2.3895  0.1236 -2.0974
18064TIP3    H275608   3.074   1.915  14.110  0.2440 -0.4057  0.1898
18065TIP3   OH275609   5.524   1.027   6.128 -0.5025 -0.1146  0.0697
18065TIP3    H175610   5.591   1.030   6.196 -0.2267 -0.9635 -0.1516
18065TIP3    H275611   5.447   0.989   6.171 -1.9709  3.6910  1.2093
18066TIP3   OH275612   3.367   5.429  15.960 -0.2006 -0.1152 -0.1331
18066TIP3    H175613   3.384   5.364  15.892 -1.1754 -1.2358  0.6587
18066TIP3    H275614   3.441   5.489  15.955  0.6101 -1.1529 -1.0390
18067TIP3   OH275615   6.287   3.540  15.151  0.3178 -0.6258 -0.1151
18067TIP3    H175616   6.374   3.501  15.143  0.0296 -1.0168 -1.5850
18067TIP3    H275617   6.236   3.476  15.200  0.8084 -0.4349  0.6757
18068TIP3   OH275618   2.211   5.462  16.884 -0.2796  1.1094  0.1551
18068TIP3    H175619   2.133   5.508  16.914  1.2550  3.4358  0.9418
18068TIP3    H275620   2.266   5.531  16.846  1.8290 -0.2221  0.5833
18069TIP3   OH275621   0.687   0.516   3.586  0.1374 -0.3744  0.0188
18069TIP3    H175622   0.634   0.593   3.607  2.8048  1.7440 -0.4245
18069TIP3    H275623   0.657   0.488   3.500 -0.5163  0.4928 -0.0459
18070TIP3   OH275624   0.347   3.305   1.236 -0.2916 -0.2152 -0.2818
18070TIP3    H175625   0.321   3.223   1.194 -1.2913  0.6718 -1.4466
18070TIP3    H275626   0.442   3.304   1.234 -0.2177 -1.9293  0.9138
18071TIP3   OH275627   6.121   3.799  12.774  0.0650 -0.4816 -0.5255
18071TIP3    H175628   6.137   3.875  12.718  0.9922 -0.3895 -0.1460
18071TIP3    H275629   6.029   3.778  12.759 -0.0867  0.4411 -0.9733
18072TIP3   OH275630   6.180   6.571  13.632 -0.3710  0.0223 -0.0951
18072TIP3    H175631   6.258   6.584  13.578 -1.2004 -0.9988 -1.6086
18072TIP3    H275632   6.168   6.655  13.676  0.9075  0.5782 -0.7379
18073TIP3   OH275633   5.534   5.818   1.839 -0.7430 -0.0877  0.1824
18073TIP3    H175634   5.564   5.903   1.869  0.4810 -0.0395 -1.1114
18073TIP3    H275635   5.586   5.755   1.889  0.4090 -0.0212 -0.8962
18074TIP3   OH275636   6.273   6.376   2.873  0.0906 -0.0577  0.0476
18074TIP3    H175637   6.367   6.389   2.863 -0.4266  3.2978 -2.2345
18074TIP3    H275638   6.234   6.423   2.799 -3.4475 -0.3459  1.5144
18075TIP3   OH275639   4.233   4.524  12.422 -0.0030 -0.5659 -0.3846
18075TIP3    H175640   4.237   4.493  12.331  0.4790 -0.7838 -0.2869
18075TIP3    H275641   4.303   4.477  12.467  0.3731  0.2394 -0.1122
18076TIP3   OH275642   0.238   4.046   0.008 -0.7845 -0.2845 -0.3729
18076TIP3    H175643   0.222   4.127  -0.040  0.7788  0.3163  0.0744
18076TIP3    H275644   0.181   4.053   0.085 -1.9106 -0.4119 -1.1615
18077TIP3   OH275645   3.356   2.340   5.371  0.2145 -0.0829 -0.0838
18077TIP3    H175646   3.371   2.358   5.278  0.2032  2.1918  0.3032
18077TIP3    H275647   3.290   2.270   5.372  0.2453 -0.1783 -1.7654
18078TIP3   OH275648   5.165   2.676  15.723 -0.6439  1.2290  0.3482
18078TIP3    H175649   5.196   2.651  15.810  0.0734  0.9853  0.0305
18078TIP3    H275650   5.240   2.720  15.683 -0.5752  0.2890 -0.5870
18079TIP3   OH275651   3.143   2.998   2.294 -0.2288 -0.0988 -0.5603
18079TIP3    H175652   3.186   2.993   2.208 -1.3490  0.9421 -1.2121
18079TIP3    H275653   3.058   2.957   2.280 -0.5529  0.3858 -0.0319
18080TIP3   OH275654   2.210   1.090  15.794  0.0742 -0.1040 -1.2646
18080TIP3    H175655   2.291   1.050  15.764  0.0476  0.1074 -1.6254
18080TIP3    H275656   2.140   1.035  15.759  0.0643 -1.9822  1.4116
18081TIP3   OH275657   1.936   6.196  11.473  0.3982 -0.1621  0.0583
18081TIP3    H175658   1.971   6.159  11.393  0.6812  0.4422 -0.1098
18081TIP3    H275659   1.947   6.291  11.462 -3.1449  0.2652 -0.8786
18082TIP3   OH275660   5.813   1.101   6.571 -0.3302  0.0222 -0.1292
18082TIP3    H175661   5.867   1.160   6.518 -2.7447  1.8946 -0.7305
18082TIP3    H275662   5.741   1.076   6.513 -0.7149 -1.5016  0.9450
18083TIP3   OH275663   4.055   3.814   0.399 -0.3516 -0.5768  0.3160
18083TIP3    H175664   3.992   3.841   0.332  1.5691 -0.0051 -1.3811
18083TIP3    H275665   4.047   3.718   0.401 -0.2019 -0.6396 -1.0339
18084TIP3   OH275666   4.895   5.611   6.100 -0.4148  0.3058  0.0626
18084TIP3    H175667   4.990   5.622   6.095 -0.3546 -0.6371 -2.8667
18084TIP3    H275668   4.883   5.524   6.139 -0.0149 -0.0248 -0.5303
18085TIP3   OH275669   5.284   2.783   0.828 -0.2986  0.2699  0.3647
18085TIP3    H175670   5.325   2.842   0.764  0.4360 -1.1132 -0.4757
18085TIP3    H275671   5.353   2.768   0.893 -1.4588  2.7652  2.3346
18086TIP3   OH275672   5.857   5.785  13.589  0.4582  0.4298  0.0209
18086TIP3    H175673   5.920   5.725  13.549 -1.7478 -1.1568 -1.3378
18086TIP3    H275674   5.834   5.847  13.520  0.3765  0.8503  0.4215
18087TIP3   OH275675   0.408   1.873   5.262 -0.0715  0.3170 -0.4998
18087TIP3    H175676   0.434   1.783   5.241  1.1057  0.7425 -0.9521
18087TIP3    H275677   0.490   1.918   5.281 -0.7564  0.9925  1.0215
18088TIP3   OH275678   5.462   4.950   5.897 -0.2950  0.1302  0.3022
18088TIP3    H175679   5.501   4.915   5.817  0.7881 -0.8043  1.2013
18088TIP3    H275680   5.533   4.998   5.940 -1.0901  1.3332  0.3169
18089TIP3   OH275681   4.432   2.178  14.951 -0.5221 -0.4705 -0.0843
18089TIP3    H175682   4.432   2.213  15.040  0.5791 -0.6628  0.0114
18089TIP3    H275683   4.400   2.088  14.961  0.9368 -0.9722  0.3510
18090TIP3   OH275684   5.408   4.597   3.030 -0.4204 -0.1818  0.5415
18090TIP3    H175685   5.431   4.587   2.938  1.8805  1.4123  0.8775
18090TIP3    H275686   5.335   4.536   3.043  0.3655 -1.7697 -1.8770
18091TIP3   OH275687   5.955   0.487  15.863  0.0776 -0.2389  0.1577
18091TIP3    H175688   5.927   0.466  15.774 -0.3676 -0.3521  0.3184
18091TIP3    H275689   6.008   0.412  15.890  1.1451  0.3011 -0.4072
18092TIP3   OH275690   0.212   1.903  12.626 -0.3633  0.1904 -0.0987
18092TIP3    H175691   0.135   1.847  12.618 -0.4572  0.5533 -2.9267
18092TIP3    H275692   0.181   1.990  12.601  0.5019  0.7980  0.8926
18093TIP3   OH275693   1.889   6.519   2.915 -0.3237 -0.9162  0.2807
18093TIP3    H175694   1.951   6.508   2.987  1.0187  2.1159 -0.2740
18093TIP3    H275695   1.934   6.484   2.838  0.2817  0.2805  0.0763
18094TIP3   OH275696   4.956   2.296  16.289  0.3616  0.0730 -0.2507
18094TIP3    H175697   4.987   2.210  16.317 -1.4694 -0.2964  0.8545
18094TIP3    H275698   4.956   2.292  16.193  1.2627 -0.7772 -0.2274
18095TIP3   OH275699   2.496   1.641   1.717  0.1445  0.0088  0.0399
18095TIP3    H175700   2.433   1.601   1.777  0.5110  0.7884  0.9771
18095TIP3    H275701   2.580   1.635   1.762  0.4167  0.6867 -0.3567
18096TIP3   OH275702   4.804   1.597   6.468  0.2818 -0.2638  0.1832
18096TIP3    H175703   4.831   1.590   6.560  1.2038 -0.5553 -0.0999
18096TIP3    H275704   4.772   1.686   6.459 -3.0603 -1.1609  1.6182
18097TIP3   OH275705   1.667   1.140  11.419 -0.1090  0.2743 -0.2059
18097TIP3    H175706   1.751   1.174  11.448 -0.0175 -0.6242  0.6518
18097TIP3    H275707   1.681   1.116  11.328 -0.8234  4.5756 -1.6855
18098TIP3   OH275708   0.620   1.821   0.886  0.1556 -0.4393  0.2650
18098TIP3    H175709   0.712   1.843   0.895 -0.0372 -0.2239  2.3533
18098TIP3    H275710   0.604   1.757   0.956 -1.3819 -0.0542  0.2975
18099TIP3   OH275711   1.906   5.430  15.556 -0.0869  0.3908  0.0325
18099TIP3    H175712   1.864   5.506  15.515  1.5450  0.7411 -1.1059
18099TIP3    H275713   1.845   5.358  15.543 -0.3746  0.8798 -1.5209
18100TIP3   OH275714   1.736   1.451  11.303 -0.6093  0.3247  0.2372
18100TIP3    H175715   1.655   1.458  11.253 -1.3367 -0.5071  1.2484
18100TIP3    H275716   1.765   1.361  11.289  0.4621  0.7632 -0.5487
18101TIP3   OH275717   2.043   5.300   2.975  0.3673  0.2127  0.1385
18101TIP3    H175718   1.954   5.267   2.988 -0.7959  2.8663 -0.4895
18101TIP3    H275719   2.072   5.325   3.062  0.7707 -1.1860  0.4306
18102TIP3   OH275720   2.765   0.420  14.085 -0.5684  1.0551 -0.3056
18102TIP3    H175721   2.722   0.460  14.161 -1.0212 -1.2953  0.7557
18102TIP3    H275722   2.787   0.494  14.029  0.5388  3.0353  2.4548
18103TIP3   OH275723   1.825   1.563   3.108 -0.2044  0.3052  0.6297
18103TIP3    H175724   1.803   1.650   3.074  1.2887  0.3541 -0.2878
18103TIP3    H275725   1.896   1.532   3.052 -0.2384 -1.2298  1.3753
18104TIP3   OH275726   2.205   2.853  11.911 -0.3413  0.2557 -0.0787
18104TIP3    H175727   2.111   2.854  11.891 -0.6063 -0.1727  1.0887
18104TIP3    H275728   2.210   2.877  12.003  0.5784 -1.1816  0.2731
18105TIP3   OH275729   1.430   4.405  13.302 -0.9261 -0.1560  0.1448
18105TIP3    H175730   1.498   4.471  13.317 -0.7435 -0.7092  2.0710
18105TIP3    H275731   1.475   4.334  13.257 -0.6049  0.1252  0.0141
18106TIP3   OH275732   6.368   6.757   2.873 -0.3122 -0.0180 -0.1410
18106TIP3    H175733   6.444   6.740   2.929  0.2844  1.7285 -0.3760
18106TIP3    H275734   6.293   6.757   2.933  0.2735  1.4168  0.6275
18107TIP3   OH275735   5.064   0.423   1.385  0.3040  0.2929  0.8626
18107TIP3    H175736   5.107   0.503   1.355  0.9257 -0.1949  0.4212
18107TIP3    H275737   5.135   0.370   1.422  0.7007 -1.7724 -2.4931
18108TIP3   OH275738   4.681   4.197  15.368 -0.0356 -0.0986  0.4192
18108TIP3    H175739   4.743   4.164  15.303  2.0724  1.4032  1.5336
18108TIP3    H275740   4.683   4.131  15.438  0.8626  0.2744  0.7552
18109TIP3   OH275741   4.294   6.184   2.888 -0.4595  0.9500 -0.1767
18109TIP3    H175742   4.269   6.128   2.962  1.6759  1.5406  1.1013
18109TIP3    H275743   4.258   6.270   2.911 -0.0995  1.0525  0.0106
18110TIP3   OH275744   0.276   1.674   6.271 -0.5487  0.2176 -0.6666
18110TIP3    H175745   0.351   1.726   6.297 -0.1963  0.4373 -2.0178
18110TIP3    H275746   0.281   1.595   6.325  0.6399  0.2431 -0.7108
18111TIP3   OH275747   3.721   5.482   2.932 -0.0399  0.9816 -0.0114
18111TIP3    H175748   3.816   5.478   2.924  0.2986 -0.4238  3.1808
18111TIP3    H275749   3.706   5.559   2.987 -0.8345  1.5492 -0.9978
18112TIP3   OH275750   1.114   6.114   1.468 -0.2937  0.1213  0.4894
18112TIP3    H175751   1.184   6.086   1.527  0.0516 -1.6828 -0.6895
18112TIP3    H275752   1.045   6.146   1.526  0.2352 -1.0896  1.8563
18113TIP3   OH275753   0.514   4.531   4.046 -0.8753 -0.7581 -0.5722
18113TIP3    H175754   0.487   4.621   4.061  1.0119 -0.2418  0.0206
18113TIP3    H275755   0.503   4.488   4.131  0.2825 -0.4959 -0.2786
18114TIP3   OH275756   3.183   4.910  16.025 -0.3246 -0.4191 -0.0342
18114TIP3    H175757   3.142   4.979  16.077 -0.9376 -1.0780  0.3740
18114TIP3    H275758   3.276   4.919  16.043 -0.4327  0.0593  0.3115
18115TIP3   OH275759   5.629   5.547   3.148  0.0438 -0.0477  0.0181
18115TIP3    H175760   5.632   5.641   3.134  1.1417 -0.2648 -1.4428
18115TIP3    H275761   5.625   5.509   3.060 -2.6969 -1.3500  0.5993
18116TIP3   OH275762   4.338   5.521   3.278 -0.3317 -0.3351  0.0095
18116TIP3    H175763   4.390   5.446   3.307  1.1130  0.9912  0.9943
18116TIP3    H275764   4.398   5.572   3.224 -1.3413  0.0597 -0.7630
18117TIP3   OH275765   4.886   1.286   4.605 -0.4040  0.4651  0.2121
18117TIP3    H175766   4.874   1.206   4.655 -0.1163  1.3075  1.7106
18117TIP3    H275767   4.966   1.325   4.640  0.9112  0.1939 -2.2367
18118TIP3   OH275768   0.253   0.720  13.392  0.2063 -0.0060  0.0650
18118TIP3    H175769   0.253   0.627  13.369  2.0079  0.2700 -1.3231
18118TIP3    H275770   0.197   0.726  13.469  1.3808 -2.5292  1.2488
18119TIP3   OH275771   1.629   6.668  12.740  0.2203  0.3320  0.4297
18119TIP3    H175772   1.672   6.642  12.659  0.1688  0.8107  0.2429
18119TIP3    H275773   1.652   6.761  12.750 -1.2934  0.7689 -0.0061
18120TIP3   OH275774   3.000   0.758   1.118 -0.4167  0.5608  0.3166
18120TIP3    H175775   2.973   0.807   1.040  2.1332  1.5905 -0.0125
18120TIP3    H275776   3.034   0.675   1.084  0.4706  0.9094  0.3367
18121TIP3   OH275777   3.088   6.184  16.754  0.6833  0.3497  0.1266
18121TIP3    H175778   3.182   6.200  16.748  1.0521 -1.0828  1.5696
18121TIP3    H275779   3.080   6.090  16.771 -0.9238  0.6916  1.5302
18122TIP3   OH275780   0.645   1.106  13.723  0.2920  0.7000 -0.2353
18122TIP3    H175781   0.557   1.142  13.732  0.2313  0.6422 -0.5845
18122TIP3    H275782   0.689   1.166  13.662  0.1547  0.1135 -0.9129
18123TIP3   OH275783   3.433   3.875  16.482 -0.4776  0.6748  0.3958
18123TIP3    H175784   3.393   3.911  16.404  0.0276  0.9767  0.2699
18123TIP3    H275785   3.470   3.791  16.454 -1.0792  0.3555  0.5336
18124TIP3   OH275786   3.779   2.207   5.010  0.0801  0.0049 -0.1766
18124TIP3    H175787   3.842   2.266   5.052 -0.8321  0.0818  1.1510
18124TIP3    H275788   3.832   2.132   4.982  1.0008  0.7390 -0.4748
18125TIP3   OH275789   1.125   5.222   2.115 -0.1712  0.3583  0.4912
18125TIP3    H175790   1.170   5.139   2.130 -0.8011  0.2156  1.7449
18125TIP3    H275791   1.055   5.202   2.053  0.8191  0.3722 -0.6753
18126TIP3   OH275792   2.002   2.117   0.966 -0.1658 -0.2579  0.0444
18126TIP3    H175793   1.977   2.024   0.971 -1.0357 -0.1140 -1.1816
18126TIP3    H275794   2.088   2.116   0.924  0.2623 -0.5507  0.9032
18127TIP3   OH275795   5.046   2.642  17.158 -0.7554  0.1788  0.6883
18127TIP3    H175796   5.106   2.704  17.199  0.3857  0.4360 -1.2417
18127TIP3    H275797   5.081   2.556  17.180 -0.0068  0.3173  0.0701
18128TIP3   OH275798   3.319   1.244  10.551  0.4443  0.3812 -0.1765
18128TIP3    H175799   3.414   1.246  10.536  0.2293  0.6962 -1.6245
18128TIP3    H275800   3.293   1.336  10.551  0.4568  0.4762  2.7509
18129TIP3   OH275801   4.698   3.652  11.690 -0.7474 -0.1089  0.5896
18129TIP3    H175802   4.758   3.683  11.622 -2.3296 -0.9641 -1.3036
18129TIP3    H275803   4.709   3.715  11.761  0.6236  1.1368 -0.6276
18130TIP3   OH275804   1.659   0.697  16.928 -0.0649 -0.1770  0.1619
18130TIP3    H175805   1.614   0.615  16.905  2.2824 -1.2087 -1.1309
18130TIP3    H275806   1.599   0.741  16.988 -2.6110 -1.5788 -1.1605
18131TIP3   OH275807   5.200   1.198   2.018  0.0015  0.0367 -0.0991
18131TIP3    H175808   5.248   1.280   2.011  0.7170 -0.4338 -0.8132
18131TIP3    H275809   5.216   1.153   1.935 -0.6273 -0.6994  0.1612
18132TIP3   OH275810   4.635   3.679   3.946  0.2429 -0.1074  0.6474
18132TIP3    H175811   4.541   3.659   3.948  0.4423 -1.1724  0.4475
18132TIP3    H275812   4.663   3.653   3.858  0.7445  0.0754  0.7501
18133TIP3   OH275813   0.570   0.497   4.272  0.2207  0.0850  0.0891
18133TIP3    H175814   0.605   0.409   4.275 -0.4980 -0.2155 -0.0975
18133TIP3    H275815   0.625   0.543   4.208 -0.3118 -0.6476 -0.9267
18134TIP3   OH275816   2.423   0.846  16.379  0.1353 -0.2427  0.2839
18134TIP3    H175817   2.373   0.869  16.458  0.9040 -1.2702  1.0963
18134TIP3    H275818   2.460   0.760  16.398  0.6164 -0.3571 -1.0777
18135TIP3   OH275819   5.212   6.737   3.414  0.6930  0.3096  0.2494
18135TIP3    H175820   5.206   6.641   3.415  3.0422  0.0758  2.5453
18135TIP3    H275821   5.234   6.758   3.323 -1.5798 -1.0928 -0.7150
18136TIP3   OH275822   0.103   5.623  11.654 -0.2112  0.4553  0.0230
18136TIP3    H175823   0.173   5.612  11.718 -0.1717 -0.8872 -0.2203
18136TIP3    H275824   0.022   5.614  11.705 -0.2078  1.0270  0.1395
18137TIP3   OH275825   0.468   2.034  16.068 -0.0075 -0.3750 -0.2123
18137TIP3    H175826   0.436   2.054  15.980  0.3288  2.3132  0.1954
18137TIP3    H275827   0.562   2.020  16.057 -0.0166 -0.3525 -0.3207
18138TIP3   OH275828   6.107   1.434   3.421 -0.5930  0.0788  0.1472
18138TIP3    H175829   6.078   1.402   3.506 -1.5302  0.1297 -0.1343
18138TIP3    H275830   6.197   1.404   3.413 -0.5961 -0.1912  1.0240
18139TIP3   OH275831   5.576   2.701  14.251 -0.1539 -0.1451 -0.1019
18139TIP3    H175832   5.653   2.758  14.242 -0.5372  0.2537 -0.9527
18139TIP3    H275833   5.605   2.630  14.309  0.5484  0.5288  0.3851
18140TIP3   OH275834   2.920   1.729   4.632 -0.3876 -0.3265  0.6658
18140TIP3    H175835   2.998   1.676   4.648  0.4034  0.3622 -0.7815
18140TIP3    H275836   2.943   1.786   4.558 -2.8637 -1.4278 -1.1133
18141TIP3   OH275837   4.836   2.497   0.125 -0.0057 -0.2374 -0.5357
18141TIP3    H175838   4.841   2.534   0.214  1.0490 -0.7267 -0.3760
18141TIP3    H275839   4.792   2.564   0.074 -1.1440 -0.1748  0.4763
18142TIP3   OH275840   3.042   5.609  13.644  0.0137  0.2207  0.1931
18142TIP3    H175841   3.073   5.550  13.713  1.9900 -0.4672 -1.1950
18142TIP3    H275842   3.030   5.693  13.689  0.0376 -0.4984  1.6128
18143TIP3   OH275843   1.950   3.213  15.646 -0.1215 -0.4927  0.1712
18143TIP3    H175844   1.993   3.130  15.669 -1.5917 -0.8298  1.9579
18143TIP3    H275845   1.880   3.188  15.586  0.4889 -0.2770 -0.6600
18144TIP3   OH275846   5.356   1.697   2.127 -0.0827 -0.0767 -0.4769
18144TIP3    H175847   5.426   1.725   2.068  0.8600 -0.6089  0.3526
18144TIP3    H275848   5.357   1.762   2.197 -1.0344  0.4162 -0.8937
18145TIP3   OH275849   4.378   0.535   2.948  0.2587 -0.0062 -0.4869
18145TIP3    H175850   4.331   0.453   2.932 -0.4203  0.3334 -0.2450
18145TIP3    H275851   4.396   0.533   3.042  0.8515 -0.1955 -0.6007
18146TIP3   OH275852   3.288   1.335  11.796  0.0530 -0.1015  0.0074
18146TIP3    H175853   3.234   1.287  11.733  0.7644  0.6091 -1.1709
18146TIP3    H275854   3.247   1.317  11.881 -2.3644  0.8490 -0.8849
18147TIP3   OH275855   4.680   6.523   1.164  0.1279 -0.2948  0.5040
18147TIP3    H175856   4.770   6.545   1.139  0.0384  2.1675  2.0088
18147TIP3    H275857   4.626   6.591   1.125 -1.1841 -1.9323 -0.6591
18148TIP3   OH275858   3.626   5.823  12.694 -0.4254  0.5519 -0.1142
18148TIP3    H175859   3.544   5.866  12.718 -1.4511 -1.5901  0.4738
18148TIP3    H275860   3.628   5.743  12.748  2.1589  0.6289  0.0573
18149TIP3   OH275861   3.728   2.296  13.148 -0.1436 -0.2033  0.4419
18149TIP3    H175862   3.751   2.323  13.059 -0.9075 -0.2357  0.2308
18149TIP3    H275863   3.635   2.316  13.156 -0.2894 -1.0260  0.9303
18150TIP3   OH275864   1.099   5.752  13.451  0.4185  0.0623 -0.1221
18150TIP3    H175865   1.160   5.683  13.426 -1.4713 -1.6974 -0.0804
18150TIP3    H275866   1.064   5.784  13.368  0.3072  0.0526 -0.0785
18151TIP3   OH275867   1.037   2.079   2.688 -0.1839 -0.4252  0.0646
18151TIP3    H175868   0.955   2.099   2.643 -1.3409 -3.7884  0.4386
18151TIP3    H275869   1.100   2.062   2.617 -0.3488  0.1542 -0.2282
18152TIP3   OH275870   6.397   1.154   2.963  0.5213  0.2077 -0.0480
18152TIP3    H175871   6.380   1.080   2.904 -0.8117  0.8115 -0.4438
18152TIP3    H275872   6.486   1.182   2.940  0.4889 -0.3564 -0.9048
18153TIP3   OH275873   6.617   4.198  15.760  0.2880 -0.1502 -0.0314
18153TIP3    H175874   6.709   4.197  15.734  0.7013 -1.8717  1.3188
18153TIP3    H275875   6.569   4.185  15.678  1.0160  3.3203 -1.1793
18154TIP3   OH275876   5.111   5.766   1.628 -0.1954  0.2497 -0.3621
18154TIP3    H175877   5.185   5.735   1.575 -0.2338  1.5521 -1.2378
18154TIP3    H275878   5.147   5.775   1.716 -0.2587 -2.4172  0.0203
18155TIP3   OH275879   3.550   4.965  15.090  0.1676  0.1954  0.3836
18155TIP3    H175880   3.474   4.914  15.117  1.5075 -1.7651  0.6482
18155TIP3    H275881   3.585   5.001  15.171  1.0268 -1.1586  0.6589
18156TIP3   OH275882   4.782   5.814   3.936  0.6328 -0.1039 -0.1610
18156TIP3    H175883   4.724   5.881   3.901  1.9900  1.9474  1.2639
18156TIP3    H275884   4.723   5.745   3.967 -0.8982  0.9708 -0.5458
18157TIP3   OH275885   5.086   0.616  14.077  0.1678 -0.1592  0.0421
18157TIP3    H175886   5.003   0.638  14.035 -0.0702 -0.0613  0.5591
18157TIP3    H275887   5.120   0.700  14.108 -1.2507 -0.5474  2.9644
18158TIP3   OH275888   1.810   2.421  11.724  0.8776  0.6270 -0.4881
18158TIP3    H175889   1.819   2.329  11.697  0.1790  0.6780 -0.9256
18158TIP3    H275890   1.898   2.446  11.752  1.3125  0.1277 -1.3541
18159TIP3   OH275891   1.492   3.506   6.525  0.2653 -0.0024 -0.2454
18159TIP3    H175892   1.566   3.517   6.466 -0.4754  0.1892 -1.1638
18159TIP3    H275893   1.416   3.496   6.468 -0.2061 -2.0473  0.6491
18160TIP3   OH275894   6.505   4.155  11.806  0.5139  0.4492  0.0514
18160TIP3    H175895   6.514   4.160  11.901  2.2230  0.7333 -0.0850
18160TIP3    H275896   6.455   4.076  11.790  1.3396 -0.3285  1.1613
18161TIP3   OH275897   0.486   3.256  14.866  0.5750  0.0260  0.5035
18161TIP3    H175898   0.578   3.250  14.894  1.2894 -0.2398 -1.6461
18161TIP3    H275899   0.466   3.350  14.871  1.4698  0.2863 -0.3411
18162TIP3   OH275900   5.309   5.727  11.672 -0.5696 -0.4484 -0.1487
18162TIP3    H175901   5.334   5.810  11.712  1.7416 -0.7162 -0.8765
18162TIP3    H275902   5.231   5.700  11.720  0.6255  0.4320  2.5074
18163TIP3   OH275903   0.278   6.685   4.915 -0.1443 -0.6468  0.0455
18163TIP3    H175904   0.257   6.712   4.825  0.1666 -1.1263 -0.1744
18163TIP3    H275905   0.328   6.604   4.905 -0.0031 -0.6399  0.6491
18164TIP3   OH275906   4.750   3.471  14.590 -0.3758 -0.1130  0.8895
18164TIP3    H175907   4.824   3.488  14.533 -1.4936 -0.2302 -0.6502
18164TIP3    H275908   4.790   3.438  14.671  1.2693  0.6207  0.4234
18165TIP3   OH275909   4.234   2.425   1.549 -0.1597  0.1044 -0.1856
18165TIP3    H175910   4.304   2.390   1.493  0.6527 -0.1248  0.9469
18165TIP3    H275911   4.254   2.392   1.636 -1.0653  0.9651  0.3695
18166TIP3   OH275912   2.407   5.337   4.032  0.2388  0.0918  0.1216
18166TIP3    H175913   2.490   5.292   4.018  0.5300  0.8486 -0.6447
18166TIP3    H275914   2.360   5.282   4.095  1.1624 -0.5328  0.2751
18167TIP3   OH275915   6.259   5.964   1.665  0.3372 -0.8059  0.2060
18167TIP3    H175916   6.221   5.880   1.691  0.5285 -1.1179 -0.4958
18167TIP3    H275917   6.330   5.941   1.605  0.7181 -0.1639  0.3985
18168TIP3   OH275918   5.067   3.139  10.759  0.1252  0.1552  0.1362
18168TIP3    H175919   5.162   3.151  10.755 -0.0604  1.9762  0.5710
18168TIP3    H275920   5.034   3.183  10.681 -0.4797  1.1443  0.9253
18169TIP3   OH275921   3.745   2.476   1.924 -0.3188  0.4036  0.3601
18169TIP3    H175922   3.660   2.519   1.922 -0.5035  0.0446  0.4538
18169TIP3    H275923   3.795   2.523   1.990 -0.3333  0.8217  0.0769
18170TIP3   OH275924   3.155   2.445   6.513 -0.3607  0.7828 -0.2978
18170TIP3    H175925   3.244   2.479   6.520  0.0467 -0.4564  1.1201
18170TIP3    H275926   3.153   2.370   6.573 -1.6215 -0.8114 -2.2141
18171TIP3   OH275927   2.153   5.324   0.981 -0.2682 -0.1079 -0.2707
18171TIP3    H175928   2.088   5.383   1.017  0.6976  0.5350  0.4728
18171TIP3    H275929   2.142   5.242   1.030 -0.0192  0.2486  0.3933
18172TIP3   OH275930   2.677   3.413   0.934  0.2880  0.3264 -1.0336
18172TIP3    H175931   2.743   3.460   0.986  0.8437  0.6933 -2.0238
18172TIP3    H275932   2.709   3.323   0.930 -0.2356  0.0896  0.0104
18173TIP3   OH275933   6.071   0.586  11.589 -0.4705  0.4588  0.3083
18173TIP3    H175934   6.145   0.646  11.584  0.7623 -1.1124 -1.4777
18173TIP3    H275935   5.996   0.637  11.558  0.1769  1.5995  0.5941
18174TIP3   OH275936   4.263   1.821  16.664 -0.4585 -0.2833 -0.8842
18174TIP3    H175937   4.172   1.835  16.636 -0.2263  2.1634 -0.6533
18174TIP3    H275938   4.260   1.828  16.759  0.0720  0.8508 -0.9302
18175TIP3   OH275939   0.934   1.251   3.574  0.3155 -0.3831 -0.3699
18175TIP3    H175940   0.993   1.265   3.648  0.1596 -1.1760 -0.0935
18175TIP3    H275941   0.847   1.268   3.609  0.3316  0.4150 -0.6839
18176TIP3   OH275942   5.716   6.089  15.835  0.0418  0.0640  0.6875
18176TIP3    H175943   5.630   6.129  15.821  1.6057  3.0683 -1.4810
18176TIP3    H275944   5.731   6.037  15.756 -0.3252 -1.6513  1.7120
18177TIP3   OH275945   4.647   4.617   4.449  0.4874 -0.3975  0.0680
18177TIP3    H175946   4.662   4.680   4.378  0.7106 -1.1924 -0.5948
18177TIP3    H275947   4.676   4.663   4.528  0.2482  0.4914 -0.3513
18178TIP3   OH275948   2.950   1.002  15.496  0.0024  0.0123 -0.1460
18178TIP3    H175949   2.941   0.939  15.424  0.4469 -0.2627  0.0325
18178TIP3    H275950   2.912   1.083  15.462 -3.1058 -1.0153  0.5289
18179TIP3   OH275951   6.448   5.742   4.705  0.3863 -0.0224 -0.0130
18179TIP3    H175952   6.540   5.767   4.698  0.7038 -1.3023 -0.8849
18179TIP3    H275953   6.400   5.822   4.687  1.2648  1.2587  2.7971
18180TIP3   OH275954   1.170   5.552   4.719 -0.3723  0.0915  0.5114
18180TIP3    H175955   1.106   5.501   4.670 -0.8240 -0.7559  1.9107
18180TIP3    H275956   1.234   5.579   4.654 -2.3867  1.4213 -1.0244
18181TIP3   OH275957   1.483   0.809  16.675 -0.4438 -0.6248  0.8813
18181TIP3    H175958   1.557   0.749  16.673  0.4029  0.4016  0.1575
18181TIP3    H275959   1.522   0.896  16.666 -1.8086 -0.1351 -1.0037
18182TIP3   OH275960   2.342   4.904  11.078  0.2688 -0.1372  0.0919
18182TIP3    H175961   2.391   4.877  11.000 -1.9229 -1.0652 -1.0383
18182TIP3    H275962   2.273   4.961  11.044 -0.0493  0.3631  1.5106
18183TIP3   OH275963   3.024   0.903   0.339  0.7283  0.0020  0.0409
18183TIP3    H175964   3.042   0.970   0.404  0.8743 -0.9737  1.0408
18183TIP3    H275965   3.035   0.820   0.386  4.1416 -0.9011 -1.9670
18184TIP3   OH275966   4.123   2.730  11.916  0.9358 -0.1626  0.0917
18184TIP3    H175967   4.148   2.822  11.918 -1.1607  0.5173 -1.1729
18184TIP3    H275968   4.174   2.689  11.986  1.2513  2.1357  1.2899
18185TIP3   OH275969   3.898   0.158   5.183  0.1244  0.1476 -0.0244
18185TIP3    H175970   3.990   0.176   5.164 -0.4039  1.2740 -1.6873
18185TIP3    H275971   3.885   0.194   5.271  1.2251  0.0835  0.1892
18186TIP3   OH275972   1.576   6.612   2.406  0.1266  0.5145 -0.1617
18186TIP3    H175973   1.538   6.550   2.343  0.0686 -0.0318  0.4071
18186TIP3    H275974   1.665   6.581   2.421 -0.1551  0.1221  0.7118
18187TIP3   OH275975   4.284   6.750  13.805  0.4579 -0.0364 -0.4977
18187TIP3    H175976   4.228   6.816  13.845  1.8605 -0.6706  2.8590
18187TIP3    H275977   4.279   6.768  13.711 -0.6552  3.6337  0.0973
18188TIP3   OH275978   1.678   6.018   2.475  0.0187  0.3345 -0.1009
18188TIP3    H175979   1.635   6.056   2.398 -0.9092  0.0754  0.2836
18188TIP3    H275980   1.626   6.048   2.549 -0.9201 -1.8419  0.2165
18189TIP3   OH275981   3.258   3.864   4.651 -0.0993 -0.2852 -0.0382
18189TIP3    H175982   3.244   3.919   4.574 -1.4794 -0.4880  0.0464
18189TIP3    H275983   3.346   3.888   4.682 -0.5643  1.7216 -0.1226
18190TIP3   OH275984   4.456   6.108  16.470  0.3377  0.1213  0.1597
18190TIP3    H175985   4.440   6.202  16.467  0.9416  0.2150 -0.3471
18190TIP3    H275986   4.370   6.068  16.457  0.2754  0.6050 -1.0338
18191TIP3   OH275987   2.048   6.306  12.498 -0.5000 -0.5750  0.3982
18191TIP3    H175988   2.123   6.357  12.467  0.3836 -1.1997  1.4420
18191TIP3    H275989   2.061   6.219  12.460  0.7930 -1.4611  2.6310
18192TIP3   OH275990   6.696   1.336  16.449 -0.1485 -0.6724  0.2734
18192TIP3    H175991   6.639   1.382  16.388 -1.0241 -0.2761  1.3556
18192TIP3    H275992   6.646   1.331  16.530  1.3381 -0.3425  1.2643
18193TIP3   OH275993   6.233   5.916   0.134 -0.3511 -0.1893  0.1263
18193TIP3    H175994   6.157   5.929   0.077 -1.4867  2.9562  2.0935
18193TIP3    H275995   6.297   5.980   0.105  0.3074 -0.6756  0.4670
18194TIP3   OH275996   1.117   4.367   4.994 -0.4780  0.3996 -0.2059
18194TIP3    H175997   1.061   4.444   4.984  0.7223  1.5326  1.3640
18194TIP3    H275998   1.139   4.364   5.087  1.2525 -0.5862 -0.5952
18195TIP3   OH275999   5.282   3.248   4.788  0.7304 -0.1827 -0.0061
18195TIP3    H176000   5.268   3.160   4.752  1.3705 -0.3927  0.2500
18195TIP3    H276001   5.286   3.236   4.882 -1.0240  0.3826  0.1910
18196TIP3   OH276002   0.724   0.576   5.799  0.1258 -0.2316 -0.2999
18196TIP3    H176003   0.733   0.572   5.895 -0.0801 -1.9309 -0.3143
18196TIP3    H276004   0.633   0.602   5.785  0.6635  1.9442 -0.0768
18197TIP3   OH276005   5.497   3.021  12.694  0.1112 -0.5755 -0.1527
18197TIP3    H176006   5.585   2.985  12.684  0.2416 -0.0633 -0.9229
18197TIP3    H276007   5.448   2.986  12.620 -0.9405 -2.5426  1.3630
18198TIP3   OH276008   6.742   5.037  12.369 -0.3683  0.1194  0.1681
18198TIP3    H176009   6.823   5.055  12.320 -1.2933  1.4724 -0.9247
18198TIP3    H276010   6.672   5.060  12.309 -1.6248 -1.8349  0.8010
18199TIP3   OH276011   3.773   1.801   5.847 -0.0213 -0.2229  0.2798
18199TIP3    H176012   3.822   1.720   5.856  0.5780 -0.1214 -1.6469
18199TIP3    H276013   3.835   1.863   5.808  0.0659  1.7377  3.1967
18200TIP3   OH276014   5.725   2.200  14.885 -0.0447  0.7433  0.4465
18200TIP3    H176015   5.779   2.241  14.818 -1.1771  0.5781 -0.6081
18200TIP3    H276016   5.750   2.243  14.966  1.8419  0.4873  0.0574
18201TIP3   OH276017   1.341   2.448   1.290 -0.1573 -0.7323 -0.4978
18201TIP3    H176018   1.268   2.393   1.317 -0.9760  0.1323 -0.8865
18201TIP3    H276019   1.301   2.517   1.237  0.7043  0.7370  0.6680
18202TIP3   OH276020   1.778   4.883   1.542  0.3177 -0.3851 -0.2043
18202TIP3    H176021   1.695   4.924   1.564  0.1602 -0.2426 -1.0253
18202TIP3    H276022   1.833   4.893   1.620  0.7791  2.6080 -0.8180
18203TIP3   OH276023   5.812   2.302  13.560  0.3346  0.0766 -0.6249
18203TIP3    H176024   5.754   2.378  13.554  1.1601  0.7583 -0.2418
18203TIP3    H276025   5.897   2.338  13.587  0.7861 -0.9638 -0.5780
18204TIP3   OH276026   1.357   5.190   6.257  0.5418 -0.2701  0.7815
18204TIP3    H176027   1.370   5.245   6.179 -0.2599  0.4783  1.1549
18204TIP3    H276028   1.444   5.181   6.295  0.5893  1.5102  1.1931
18205TIP3   OH276029   2.265   3.064  16.142 -0.2516  0.2560  1.1006
18205TIP3    H176030   2.218   3.021  16.070 -0.5275  1.0554  0.7894
18205TIP3    H276031   2.336   3.004  16.164  1.2083  0.9148 -1.3279
18206TIP3   OH276032   0.524   2.902   0.984  0.4166  0.4055 -0.4540
18206TIP3    H176033   0.512   2.814   0.949 -0.3401  0.5047 -0.4588
18206TIP3    H276034   0.586   2.944   0.925  0.9221 -0.1871 -0.3440
18207TIP3   OH276035   2.080   1.840   0.670 -0.1971  0.1882 -0.3800
18207TIP3    H176036   2.030   1.759   0.671  0.1759 -0.0392 -0.2678
18207TIP3    H276037   2.163   1.817   0.629 -0.3607  0.6715 -1.0199
18208TIP3   OH276038   2.909   6.598   1.945 -0.1790  0.3004  0.0360
18208TIP3    H176039   2.859   6.628   2.021 -1.0116 -1.0556  0.0533
18208TIP3    H276040   2.858   6.526   1.909  1.2251 -0.4342 -0.5902
18209TIP3   OH276041   0.260   3.632   4.976  0.1134  0.7115 -0.1382
18209TIP3    H176042   0.268   3.645   4.882 -1.7851  0.8035 -0.3326
18209TIP3    H276043   0.196   3.562   4.986  0.1420  0.8259  1.0900
18210TIP3   OH276044   4.289   5.569  10.613 -0.5695 -0.0204 -0.4359
18210TIP3    H176045   4.201   5.530  10.609 -0.8015  0.4376  0.1268
18210TIP3    H276046   4.345   5.505  10.569 -1.3209  0.0753 -1.5821
18211TIP3   OH276047   5.806   2.147  16.918 -0.2223  0.0908  0.1189
18211TIP3    H176048   5.716   2.115  16.915 -1.1662  2.4129  1.3527
18211TIP3    H276049   5.848   2.097  16.988 -1.6982  1.5420  2.1237
18212TIP3   OH276050   6.529   1.463  15.347 -0.1991 -0.4470 -0.3404
18212TIP3    H176051   6.577   1.485  15.267 -0.8669  0.1355 -0.5954
18212TIP3    H276052   6.574   1.512  15.416 -0.2297 -0.1546 -0.5248
18213TIP3   OH276053   2.654   3.143   3.798  0.1029  0.3149 -0.2864
18213TIP3    H176054   2.709   3.200   3.852  0.2609 -0.4501  0.3949
18213TIP3    H276055   2.716   3.100   3.738  0.1457  0.0571 -0.0626
18214TIP3   OH276056   1.187   1.221   0.546 -0.0600 -0.2044 -0.4509
18214TIP3    H176057   1.247   1.295   0.542  0.2046 -0.2855  1.3266
18214TIP3    H276058   1.146   1.219   0.459 -1.1273  2.8778 -0.1527
18215TIP3   OH276059   3.535   5.531   0.388 -0.2573  0.5457  0.2444
18215TIP3    H176060   3.443   5.545   0.410  0.0154 -0.4095  2.2419
18215TIP3    H276061   3.534   5.454   0.330 -0.7907  1.4450 -0.9870
18216TIP3   OH276062   3.702   3.013   1.021 -0.0194 -0.1090  0.2373
18216TIP3    H176063   3.736   2.956   0.952  1.7154 -0.5386  1.3623
18216TIP3    H276064   3.719   3.102   0.989 -0.6647 -0.2605 -0.5488
18217TIP3   OH276065   2.300   2.770   0.947  0.5296  0.6090  0.1915
18217TIP3    H176066   2.228   2.723   0.989  0.3025  0.6856 -0.1166
18217TIP3    H276067   2.326   2.714   0.874 -0.1661  1.2583 -0.5711
18218TIP3   OH276068   2.200   0.847  16.010 -0.0461  0.3303  0.4121
18218TIP3    H176069   2.191   0.770  16.066  0.5487  0.0102  0.0847
18218TIP3    H276070   2.119   0.850  15.960  0.8136 -1.4470 -1.2277
18219TIP3   OH276071   0.365   5.641  11.820 -0.2614 -0.0032 -0.0529
18219TIP3    H176072   0.446   5.658  11.868 -0.0283 -0.8423 -0.1294
18219TIP3    H276073   0.300   5.624  11.888  0.0128 -0.9498 -0.0106
18220TIP3   OH276074   5.933   0.752   1.002 -0.3940  0.2148  0.3784
18220TIP3    H176075   6.013   0.803   1.019 -0.4552  0.5042 -0.1699
18220TIP3    H276076   5.935   0.735   0.908 -1.8854  1.8031  0.0055
18221TIP3   OH276077   0.297   3.947  12.248  0.1226  0.4977  0.0601
18221TIP3    H176078   0.205   3.967  12.229  0.0313 -0.2610 -0.3314
18221TIP3    H276079   0.293   3.873  12.307  0.4803  0.8045  0.4707
18222TIP3   OH276080   1.726   4.898   1.853  0.3724 -0.0584 -0.0957
18222TIP3    H176081   1.819   4.914   1.871  0.1677 -0.6311  1.6317
18222TIP3    H276082   1.696   4.979   1.813  0.9776  1.2956  1.9880
18223TIP3   OH276083   1.025   1.609   1.009  0.3436 -0.4786  0.7153
18223TIP3    H176084   1.091   1.640   1.072 -0.1774  1.5836  0.3151
18223TIP3    H276085   1.000   1.688   0.960 -2.6460 -1.1013  1.0695
18224TIP3   OH276086   3.554   0.699   4.130  0.1573  0.4805  0.3922
18224TIP3    H176087   3.626   0.761   4.120  0.4330  0.2086  0.6522
18224TIP3    H276088   3.478   0.753   4.150  0.5666  0.6964  1.4613
18225TIP3   OH276089   1.839   1.199  11.215 -0.4312 -0.1165 -0.7053
18225TIP3    H176090   1.902   1.144  11.261 -0.5510  0.8067  0.6181
18225TIP3    H276091   1.879   1.215  11.129 -0.3053 -2.0513 -1.0382
18226TIP3   OH276092   1.552   6.760  15.531 -0.3899  0.2078 -0.3841
18226TIP3    H176093   1.593   6.833  15.576 -0.4506  1.4762 -2.2691
18226TIP3    H276094   1.545   6.691  15.597  2.8620  0.6356  0.5489
18227TIP3   OH276095   2.804   4.195  15.967  0.0319  0.0832 -0.0471
18227TIP3    H176096   2.713   4.164  15.957 -0.6464  1.9148  0.0791
18227TIP3    H276097   2.820   4.193  16.061  0.2292 -0.4814 -0.0871
18228TIP3   OH276098   5.906   2.314   2.767  0.3055  0.6520  0.1299
18228TIP3    H176099   5.886   2.239   2.823  1.0900 -0.4547 -0.9975
18228TIP3    H276100   5.826   2.329   2.717  0.3832  0.0442 -0.1902
18229TIP3   OH276101   6.531   2.359  14.457  0.4666 -0.0553 -0.6602
18229TIP3    H176102   6.553   2.442  14.417 -0.5912  0.7808  0.4069
18229TIP3    H276103   6.446   2.374  14.500  1.5353 -0.8010  1.9385
18230TIP3   OH276104   0.755   2.576  16.185  0.1989 -0.2976  0.3145
18230TIP3    H176105   0.739   2.669  16.201  0.1268 -0.6385  2.5935
18230TIP3    H276106   0.669   2.536  16.187  0.1449 -0.3352 -1.5456
18231TIP3   OH276107   2.469   6.224  10.788  0.3249  0.7040  0.0492
18231TIP3    H176108   2.404   6.274  10.836 -0.8102  0.6516 -1.3828
18231TIP3    H276109   2.424   6.195  10.709  1.3809 -1.3463  0.1317
18232TIP3   OH276110   0.915   2.435   3.706  0.3617  0.3249 -0.3381
18232TIP3    H176111   0.867   2.421   3.788 -0.3434  0.1564 -0.7702
18232TIP3    H276112   0.922   2.531   3.699  0.0128  0.3516 -0.3179
18233TIP3   OH276113   3.876   3.661  15.939 -0.1846  0.1455  0.2642
18233TIP3    H176114   3.869   3.571  15.972 -2.7460 -0.3146 -1.2639
18233TIP3    H276115   3.886   3.715  16.018 -2.0579 -1.2183  1.5262
18234TIP3   OH276116   6.660   5.069   2.496  0.1926 -0.1866  0.2093
18234TIP3    H176117   6.663   4.975   2.515  3.1693  0.0151  1.2984
18234TIP3    H276118   6.692   5.076   2.406 -1.1833 -0.2364 -0.3136
18235TIP3   OH276119   0.623   3.165   0.681  0.2849 -0.0993  0.1201
18235TIP3    H176120   0.641   3.229   0.749 -0.1767  0.9872 -0.7572
18235TIP3    H276121   0.706   3.155   0.634  0.8156 -1.4140  1.2645
18236TIP3   OH276122   5.369   4.626  15.229  0.0243 -0.4810 -0.5183
18236TIP3    H176123   5.426   4.637  15.153  0.3895 -0.1151 -0.1958
18236TIP3    H276124   5.326   4.541  15.215  0.7622 -0.8305 -0.6929
18237TIP3   OH276125   4.353   4.775  16.476  0.0171  0.2808  0.5131
18237TIP3    H176126   4.372   4.713  16.406  1.4404  0.0572  1.0640
18237TIP3    H276127   4.437   4.814  16.497 -0.4918  0.8038  1.6670
18238TIP3   OH276128   0.291   5.902  16.588  0.0820  0.1656  0.1112
18238TIP3    H176129   0.267   5.813  16.615 -0.2053  0.1919 -0.0503
18238TIP3    H276130   0.359   5.889  16.522 -0.9700  0.0019 -0.9803
18239TIP3   OH276131   5.470   1.306   3.674  0.4709 -0.0411  0.5742
18239TIP3    H176132   5.448   1.332   3.585 -1.4203 -2.6293  0.1640
18239TIP3    H276133   5.563   1.329   3.684  1.1825 -1.0695 -2.6188
18240TIP3   OH276134   1.708   0.045   5.627 -0.4698  0.1238 -0.3321
18240TIP3    H176135   1.638   0.079   5.683 -0.3532 -1.4186  0.8300
18240TIP3    H276136   1.730   0.118   5.569 -0.4998  1.8802  1.7184
18241TIP3   OH276137   4.406   0.623  13.797 -0.0032  0.0899  0.1375
18241TIP3    H176138   4.429   0.644  13.888 -1.0206  0.9856  0.2121
18241TIP3    H276139   4.337   0.557  13.805  2.9256 -3.2712 -0.0912
18242TIP3   OH276140   1.770   6.197  15.275  0.0383  0.1002 -0.2612
18242TIP3    H176141   1.828   6.224  15.204  0.4585 -1.0623 -0.3646
18242TIP3    H276142   1.776   6.102  15.277  0.7301  0.1599  1.9297
18243TIP3   OH276143   2.201   4.520   3.824 -0.1159 -0.3379 -0.1074
18243TIP3    H176144   2.234   4.586   3.885 -0.3517  0.3705 -0.7248
18243TIP3    H276145   2.231   4.549   3.738 -0.8872 -0.6065 -0.4810
18244TIP3   OH276146   5.637   3.122   4.082 -0.2814 -0.4052  0.2108
18244TIP3    H176147   5.627   3.193   4.146  0.4408 -0.7037  0.6631
18244TIP3    H276148   5.641   3.167   3.998 -0.4589  0.0449  0.4341
18245TIP3   OH276149   4.552   4.052   3.436 -0.0529 -0.3407 -0.1014
18245TIP3    H176150   4.510   4.056   3.350  0.8231  1.5365 -0.4718
18245TIP3    H276151   4.479   4.056   3.498 -0.6322 -0.7985 -0.7417
18246TIP3   OH276152   2.844   4.607   1.099  0.0663 -0.1738 -0.3796
18246TIP3    H176153   2.894   4.687   1.083  1.4254 -0.8064  0.4952
18246TIP3    H276154   2.825   4.610   1.193  1.3852 -1.5137 -0.0236
18247TIP3   OH276155   4.069   3.968   4.421  0.2633 -0.4988 -0.4495
18247TIP3    H176156   4.147   3.914   4.411  1.1053  0.6509 -0.2872
18247TIP3    H276157   3.997   3.912   4.390  0.9352 -2.0788  0.6943
18248TIP3   OH276158   2.061   5.824  15.243 -0.0178 -0.3460 -0.4508
18248TIP3    H176159   2.137   5.880  15.228  0.1898 -0.3494  0.5667
18248TIP3    H276160   2.050   5.823  15.338 -0.4963 -1.3886 -0.5091
18249TIP3   OH276161   5.111   0.670   6.049 -0.0605 -0.5414  0.2319
18249TIP3    H176162   5.094   0.685   6.142 -0.1746  0.7610  0.0207
18249TIP3    H276163   5.028   0.692   6.007  0.4257  0.3482 -0.2963
18250TIP3   OH276164   2.922   6.186  17.014  0.1957  0.2057  0.0562
18250TIP3    H176165   2.983   6.255  16.990 -0.6072  0.5913 -0.9616
18250TIP3    H276166   2.922   6.127  16.939 -0.0584 -0.2309  0.3970
18251TIP3   OH276167   0.475   4.970  14.779  0.0453  0.0344 -0.4114
18251TIP3    H176168   0.395   4.918  14.772  0.5491 -0.7741 -0.3076
18251TIP3    H276169   0.546   4.907  14.769  0.6884  0.5471  0.6782
18252TIP3   OH276170   0.430   2.415   0.038 -0.4872 -0.1047 -0.4991
18252TIP3    H176171   0.426   2.390  -0.054  1.3115 -0.0007 -0.6354
18252TIP3    H276172   0.458   2.335   0.084 -1.8396 -0.2963  0.0553
18253TIP3   OH276173   2.750   4.782  11.895  0.8723 -0.3560 -0.4420
18253TIP3    H176174   2.770   4.694  11.928  3.1927  0.5939  0.9425
18253TIP3    H276175   2.655   4.786  11.893  0.7075 -2.7216 -0.0826
18254TIP3   OH276176   3.311   3.042   0.606 -0.1746  0.4506 -0.4806
18254TIP3    H176177   3.398   3.003   0.613 -0.2891 -0.3093 -2.6374
18254TIP3    H276178   3.254   2.984   0.656  0.2908  0.0794 -0.3766
18255TIP3   OH276179   4.736   3.918  10.826 -0.4125  0.0733  0.1875
18255TIP3    H176180   4.730   3.873  10.911 -0.6609 -2.2461 -0.9763
18255TIP3    H276181   4.822   3.893  10.792 -0.3837  0.8488 -0.3327
18256TIP3   OH276182   6.095   6.580  16.095 -0.2309  0.3969  0.2875
18256TIP3    H176183   6.179   6.585  16.142  0.3034 -2.6608 -0.1570
18256TIP3    H276184   6.118   6.596  16.004  0.0088 -1.0132  0.0834
18257TIP3   OH276185   5.952   2.323   4.011 -0.3584 -0.4122  0.0493
18257TIP3    H176186   5.946   2.371   3.929 -1.2645 -0.4228  0.0963
18257TIP3    H276187   5.911   2.380   4.076 -0.8753 -0.9725  0.2280
18258TIP3   OH276188   3.396   5.607   2.875 -0.6522  0.1992  0.2657
18258TIP3    H176189   3.431   5.616   2.787 -1.1612  0.8049  0.1182
18258TIP3    H276190   3.336   5.533   2.869  2.9827 -3.1843  1.3065
18259TIP3   OH276191   3.665   4.791   6.121 -0.7329  0.5335  0.2577
18259TIP3    H176192   3.703   4.711   6.085 -0.1211  1.1534 -0.5203
18259TIP3    H276193   3.720   4.861   6.085 -0.5557  1.2299  1.8279
18260TIP3   OH276194   2.128   2.394   0.952 -0.0837  0.2705 -0.9736
18260TIP3    H176195   2.081   2.316   0.921 -1.0092 -0.1250  1.2126
18260TIP3    H276196   2.071   2.467   0.928 -1.3012 -0.1102  0.5750
18261TIP3   OH276197   1.619   4.994   4.663  0.3258 -0.1388 -0.7005
18261TIP3    H176198   1.602   5.088   4.670 -0.3446 -0.3126  0.0490
18261TIP3    H276199   1.535   4.952   4.680  1.3178 -1.0075  3.1197
18262TIP3   OH276200   4.564   4.086  15.003 -0.6957  0.0818 -0.1518
18262TIP3    H176201   4.546   4.038  14.922 -0.2382 -1.3016  0.5336
18262TIP3    H276202   4.638   4.142  14.982 -1.0359  0.2686 -0.8834
18263TIP3   OH276203   2.754   2.174   2.665 -0.1420 -0.0619 -0.7299
18263TIP3    H176204   2.766   2.200   2.756 -1.2187 -0.7873 -0.3602
18263TIP3    H276205   2.784   2.083   2.662 -0.3598 -0.1253 -1.0378
18264TIP3   OH276206   6.394   5.673   0.469 -0.1649  0.4273  0.2669
18264TIP3    H176207   6.371   5.619   0.393 -0.9654  0.2384  0.6250
18264TIP3    H276208   6.428   5.754   0.432 -2.8804  1.3737 -0.3851
18265TIP3   OH276209   0.242   1.526  14.546  0.2142  0.2652 -0.1877
18265TIP3    H176210   0.167   1.500  14.493 -0.3483  2.9979 -0.8763
18265TIP3    H276211   0.209   1.594  14.604  2.1746  1.7808 -0.7259
18266TIP3   OH276212   2.417   2.562   3.593  0.6291 -0.0286 -0.1406
18266TIP3    H176213   2.401   2.536   3.684 -0.5419 -1.0097 -0.5941
18266TIP3    H276214   2.392   2.486   3.541 -1.5185  1.4471 -1.4445
18267TIP3   OH276215   3.255   0.564  13.978  0.3929 -0.2797  0.4963
18267TIP3    H176216   3.342   0.524  13.971 -0.1217 -1.2272 -1.0091
18267TIP3    H276217   3.221   0.532  14.061  0.9712 -1.0191  0.4629
18268TIP3   OH276218   4.651   1.282   4.936  0.0902  0.4894 -0.0755
18268TIP3    H176219   4.559   1.257   4.934  0.1299  0.3174  0.2169
18268TIP3    H276220   4.665   1.315   5.025 -0.0939  2.0679 -0.5983
18269TIP3   OH276221   1.612   3.297   3.195 -0.4124 -0.0400  0.0601
18269TIP3    H176222   1.524   3.262   3.181  0.3035 -1.5601 -0.9587
18269TIP3    H276223   1.650   3.303   3.107  0.5878  0.3320  0.5008
18270TIP3   OH276224   4.767   1.628   1.218 -0.1056 -0.2291 -0.3897
18270TIP3    H176225   4.823   1.705   1.206 -1.8206  0.7009 -3.7196
18270TIP3    H276226   4.715   1.648   1.296  1.4804  0.6054  0.5041
18271TIP3   OH276227   1.825   2.515  12.239  1.0242 -0.4589 -0.1204
18271TIP3    H176228   1.762   2.444  12.230 -0.3412  0.7316 -0.2477
18271TIP3    H276229   1.858   2.508  12.329 -0.8184  0.1045  0.6354
18272TIP3   OH276230   5.936   6.023  14.362 -0.0424  0.5341  0.3190
18272TIP3    H176231   5.865   5.965  14.337  0.0106  0.0682  1.2173
18272TIP3    H276232   5.985   5.974  14.428  1.0330  0.9000 -0.1795
18273TIP3   OH276233   6.752   1.648   4.765 -0.1986  0.2716  0.3989
18273TIP3    H176234   6.760   1.742   4.748  0.3745  0.3017  0.8169
18273TIP3    H276235   6.677   1.641   4.824 -0.1349  0.4862  0.5082
18274TIP3   OH276236   3.753   4.766  10.748 -0.0938  0.1254 -0.3787
18274TIP3    H176237   3.810   4.767  10.671  0.2671 -1.3378 -0.1557
18274TIP3    H276238   3.691   4.837  10.733 -1.0618 -1.1252 -2.8425
18275TIP3   OH276239   2.282   0.286  15.079  1.0996  0.1763  0.3762
18275TIP3    H176240   2.350   0.322  15.022  1.3526 -2.4339 -1.1294
18275TIP3    H276241   2.296   0.191  15.077 -2.9403 -0.5972 -0.5200
18276TIP3   OH276242   1.735   4.768  13.192  0.3747 -0.3189  0.1124
18276TIP3    H176243   1.704   4.699  13.133 -0.5748 -0.3792  0.6601
18276TIP3    H276244   1.821   4.737  13.222 -0.8606 -2.3279  1.9408
18277TIP3   OH276245   2.983   5.421   3.200  0.0616  0.2084 -0.1993
18277TIP3    H176246   3.027   5.371   3.131  1.0648 -1.1467  1.3769
18277TIP3    H276247   3.048   5.430   3.269 -1.0047  1.3473  0.7018
18278TIP3   OH276248   1.421   4.766  17.205  0.4964  0.5166  0.3224
18278TIP3    H176249   1.352   4.830  17.188  0.0327 -0.1778 -0.5385
18278TIP3    H276250   1.375   4.692  17.245  0.4795 -0.4406 -1.3394
18279TIP3   OH276251   5.455   1.585   0.108 -0.5168 -0.9812  0.4084
18279TIP3    H176252   5.374   1.573   0.157 -1.5171 -0.0907 -0.9548
18279TIP3    H276253   5.431   1.567   0.018  0.8300 -0.7953 -0.0021
18280TIP3   OH276254   0.586   5.610   5.745 -0.1650  0.3464  0.0391
18280TIP3    H176255   0.632   5.630   5.827  0.6087 -0.4136 -0.1963
18280TIP3    H276256   0.652   5.626   5.677 -0.0347 -1.3219 -0.2672
18281TIP3   OH276257   0.009   1.322  13.751  0.4838 -0.1059 -0.0582
18281TIP3    H176258   0.036   1.378  13.678 -0.5103  1.7910  0.9626
18281TIP3    H276259  -0.021   1.241  13.709 -2.1322  1.7102 -2.0178
18282TIP3   OH276260   3.913   6.696   2.099  0.0847 -0.2605  0.2848
18282TIP3    H176261   3.833   6.644   2.098  0.5859 -1.3948 -4.5315
18282TIP3    H276262   3.982   6.635   2.124 -0.1330 -0.0885  1.3371
18283TIP3   OH276263   5.532   5.707  16.644  0.2492  0.1831  0.2871
18283TIP3    H176264   5.455   5.650  16.644  0.3572  0.0199 -0.3669
18283TIP3    H276265   5.604   5.649  16.619  0.8922 -0.0364  2.5075
18284TIP3   OH276266   1.566   2.251   1.568 -0.2444  0.9492  0.4877
18284TIP3    H176267   1.572   2.346   1.562  0.0880  0.8393 -1.7958
18284TIP3    H276268   1.657   2.221   1.572 -0.3574  0.7248  2.2830
18285TIP3   OH276269   2.727   4.215   3.157  0.6329 -0.3249 -0.6725
18285TIP3    H176270   2.772   4.139   3.195 -1.1068 -2.0533 -1.8622
18285TIP3    H276271   2.772   4.290   3.194  1.3232 -1.9076  1.9672
18286TIP3   OH276272   1.337   6.643   2.095 -0.5314 -0.1768 -0.0342
18286TIP3    H176273   1.407   6.697   2.057  0.0936 -1.0370 -0.1410
18286TIP3    H276274   1.378   6.558   2.110 -1.6280 -0.7765 -0.3317
18287TIP3   OH276275   3.308   4.070   5.806  0.0641 -0.3998 -0.0994
18287TIP3    H176276   3.293   4.002   5.872  0.3518  0.0879  0.4697
18287TIP3    H276277   3.400   4.094   5.816  0.1192 -0.3388 -0.6983
18288TIP3   OH276278   4.629   3.184  17.068  0.1153 -0.3891  0.3317
18288TIP3    H176279   4.597   3.186  16.978  0.7670 -0.9878  0.0764
18288TIP3    H276280   4.714   3.227  17.064 -0.6292  1.2047  1.0042
18289TIP3   OH276281   4.248   2.574   0.605 -0.2895 -0.4453 -0.2159
18289TIP3    H176282   4.267   2.638   0.674  0.3314 -0.5919 -0.2414
18289TIP3    H276283   4.296   2.606   0.529  0.8382 -1.4486  0.0445
18290TIP3   OH276284   2.249   4.200   0.223  0.0193 -0.2696  0.2757
18290TIP3    H176285   2.211   4.133   0.280  0.5450  0.3330  1.3721
18290TIP3    H276286   2.199   4.193   0.142 -0.0537 -1.8618  0.4228
18291TIP3   OH276287   1.793   1.894  17.036 -0.5601 -0.4866  0.1849
18291TIP3    H176288   1.859   1.962  17.027 -0.6403  0.0332  2.7821
18291TIP3    H276289   1.714   1.940  17.065 -1.2530 -1.4265 -0.1331
18292TIP3   OH276290   4.227   3.367   1.998  0.5410 -0.4684 -0.0216
18292TIP3    H176291   4.182   3.368   2.083  1.9771 -1.7351  0.8080
18292TIP3    H276292   4.248   3.458   1.980  1.7613 -0.3301  1.8825
18293TIP3   OH276293   6.349   2.536   1.109  0.5865  0.5111  0.1144
18293TIP3    H176294   6.281   2.597   1.079  0.0658 -0.5258 -0.8663
18293TIP3    H276295   6.401   2.518   1.031  1.5376  0.6847  0.6907
18294TIP3   OH276296   5.646   6.721   5.714  0.0868 -0.0675 -0.5482
18294TIP3    H176297   5.707   6.730   5.788  0.6638 -0.1817 -1.0028
18294TIP3    H276298   5.576   6.665   5.747  0.3844 -0.1850 -0.1123
18295TIP3   OH276299   0.091   1.082  11.332  0.0768 -0.4922  0.1483
18295TIP3    H176300   0.153   1.152  11.352 -2.0296  1.4216  0.4027
18295TIP3    H276301   0.109   1.059  11.241  3.3982 -2.5205  1.1498
18296TIP3   OH276302   2.580   5.210  17.033 -0.2261 -0.2514 -0.2718
18296TIP3    H176303   2.554   5.273  16.965  1.1955 -0.5161 -1.0937
18296TIP3    H276304   2.608   5.265  17.106  0.2491  0.0721 -0.6903
18297TIP3   OH276305   6.107   3.642  11.426 -0.4401  0.3083  0.1343
18297TIP3    H176306   6.045   3.657  11.354 -0.6261 -2.2392 -0.3263
18297TIP3    H276307   6.066   3.682  11.502 -1.2605  1.1877 -0.7503
18298TIP3   OH276308   1.953   1.482  13.496 -0.0016 -0.4930  0.1473
18298TIP3    H176309   1.929   1.569  13.463  0.5951 -0.4026 -0.0620
18298TIP3    H276310   1.882   1.459  13.556 -0.5219 -0.1628 -0.3211
18299TIP3   OH276311   4.702   3.835   4.429 -0.7429 -0.3553  0.6352
18299TIP3    H176312   4.789   3.799   4.446 -2.0660 -2.9938  2.5672
18299TIP3    H276313   4.648   3.804   4.502 -3.2110  1.6866 -0.1591
18300TIP3   OH276314   2.878   4.013   3.278 -0.4757  0.0258  0.4078
18300TIP3    H176315   2.918   3.973   3.200 -0.0506 -0.7692  1.0204
18300TIP3    H276316   2.950   4.054   3.324 -0.5813 -0.2645  0.8358
18301TIP3   OH276317   1.976   3.850  15.476  0.3260  0.2217 -0.1616
18301TIP3    H176318   1.998   3.821  15.564 -2.6966  1.0382  0.9933
18301TIP3    H276319   1.923   3.779  15.440 -1.5396  1.3596  0.1708
18302TIP3   OH276320   6.136   3.868  13.045 -0.3622  0.0321  0.5134
18302TIP3    H176321   6.184   3.950  13.054  0.8886 -0.7500  1.2717
18302TIP3    H276322   6.147   3.844  12.953 -0.4487  0.5383  0.3676
18303TIP3   OH276323   2.845   5.720   2.031  0.0255 -0.6896  0.0045
18303TIP3    H176324   2.811   5.715   1.941  0.2815 -1.2184 -0.0642
18303TIP3    H276325   2.797   5.653   2.078 -0.0254 -0.4885  0.2401
18304TIP3   OH276326   6.759   4.023   4.532  0.1454 -0.1204 -0.5778
18304TIP3    H176327   6.691   3.998   4.594 -1.3145  0.4898 -1.8798
18304TIP3    H276328   6.837   3.975   4.561 -0.2803  0.6556  2.1098
18305TIP3   OH276329   1.126   1.089  13.998 -0.4613 -0.4622  0.2657
18305TIP3    H176330   1.121   1.019  13.933 -1.1921 -1.6768  1.5626
18305TIP3    H276331   1.050   1.144  13.982  0.9123  1.0127 -1.7384
18306TIP3   OH276332   2.478   5.025   4.756  0.2912 -0.5807  0.4779
18306TIP3    H176333   2.501   5.117   4.747  0.5985 -0.7227 -0.2130
18306TIP3    H276334   2.398   5.025   4.808  0.4798  0.0555  0.7759
18307TIP3   OH276335   6.222   2.353  11.499 -0.0532 -0.0918 -0.3443
18307TIP3    H176336   6.267   2.431  11.531  0.7401 -0.7936  0.3056
18307TIP3    H276337   6.159   2.386  11.436  0.7356  1.0160 -0.5908
18308TIP3   OH276338   0.779   0.282   5.601 -0.1614  0.2475  0.4814
18308TIP3    H176339   0.829   0.207   5.568 -0.8766  0.3237 -0.8517
18308TIP3    H276340   0.746   0.253   5.686  0.7855 -0.3954  0.6568
18309TIP3   OH276341   6.209   0.662  14.982 -0.0757  0.5343  0.4769
18309TIP3    H176342   6.254   0.591  15.026  0.0162 -0.4191 -1.0915
18309TIP3    H276343   6.264   0.739  14.997  0.2166  0.1319  1.5364
18310TIP3   OH276344   4.028   4.868  15.638 -0.0355  0.2949 -0.0746
18310TIP3    H176345   4.063   4.949  15.602 -0.5805  0.0268 -1.2388
18310TIP3    H276346   4.090   4.845  15.708  2.6786 -0.5710 -2.5450
18311TIP3   OH276347   2.039   1.049  12.472  0.0601 -0.0604  0.1814
18311TIP3    H176348   2.023   1.097  12.390 -1.9831 -0.1080  0.4777
18311TIP3    H276349   1.999   0.963  12.457 -1.9621  0.5243  1.7820
18312TIP3   OH276350   6.670   6.281  13.425 -0.3412 -0.3111 -0.0921
18312TIP3    H176351   6.711   6.262  13.509 -0.1493 -0.6051 -0.2506
18312TIP3    H276352   6.599   6.342  13.446  0.6917  0.8691  0.0754
18313TIP3   OH276353   0.121   0.203  16.926 -0.1548  0.2066 -0.8578
18313TIP3    H176354   0.139   0.110  16.944 -1.0103  0.2233  0.1869
18313TIP3    H276355   0.140   0.213  16.833  1.1491 -0.7194 -0.7210
18314TIP3   OH276356   1.952   6.709   4.603  0.1850  0.2343 -0.2019
18314TIP3    H176357   1.887   6.678   4.667  1.5057 -0.8698  0.6647
18314TIP3    H276358   2.016   6.638   4.598  1.0691  1.0825 -1.4005
18315TIP3   OH276359   6.531   0.304   3.743  0.6672 -0.7511 -0.2584
18315TIP3    H176360   6.542   0.257   3.825  0.5682  0.7489  0.6374
18315TIP3    H276361   6.614   0.293   3.697  1.4464  0.0086  0.9111
18316TIP3   OH276362   0.484   2.774   4.813  0.3020 -0.2975  0.1223
18316TIP3    H176363   0.424   2.822   4.755  1.3104 -0.5855 -1.2244
18316TIP3    H276364   0.458   2.800   4.901 -0.9502  0.5875 -0.4704
18317TIP3   OH276365   5.528   0.795   0.853  0.0805 -0.1332 -0.5132
18317TIP3    H176366   5.470   0.739   0.906  0.7115 -1.0762 -0.8005
18317TIP3    H276367   5.587   0.836   0.917  0.5426 -0.9130 -0.4318
18318TIP3   OH276368   2.696   4.647  12.761  0.4021  0.7973  0.1391
18318TIP3    H176369   2.648   4.651  12.678  0.7988  0.3348 -0.1145
18318TIP3    H276370   2.649   4.708  12.818 -1.6692 -1.0014  0.5092
18319TIP3   OH276371   3.094   4.937   4.382 -0.2151  0.2901 -0.3688
18319TIP3    H176372   3.067   4.990   4.308  0.7736  1.2980 -0.0336
18319TIP3    H276373   3.034   4.961   4.453  0.0208  0.7195 -0.3133
18320TIP3   OH276374   5.946   5.495  14.922 -0.0249 -0.0693  0.2146
18320TIP3    H176375   5.959   5.572  14.978 -0.0031 -1.3707  2.1130
18320TIP3    H276376   5.867   5.454  14.956 -0.4219 -0.5257 -1.2167
18321TIP3   OH276377   3.205   0.924  14.139  0.0120 -0.4681 -0.6063
18321TIP3    H176378   3.256   0.850  14.174 -0.1649 -0.1731  0.3061
18321TIP3    H276379   3.121   0.918  14.184 -0.0422  0.2250 -0.6177
18322TIP3   OH276380   4.962   3.283  15.227 -0.1706 -0.0698 -0.2123
18322TIP3    H176381   4.992   3.335  15.152 -2.6127  1.2585 -0.3911
18322TIP3    H276382   4.942   3.197  15.190 -0.8184  0.4047 -1.0065
18323TIP3   OH276383   4.600   2.573  15.656 -0.0617 -0.1980 -1.2055
18323TIP3    H176384   4.652   2.493  15.652  1.0556  0.4180  0.1977
18323TIP3    H276385   4.664   2.643  15.668 -1.0617  0.8536 -1.7884
18324TIP3   OH276386   1.716   0.588   3.259  0.4054 -0.8833 -0.1588
18324TIP3    H176387   1.715   0.619   3.349  0.6140 -2.7238  0.5204
18324TIP3    H276388   1.780   0.644   3.215  1.0372 -0.6112  1.0801
18325TIP3   OH276389   2.915   1.852   1.937  0.3128 -0.3609  0.0612
18325TIP3    H176390   2.951   1.798   2.008  0.1901 -0.2534  0.2045
18325TIP3    H276391   2.915   1.941   1.972  3.2627  0.2680 -1.1482
18326TIP3   OH276392   4.193   5.623  15.691  0.1102  0.2873 -0.8144
18326TIP3    H176393   4.241   5.599  15.612  1.4378 -0.3715  0.1687
18326TIP3    H276394   4.178   5.540  15.737  0.6749  0.8177  0.3584
18327TIP3   OH276395   5.025   2.461   5.232 -0.2492 -0.2863  0.0422
18327TIP3    H176396   5.095   2.416   5.280 -1.0409 -1.0474  0.5183
18327TIP3    H276397   4.960   2.392   5.215  0.2512 -0.1709 -2.6641
18328TIP3   OH276398   4.891   3.606  13.133 -0.1145  0.1326 -1.0664
18328TIP3    H176399   4.947   3.684  13.138 -1.1349  0.8830 -1.0045
18328TIP3    H276400   4.907   3.560  13.215  1.4439 -0.4046 -1.6424
18329TIP3   OH276401   4.019   2.405  10.643 -0.9222  0.5915 -0.0906
18329TIP3    H176402   4.105   2.401  10.686 -0.7056  1.0749 -0.4698
18329TIP3    H276403   4.033   2.361  10.559 -0.9190  1.0825 -0.3515
18330TIP3   OH276404   3.519   0.757   6.214 -0.3492  0.1046 -0.0173
18330TIP3    H176405   3.589   0.786   6.155  0.4169  0.3374  0.9837
18330TIP3    H276406   3.565   0.720   6.289 -1.2403  2.1696  1.6360
18331TIP3   OH276407   5.850   2.686  14.994  0.3866 -0.1617 -0.4237
18331TIP3    H176408   5.931   2.737  14.995  0.1631  0.2348 -1.5102
18331TIP3    H276409   5.866   2.614  15.055  2.4734 -1.4498 -2.3086
18332TIP3   OH276410   1.680   6.461  11.864 -0.2700 -0.3993 -0.0487
18332TIP3    H176411   1.632   6.382  11.838  0.1481  0.1711 -2.9529
18332TIP3    H276412   1.689   6.511  11.783 -1.7136  3.3477  1.8672
18333TIP3   OH276413   4.180   2.368   4.258  0.2536  0.1777 -0.3290
18333TIP3    H176414   4.196   2.275   4.275  0.8354  0.3579  0.1586
18333TIP3    H276415   4.103   2.369   4.202 -0.5230 -0.5595  0.6757
18334TIP3   OH276416   4.115   1.752  13.449  0.2616 -0.3159 -0.9046
18334TIP3    H176417   4.048   1.687  13.469 -0.3164  1.3976  4.7182
18334TIP3    H276418   4.067   1.828  13.419 -0.0827 -0.0252  0.3176
18335TIP3   OH276419   0.531   5.972  15.520  0.4975 -0.0978 -0.1742
18335TIP3    H176420   0.536   5.904  15.452 -2.1907 -1.6972  1.0669
18335TIP3    H276421   0.440   5.970  15.549  0.9227  2.4331  1.6052
18336TIP3   OH276422   6.637   0.470   0.454 -0.0008  0.7105  0.2319
18336TIP3    H176423   6.686   0.547   0.428 -2.1236  1.1917 -2.8723
18336TIP3    H276424   6.688   0.396   0.421  0.3231  0.9931  0.1023
18337TIP3   OH276425   1.609   2.573   0.189  0.0350 -0.0640  0.0379
18337TIP3    H176426   1.557   2.650   0.168 -0.5137  0.0819  1.7565
18337TIP3    H276427   1.546   2.501   0.195  0.7424 -1.2148 -3.5834
18338TIP3   OH276428   5.285   6.228   0.545  0.2518  0.1937  0.0919
18338TIP3    H176429   5.289   6.139   0.510 -0.9899 -0.9369  2.5502
18338TIP3    H276430   5.201   6.263   0.515  0.2643  0.1312 -0.0136
18339TIP3   OH276431   4.178   6.045   3.647 -0.0241 -0.2796 -0.0017
18339TIP3    H176432   4.258   6.026   3.597  0.4324  0.8065  0.2968
18339TIP3    H276433   4.123   5.968   3.632  0.7856 -0.7374 -0.7900
18340TIP3   OH276434   0.545   2.003   4.720  0.2212  0.5585 -0.5006
18340TIP3    H176435   0.566   2.006   4.626  0.7254  0.9145 -0.3827
18340TIP3    H276436   0.538   2.095   4.746  2.5699  0.5841  0.3313
18341TIP3   OH276437   6.315   4.614   3.342  0.3342  0.2907  0.2718
18341TIP3    H176438   6.396   4.638   3.389 -0.1144 -0.8597  1.7500
18341TIP3    H276439   6.321   4.518   3.334  0.1128  0.4005 -1.5850
18342TIP3   OH276440   3.330   0.866  15.837  0.1850 -0.2051 -0.4166
18342TIP3    H176441   3.316   0.798  15.771 -2.0741 -1.4767  1.2345
18342TIP3    H276442   3.242   0.895  15.862  0.9913  1.0911  1.1905
18343TIP3   OH276443   1.101   4.631  17.022 -0.0273  0.2617 -0.1385
18343TIP3    H176444   1.031   4.692  16.996 -0.1346  0.6717  1.0742
18343TIP3    H276445   1.107   4.570  16.949 -2.4427 -0.4815  0.1900
18344TIP3   OH276446   0.199   6.109  12.278  0.0960  0.4024  0.0082
18344TIP3    H176447   0.284   6.093  12.319 -0.1430  0.8174  0.6867
18344TIP3    H276448   0.153   6.165  12.340 -2.1286 -2.7508  1.4535
18345TIP3   OH276449   4.040   5.677   5.750 -0.2265 -0.5058 -0.3385
18345TIP3    H176450   4.014   5.614   5.683 -2.9497 -1.3378  1.3624
18345TIP3    H276451   4.068   5.623   5.824  0.7451  0.3774 -0.0344
18346TIP3   OH276452   0.221   5.625   2.149  0.1532  0.0077 -0.4803
18346TIP3    H176453   0.249   5.672   2.071 -1.6550  0.5422 -0.8448
18346TIP3    H276454   0.290   5.561   2.164  0.3134 -0.4422 -2.7988
18347TIP3   OH276455   2.128   3.770   5.253 -0.4704  0.8687 -0.1546
18347TIP3    H176456   2.191   3.702   5.278 -0.7481 -0.5110 -2.8485
18347TIP3    H276457   2.068   3.776   5.327  1.1138  0.1170  1.2544
18348TIP3   OH276458   5.371   0.130   3.608  0.4434 -0.0640  0.0110
18348TIP3    H176459   5.338   0.053   3.562 -0.2067 -0.0826  0.4789
18348TIP3    H276460   5.422   0.094   3.680 -1.7267 -0.1721  1.6175
18349TIP3   OH276461   0.894   6.430  15.979 -0.1307 -0.1945 -0.4314
18349TIP3    H176462   0.896   6.496  15.909  1.7924 -1.7070 -1.8978
18349TIP3    H276463   0.980   6.388  15.976  0.3807  0.2277  3.4871
18350TIP3   OH276464   0.772   4.633   4.737 -0.5080  0.1301  0.5548
18350TIP3    H176465   0.800   4.577   4.665 -0.9028 -0.1912  0.6454
18350TIP3    H276466   0.840   4.623   4.803  0.0996  0.7964  0.0463
18351TIP3   OH276467   5.979   6.248  16.547 -0.0220 -0.3514 -0.3311
18351TIP3    H176468   6.047   6.300  16.590 -1.5029  1.7701 -0.3991
18351TIP3    H276469   5.998   6.158  16.572  1.6968  0.3694  1.1781
18352TIP3   OH276470   1.818   4.308  15.202 -0.4334  0.0425 -0.2352
18352TIP3    H176471   1.775   4.361  15.136 -1.1252 -1.3950 -0.9924
18352TIP3    H276472   1.905   4.346  15.211 -0.7547  1.0064 -1.0637
18353TIP3   OH276473   0.491   2.351  15.884  0.6253  0.2248 -0.1672
18353TIP3    H176474   0.582   2.356  15.855  1.1295 -2.3412  0.7403
18353TIP3    H276475   0.455   2.277  15.834 -0.0951 -0.6387  1.5682
18354TIP3   OH276476   0.122   6.157   5.662  0.2697 -0.0970 -0.1324
18354TIP3    H176477   0.196   6.127   5.611  0.2850 -0.1396 -0.0849
18354TIP3    H276478   0.081   6.077   5.695 -1.0838 -0.2203 -1.9425
18355TIP3   OH276479   0.532   3.277  15.230  0.2771 -0.2437  0.1877
18355TIP3    H176480   0.522   3.352  15.172  0.1167  0.2241  0.8056
18355TIP3    H276481   0.446   3.268  15.271  0.5738 -0.1595  0.8323
18356TIP3   OH276482   1.470   6.739  13.893  0.1225 -0.1820 -0.4376
18356TIP3    H176483   1.391   6.790  13.873 -0.3312 -0.5972  0.2527
18356TIP3    H276484   1.458   6.711  13.984  1.8158  1.0814  0.2162
18357TIP3   OH276485   3.499   2.938   2.347 -0.2039 -0.3195  0.4607
18357TIP3    H176486   3.472   2.864   2.292  0.1463 -0.4571  0.4754
18357TIP3    H276487   3.420   2.992   2.354 -0.1664 -0.1181 -0.4685
18358TIP3   OH276488   0.870   1.332   5.761 -0.3846  0.0728  0.4570
18358TIP3    H176489   0.938   1.269   5.739  0.9170  1.7153 -0.4724
18358TIP3    H276490   0.830   1.299   5.841  1.5051 -0.9478  1.0166
18359TIP3   OH276491   3.601   6.544  11.728 -0.4601 -0.1576  0.8418
18359TIP3    H176492   3.661   6.506  11.664  0.8995  0.5596  1.6318
18359TIP3    H276493   3.650   6.617  11.766 -2.0608  0.8161  1.1303
18360TIP3   OH276494   2.569   1.583   1.434  0.2293  0.1971 -0.3573
18360TIP3    H176495   2.528   1.587   1.520 -0.4171 -0.7420 -0.6063
18360TIP3    H276496   2.533   1.658   1.386 -1.3798 -0.7070 -0.6281
18361TIP3   OH276497   3.305   5.415   4.828  0.0149  0.0423  0.5485
18361TIP3    H176498   3.253   5.384   4.902  1.6016  1.0014  2.1309
18361TIP3    H276499   3.337   5.335   4.786  0.0877 -0.5148  1.6299
18362TIP3   OH276500   0.271   5.742   0.536  0.1107  0.5058  0.0502
18362TIP3    H176501   0.277   5.837   0.526 -1.8197  0.7935  1.0818
18362TIP3    H276502   0.265   5.728   0.630 -0.2168 -0.6051 -0.1188
18363TIP3   OH276503   5.116   1.477   6.665 -0.3128 -0.9719 -0.6322
18363TIP3    H176504   5.160   1.557   6.635  0.3183 -0.9537  0.2926
18363TIP3    H276505   5.137   1.412   6.598  0.2686 -0.6999 -0.7248
18364TIP3   OH276506   3.495   2.841  14.466 -0.4068 -0.3267 -0.0254
18364TIP3    H176507   3.484   2.828  14.371  1.4169  1.1404 -0.5062
18364TIP3    H276508   3.581   2.803  14.485 -1.0629 -1.2384  1.2153
18365TIP3   OH276509   5.073   0.007  14.985 -0.5495 -0.7787  0.1889
18365TIP3    H176510   5.147  -0.016  14.928 -0.2624  0.0869  0.1831
18365TIP3    H276511   5.023  -0.074  14.995  0.1166 -1.2490 -0.2361
18366TIP3   OH276512   0.895   4.226   5.465 -0.7272  0.3606 -0.1007
18366TIP3    H176513   0.857   4.149   5.422  1.0282 -0.3159 -0.5496
18366TIP3    H276514   0.877   4.213   5.558 -0.3593 -0.6752 -0.1622
18367TIP3   OH276515   5.082   5.194   2.238 -0.7002  0.3945 -0.6238
18367TIP3    H176516   5.059   5.279   2.278 -1.6226  0.8857 -2.1030
18367TIP3    H276517   5.118   5.217   2.152 -1.0681 -0.7100 -1.0935
18368TIP3   OH276518   1.963   1.843  13.215  0.3487 -0.7362  0.5323
18368TIP3    H176519   1.918   1.829  13.131 -0.9514 -2.4003  1.4474
18368TIP3    H276520   1.911   1.793  13.278  2.8668 -1.8315  1.8585
18369TIP3   OH276521   1.635   5.960  14.959  0.0853 -0.9981 -0.1699
18369TIP3    H176522   1.713   5.967  14.904  0.3669  1.4778  0.4391
18369TIP3    H276523   1.669   5.941  15.047 -0.1350 -1.6255 -0.2141
18370TIP3   OH276524   4.783   5.622  11.421  0.2083  0.1554  0.3096
18370TIP3    H176525   4.706   5.660  11.380  0.8264  1.2851  0.1721
18370TIP3    H276526   4.757   5.609  11.512 -0.8520 -1.5034 -0.1669
18371TIP3   OH276527   0.281   3.231  16.507  0.5936  0.5080  0.0728
18371TIP3    H176528   0.308   3.149  16.465  0.8967  0.6126  0.0603
18371TIP3    H276529   0.291   3.214  16.601 -0.3248  0.1894  0.1248
18372TIP3   OH276530   3.805   1.505   6.006  0.1911  0.0909 -0.2632
18372TIP3    H176531   3.709   1.507   6.006  0.0757 -2.2394 -1.7255
18372TIP3    H276532   3.830   1.544   5.922  0.4966 -0.1001 -0.2613
18373TIP3   OH276533   1.077   0.718  15.572  0.3294 -0.1956  0.1986
18373TIP3    H176534   1.083   0.658  15.646 -0.8775 -0.3069  0.2307
18373TIP3    H276535   1.086   0.662  15.495 -2.2887 -0.7331  0.1750
18374TIP3   OH276536   6.437   1.489   2.187 -0.2080 -0.4066 -0.0662
18374TIP3    H176537   6.458   1.457   2.275 -0.4853 -0.8976 -0.1748
18374TIP3    H276538   6.484   1.430   2.128  0.3980  0.2410 -0.2384
18375TIP3   OH276539   3.098   3.905  15.112 -0.0388 -0.4745  0.0078
18375TIP3    H176540   3.177   3.947  15.145  0.6503  1.7260 -3.7979
18375TIP3    H276541   3.036   3.909  15.184  1.4537  3.2344  1.2927
18376TIP3   OH276542   5.328   5.198  10.612  0.0493 -0.6670 -0.6235
18376TIP3    H176543   5.402   5.257  10.621 -0.8103  0.3909 -0.2616
18376TIP3    H276544   5.290   5.219  10.526  0.0230 -1.0305 -0.7033
18377TIP3   OH276545   5.228   1.461   2.451  0.1816 -0.6011 -0.2676
18377TIP3    H176546   5.157   1.512   2.490 -0.4065 -0.8160 -1.0127
18377TIP3    H276547   5.308   1.506   2.477 -0.2983  0.4559 -0.5514
18378TIP3   OH276548   3.811   5.566   4.599 -0.1782 -0.5172  0.1030
18378TIP3    H176549   3.725   5.523   4.600 -0.1270 -0.6260 -0.0277
18378TIP3    H276550   3.873   5.495   4.618 -0.1114 -0.4521  0.1306
18379TIP3   OH276551   3.230   1.800  12.885  0.1968  0.0789 -0.8320
18379TIP3    H176552   3.168   1.805  12.957 -0.2235 -1.3655 -1.0769
18379TIP3    H276553   3.316   1.810  12.927 -0.1090  0.7337 -0.3378
18380TIP3   OH276554   0.166   1.805   3.997  0.0739  0.1843 -0.4454
18380TIP3    H176555   0.183   1.803   4.091 -0.5301  3.6292 -0.1281
18380TIP3    H276556   0.083   1.760   3.986  0.0531 -0.0889  0.7226
18381TIP3   OH276557   4.327   5.952   4.211 -0.1683  0.3784 -0.1301
18381TIP3    H176558   4.362   6.033   4.247 -3.3196  1.6889  0.3782
18381TIP3    H276559   4.351   5.884   4.274  1.8470  0.9953 -0.1675
18382TIP3   OH276560   5.688   6.099   1.776 -0.2426 -0.0378  0.4116
18382TIP3    H176561   5.741   6.169   1.739 -0.8989 -0.2604 -0.9963
18382TIP3    H276562   5.613   6.144   1.816  1.5549  0.4019  3.6192
18383TIP3   OH276563   5.174   5.228  16.808  0.5667 -0.5799 -0.4938
18383TIP3    H176564   5.248   5.275  16.770 -0.2457 -0.6892 -2.3043
18383TIP3    H276565   5.196   5.221  16.901  2.2907  0.3700 -0.7772
18384TIP3   OH276566   1.393   6.021   4.733 -0.2069 -0.2261  0.2416
18384TIP3    H176567   1.438   6.054   4.811 -0.0397  0.0303  0.0365
18384TIP3    H276568   1.454   6.036   4.662 -0.7937  0.5336 -0.1108
18385TIP3   OH276569   3.185   0.366   4.703 -0.1120  0.7061  0.3676
18385TIP3    H176570   3.216   0.346   4.615  0.0447 -1.1520  0.8033
18385TIP3    H276571   3.095   0.334   4.705  0.5063 -1.1140  1.4354
18386TIP3   OH276572   1.038   3.261   4.653 -0.1285 -0.6119  0.0701
18386TIP3    H176573   1.124   3.235   4.686  0.4788  0.8090 -0.3010
18386TIP3    H276574   0.981   3.258   4.731  0.3903 -0.9846  0.4425
18387TIP3   OH276575   3.287   2.349   6.149 -0.5904 -0.2045  0.2495
18387TIP3    H176576   3.329   2.264   6.162 -2.8045 -1.4705 -0.3983
18387TIP3    H276577   3.213   2.349   6.210 -0.2210  1.5727  0.7388
18388TIP3   OH276578   5.527   5.307  13.564  0.3138  0.1068 -0.3632
18388TIP3    H176579   5.608   5.296  13.614  0.7516  1.2558 -0.7857
18388TIP3    H276580   5.487   5.220  13.565  0.0275  0.1871  2.4264
18389TIP3   OH276581   2.601   3.523  11.393  0.3825 -0.5046 -0.2654
18389TIP3    H176582   2.567   3.498  11.307 -1.8773 -1.9200  0.9294
18389TIP3    H276583   2.681   3.571  11.374 -0.9838  0.8889 -3.2403
18390TIP3   OH276584   4.424   0.407   5.250  0.2354  1.0678 -0.1722
18390TIP3    H176585   4.517   0.386   5.259 -0.0696  0.1012  0.9298
18390TIP3    H276586   4.404   0.464   5.324 -0.6094 -0.8291  1.1185
18391TIP3   OH276587   6.738   4.332   0.691  0.1967 -0.1449 -0.3858
18391TIP3    H176588   6.702   4.346   0.779 -1.4611 -1.2996 -0.8397
18391TIP3    H276589   6.812   4.273   0.705  0.3578  0.2142  0.3099
18392TIP3   OH276590   6.718   0.655   0.727 -0.4789 -0.0250 -0.5837
18392TIP3    H176591   6.811   0.632   0.728 -0.2028  0.9477  1.5106
18392TIP3    H276592   6.696   0.663   0.634  1.5954 -0.0134 -1.1230
18393TIP3   OH276593   6.562   3.267  16.137  0.2594  0.0966 -0.5773
18393TIP3    H176594   6.588   3.358  16.152 -0.3014 -0.1071  2.3158
18393TIP3    H276595   6.606   3.242  16.056  1.5215  2.5200 -0.7261
18394TIP3   OH276596   3.549   5.733  15.033 -0.1162  0.0795  0.0483
18394TIP3    H176597   3.611   5.669  14.998  1.0123  1.2807 -0.2728
18394TIP3    H276598   3.526   5.700  15.119 -1.0970 -1.7287 -0.8651
18395TIP3   OH276599   1.837   0.732   5.880  0.5123  0.4694  0.1263
18395TIP3    H176600   1.789   0.714   5.961  2.1271  1.7065  1.4201
18395TIP3    H276601   1.814   0.659   5.822 -2.0192  0.4409  1.0392
18396TIP3   OH276602   0.009   5.865  11.992  0.0138 -0.6478 -0.3247
18396TIP3    H176603  -0.039   5.866  11.909 -1.8810  0.1763  0.7314
18396TIP3    H276604   0.073   5.935  11.982  0.1711 -0.9001 -1.2736
18397TIP3   OH276605   4.832   2.026  16.765 -0.0752 -0.5532  0.0556
18397TIP3    H176606   4.788   1.962  16.821  0.1202 -0.9074 -0.1899
18397TIP3    H276607   4.921   2.031  16.800 -0.6882  1.3366  1.5506
18398TIP3   OH276608   5.824   0.910  15.412 -0.3023 -0.5289 -0.2659
18398TIP3    H176609   5.730   0.905  15.430 -0.4414  1.6763 -0.0876
18398TIP3    H276610   5.830   0.948  15.325  0.4297 -1.3950 -0.6014
18399TIP3   OH276611   6.124   5.144   1.237 -0.1493 -0.0043  0.0240
18399TIP3    H176612   6.146   5.165   1.328 -0.6026 -1.9979  0.6362
18399TIP3    H276613   6.199   5.174   1.187  1.5688 -1.6689  1.4370
18400TIP3   OH276614   6.638   5.636   1.109  0.3911  0.1546 -0.2695
18400TIP3    H176615   6.699   5.708   1.090  4.3498 -3.0564 -1.0302
18400TIP3    H276616   6.684   5.582   1.173 -1.8660 -2.2935 -0.5600
18401TIP3   OH276617   5.739   4.397   2.337 -0.2430  0.0311 -0.1901
18401TIP3    H176618   5.822   4.352   2.352  0.1465  0.8296  0.1183
18401TIP3    H276619   5.723   4.445   2.419  0.8179  2.7342 -1.4401
18402TIP3   OH276620   4.966   2.545  10.812 -0.0606 -0.3754 -0.3491
18402TIP3    H176621   4.876   2.533  10.783 -0.2969  0.0739  0.1846
18402TIP3    H276622   4.960   2.608  10.884  0.7618  0.3502 -0.8834
18403TIP3   OH276623   2.932   4.105  13.218 -0.0165  0.0045 -0.6048
18403TIP3    H176624   2.967   4.038  13.160 -1.0749 -0.0035 -1.2671
18403TIP3    H276625   2.929   4.064  13.304  3.1406  0.5552 -0.1229
18404TIP3   OH276626   5.712   5.371   3.464 -0.6369  0.2193  0.0408
18404TIP3    H176627   5.746   5.368   3.375  0.9061  1.2151  0.5580
18404TIP3    H276628   5.715   5.463   3.488  0.9282 -0.2303  1.8161
18405TIP3   OH276629   5.086   0.493   1.972 -0.2246  0.8839  0.2534
18405TIP3    H176630   5.131   0.408   1.977 -1.6212 -0.0645 -1.7349
18405TIP3    H276631   4.997   0.474   2.002 -0.0315  2.1511  1.7137
18406TIP3   OH276632   3.389   5.050   4.143 -0.3919  0.4495  0.0775
18406TIP3    H176633   3.322   4.998   4.098 -0.5325 -0.3055  1.1235
18406TIP3    H276634   3.438   5.093   4.072 -0.3501 -1.0090 -0.8185
18407TIP3   OH276635   1.688   5.780  14.043 -0.2999  0.0507  0.3655
18407TIP3    H176636   1.749   5.759  14.115  0.4984  1.2483  0.0551
18407TIP3    H276637   1.738   5.763  13.964 -0.3026  1.1947  0.1065
18408TIP3   OH276638   3.007   4.279  14.893  0.1166 -0.5093  0.6754
18408TIP3    H176639   2.988   4.297  14.985 -0.0526  1.0054  0.3817
18408TIP3    H276640   3.101   4.294  14.885  0.1455 -0.7210  0.6237
18409TIP3   OH276641   5.973   3.361  16.221  0.1364 -0.3644 -0.1450
18409TIP3    H176642   6.004   3.346  16.131  0.0826  0.8946 -0.3959
18409TIP3    H276643   6.051   3.391  16.268 -0.3245  1.4478 -0.4326
18410TIP3   OH276644   2.828   4.770  11.437 -0.0328 -0.5155  0.1696
18410TIP3    H176645   2.827   4.861  11.467 -0.1109 -0.4430 -0.0495
18410TIP3    H276646   2.857   4.720  11.513  1.3758 -0.1611 -0.0961
18411TIP3   OH276647   4.495   0.150   1.536  0.1634 -0.1423 -0.3293
18411TIP3    H176648   4.544   0.221   1.496 -2.5445  2.0726 -0.0190
18411TIP3    H276649   4.484   0.086   1.466  1.1095  0.5763 -1.1602
18412TIP3   OH276650   0.348   0.275  16.063 -0.1389  0.1175 -0.6712
18412TIP3    H176651   0.291   0.333  16.114  0.5351 -0.0471  0.2925
18412TIP3    H276652   0.288   0.227  16.006 -0.8252  0.9395 -0.6680
18413TIP3   OH276653   4.813   5.259  13.287 -0.4288 -0.0007  0.2775
18413TIP3    H176654   4.767   5.297  13.213  0.1555  0.7789  0.3040
18413TIP3    H276655   4.891   5.314  13.298  0.4672 -1.2256  0.2911
18414TIP3   OH276656   4.471   4.470  13.988  0.2084  0.1764  0.0113
18414TIP3    H176657   4.411   4.464  13.914  0.3286  0.5771 -0.1235
18414TIP3    H276658   4.432   4.535  14.046  2.5744  3.8463 -2.1108
18415TIP3   OH276659   5.771   3.739   5.282 -0.1765 -0.2922 -0.4684
18415TIP3    H176660   5.679   3.733   5.258 -0.1319  0.3528 -0.8165
18415TIP3    H276661   5.813   3.779   5.207  0.1082  0.9532  0.3269
18416TIP3   OH276662   0.847   4.056   2.297  0.5106  0.0586 -0.2381
18416TIP3    H176663   0.928   4.005   2.300  1.2061  0.9840  4.1823
18416TIP3    H276664   0.781   3.996   2.332  0.5316  0.8964  1.3257
18417TIP3   OH276665   5.272   3.585   2.240 -0.2966  0.0940 -0.0499
18417TIP3    H176666   5.278   3.500   2.196  0.5935 -0.9565  1.9686
18417TIP3    H276667   5.310   3.570   2.327  0.8821  2.8363  0.0175
18418TIP3   OH276668   5.093   5.340  15.336  0.1142 -0.7801 -0.4301
18418TIP3    H176669   5.024   5.380  15.282 -0.7269 -2.2646 -0.4954
18418TIP3    H276670   5.046   5.299  15.409  0.9400 -1.6915 -0.3947
18419TIP3   OH276671   4.882   0.123   5.757 -0.1102  0.3353  0.2241
18419TIP3    H176672   4.953   0.139   5.695 -0.9523 -1.9809 -1.5089
18419TIP3    H276673   4.803   0.119   5.703 -1.3715  1.2306  1.8881
18420TIP3   OH276674   0.908   3.866  12.909 -0.1465 -0.0042  0.2556
18420TIP3    H176675   0.830   3.917  12.930 -0.0362  0.2355  0.0907
18420TIP3    H276676   0.980   3.915  12.949 -0.0426 -0.0487  0.1234
18421TIP3   OH276677   6.778   0.327  15.319  0.2534 -0.7279 -0.2361
18421TIP3    H176678   6.748   0.373  15.241 -0.0781  3.0562  1.8640
18421TIP3    H276679   6.871   0.350  15.325  0.0793 -0.2098  0.8589
18422TIP3   OH276680   3.278   1.681   2.761 -0.3323  0.0925 -0.1949
18422TIP3    H176681   3.343   1.669   2.691  1.1896 -1.1597  1.3332
18422TIP3    H276682   3.215   1.610   2.748 -0.5105  0.3518 -0.7601
18423TIP3   OH276683   6.201   3.866   3.933 -0.3926  0.0338  0.1603
18423TIP3    H176684   6.215   3.924   3.858  0.4505  0.1674  0.4107
18423TIP3    H276685   6.257   3.902   4.002 -1.3992  0.1048  0.9692
18424TIP3   OH276686   3.785   1.997  16.854  0.1386  0.0474  0.1187
18424TIP3    H176687   3.695   1.972  16.832 -0.3986  1.2804  0.8512
18424TIP3    H276688   3.837   1.965  16.780 -0.7187 -1.7231  0.2280
18425TIP3   OH276689   2.242   1.480   1.669  0.5758 -0.6109 -0.2884
18425TIP3    H176690   2.252   1.426   1.748  0.3912  1.0711  0.9330
18425TIP3    H276691   2.182   1.430   1.614  0.2202 -1.5495  0.8938
18426TIP3   OH276692   2.878   5.560  12.558  0.0928 -0.0243  0.1760
18426TIP3    H176693   2.915   5.524  12.478  2.0685 -0.4336  1.2022
18426TIP3    H276694   2.801   5.609  12.530  2.1093  1.9422 -2.2711
18427TIP3   OH276695   2.332   6.554  14.180  0.1277  0.3569  0.7435
18427TIP3    H176696   2.291   6.480  14.224  0.1777 -1.6033 -2.1847
18427TIP3    H276697   2.410   6.516  14.139  0.1059  2.0006 -0.9123
18428TIP3   OH276698   0.041   2.802   0.275  0.3929 -0.9461 -0.0008
18428TIP3    H176699  -0.040   2.853   0.282  1.0534  0.2321 -0.6950
18428TIP3    H276700   0.105   2.863   0.240  1.7274 -1.7326  0.9849
18429TIP3   OH276701   4.965   3.438   3.264  0.5412 -0.1920 -0.1395
18429TIP3    H176702   4.944   3.518   3.313 -2.6212 -0.2917 -1.1012
18429TIP3    H276703   4.912   3.370   3.305  3.2156 -1.9577  0.6971
18430TIP3   OH276704   0.856   2.151  12.287 -0.3616 -0.2610  0.1660
18430TIP3    H176705   0.851   2.056  12.280 -0.1736 -0.1869 -1.7604
18430TIP3    H276706   0.920   2.176  12.219  1.1806  1.1028  2.0135
18431TIP3   OH276707   2.809   1.629  12.081 -0.4957  0.6751 -0.4136
18431TIP3    H176708   2.754   1.662  12.152  0.3510  1.2618 -0.0236
18431TIP3    H276709   2.868   1.567  12.123  1.0663  2.1748 -0.2818
18432TIP3   OH276710   1.894   6.394   1.392  0.0316 -0.3927  0.4064
18432TIP3    H176711   1.901   6.327   1.324  0.2836 -1.4332  1.4459
18432TIP3    H276712   1.984   6.424   1.404 -0.0284 -0.1297  0.2236
18433TIP3   OH276713   0.724   2.049  15.942  0.6420 -0.0948 -0.5743
18433TIP3    H176714   0.662   2.044  15.870  0.8713  1.3665 -0.8983
18433TIP3    H276715   0.792   2.110  15.912  1.9398 -1.1938 -0.0089
18434TIP3   OH276716   5.499   1.647  15.138 -0.4887 -0.0244 -0.1425
18434TIP3    H176717   5.592   1.659  15.155 -1.1238  0.2790  4.0881
18434TIP3    H276718   5.480   1.709  15.067  2.0520  1.8206  0.6554
18435TIP3   OH276719   5.210   0.865  14.146  0.3166  0.1367 -0.2237
18435TIP3    H176720   5.177   0.938  14.093 -1.1724  0.9099  1.6373
18435TIP3    H276721   5.284   0.902  14.193  0.9540 -0.2301 -0.9213
18436TIP3   OH276722   3.982   3.096   6.308 -0.3278  0.3066  0.0954
18436TIP3    H176723   3.999   3.186   6.337 -1.0553  0.5898 -0.3218
18436TIP3    H276724   3.992   3.099   6.213  2.0971 -0.6266  0.2596
18437TIP3   OH276725   1.956   5.750   5.598  0.1942 -0.1657  0.5011
18437TIP3    H176726   1.993   5.666   5.623  0.2894  0.7451  3.7770
18437TIP3    H276727   2.029   5.812   5.603  0.1157  0.2040 -1.8066
18438TIP3   OH276728   3.559   0.177   0.444  0.0132 -0.2977  0.2563
18438TIP3    H176729   3.596   0.247   0.390  1.4889 -0.1777  1.3404
18438TIP3    H276730   3.579   0.097   0.396  1.5441 -0.2166  0.6881
18439TIP3   OH276731   4.084   4.487   5.944 -0.2668  0.4164 -0.0975
18439TIP3    H176732   4.177   4.510   5.935 -0.2657  0.4784  0.0773
18439TIP3    H276733   4.043   4.525   5.866 -0.2845  1.1149  0.2426
18440TIP3   OH276734   1.273   4.878   2.441 -0.1679  0.6380 -0.0344
18440TIP3    H176735   1.254   4.903   2.531  1.2514  2.8530 -0.2968
18440TIP3    H276736   1.240   4.788   2.434 -3.5772  1.5919  1.6117
18441TIP3   OH276737   2.443   6.167   2.918  0.0758  0.7365 -0.2041
18441TIP3    H176738   2.508   6.116   2.966  0.7526  1.4184 -0.3778
18441TIP3    H276739   2.456   6.257   2.948  0.6961  1.2210 -1.8210
18442TIP3   OH276740   5.432   5.775  13.156  0.2694  0.1463 -0.3830
18442TIP3    H176741   5.497   5.709  13.133  2.0465  1.7261 -0.2106
18442TIP3    H276742   5.463   5.812  13.239 -1.8616 -0.2413  0.6624
18443TIP3   OH276743   1.833   0.340  11.917  0.0121  0.5997  0.4542
18443TIP3    H176744   1.738   0.337  11.928 -0.0391  2.1715  0.7862
18443TIP3    H276745   1.857   0.252  11.888 -1.5693  0.2365  0.1217
18444TIP3   OH276746   1.837   4.012   5.275 -0.2159  0.0806 -0.6798
18444TIP3    H176747   1.899   3.945   5.305 -0.4656 -0.9241 -2.3154
18444TIP3    H276748   1.891   4.088   5.256  0.3972 -0.4591 -1.1310
18445TIP3   OH276749   6.049   0.260  14.618 -0.1461  0.2317  0.2322
18445TIP3    H176750   6.024   0.170  14.598  0.0180  0.1256  0.5079
18445TIP3    H276751   5.966   0.308  14.616 -0.3963 -0.1418  1.2673
18446TIP3   OH276752   6.541   2.643  14.300 -0.1898  0.4685  0.2967
18446TIP3    H176753   6.553   2.619  14.208 -0.2083 -0.8055  0.6093
18446TIP3    H276754   6.621   2.689  14.324  0.7701 -1.0795  0.2082
18447TIP3   OH276755   0.201   6.356   0.594  0.4554 -0.1020 -0.2598
18447TIP3    H176756   0.221   6.318   0.680  0.3243  2.7960  1.1573
18447TIP3    H276757   0.286   6.380   0.558  0.4964 -1.1514 -0.8907
18448TIP3   OH276758   0.040   3.184  12.816  0.3717  1.0212  0.1076
18448TIP3    H176759   0.035   3.247  12.888  0.4928  1.0093  0.1279
18448TIP3    H276760   0.065   3.237  12.740 -1.6900  1.3788 -0.3835
18449TIP3   OH276761   6.314   3.248  12.697 -0.0492  0.2750 -0.3157
18449TIP3    H176762   6.255   3.284  12.630 -0.0919  0.6983 -0.0550
18449TIP3    H276763   6.363   3.324  12.728 -0.2556  0.1302  0.3661
18450TIP3   OH276764   5.707   2.169   5.844 -0.1467 -0.2072  0.3414
18450TIP3    H176765   5.754   2.120   5.912 -0.3714 -2.2948 -0.9089
18450TIP3    H276766   5.646   2.105   5.806 -0.4304  1.0285 -1.4261
18451TIP3   OH276767   5.482   6.332   5.990 -0.8286  0.2256  0.4247
18451TIP3    H176768   5.538   6.399   6.029 -0.5800 -0.7607  1.8563
18451TIP3    H276769   5.399   6.377   5.972 -0.1692  1.2687 -0.0773
18452TIP3   OH276770   5.047   1.495  16.971 -0.6903 -0.3968  0.4418
18452TIP3    H176771   4.982   1.502  16.900 -0.8777  1.9759  0.7729
18452TIP3    H276772   5.121   1.547  16.941 -0.3162 -0.2928  1.5024
18453TIP3   OH276773   4.421   4.975  13.991 -0.9102  0.2088  0.0727
18453TIP3    H176774   4.494   5.018  13.948 -1.6626  1.1587 -0.2814
18453TIP3    H276775   4.416   5.017  14.077  0.0330 -1.0703  0.7891
18454TIP3   OH276776   3.701   2.088   4.586 -0.0225 -0.8768 -0.4213
18454TIP3    H176777   3.759   2.092   4.509 -0.7460 -0.4513 -0.9594
18454TIP3    H276778   3.613   2.076   4.548 -0.4171 -0.3943  0.3367
18455TIP3   OH276779   4.410   4.725  14.814  0.3660 -0.1302 -0.0699
18455TIP3    H176780   4.442   4.723  14.904  1.4593  1.1115 -0.4027
18455TIP3    H276781   4.489   4.738  14.761 -0.3804  0.1474 -1.1446
18456TIP3   OH276782   3.155   5.318  14.311 -0.2061  0.1249 -0.6533
18456TIP3    H176783   3.081   5.368  14.344 -0.9930  0.5544 -2.9207
18456TIP3    H276784   3.205   5.380  14.258  1.3927 -0.3537  0.2171
18457TIP3   OH276785   1.158   1.456  12.030  0.2617 -0.3832 -0.0099
18457TIP3    H176786   1.224   1.469  11.962 -0.3750 -2.5697 -1.1604
18457TIP3    H276787   1.077   1.489  11.990  0.3828  1.2129  0.9525
18458TIP3   OH276788   2.389   6.296  16.702  0.4472  0.6140  0.2125
18458TIP3    H176789   2.430   6.321  16.619 -0.3339 -0.5072 -0.5461
18458TIP3    H276790   2.413   6.204  16.713 -1.9271 -0.1273 -0.3370
18459TIP3   OH276791   3.513   0.489  14.781 -0.0951  0.3417  0.0490
18459TIP3    H176792   3.483   0.580  14.774  0.4893  0.6439  1.2878
18459TIP3    H276793   3.582   0.492  14.847  2.1023 -0.4764 -2.0685
18460TIP3   OH276794   3.065   6.360   2.184  0.4065  0.1518  0.2771
18460TIP3    H176795   3.027   6.363   2.272  1.6951  1.0919  0.8288
18460TIP3    H276796   3.123   6.436   2.180  0.2789  0.1975 -1.4424
18461TIP3   OH276797   2.755   5.452   4.876 -0.1347 -0.0616  0.3690
18461TIP3    H176798   2.671   5.498   4.869  0.6398  1.2737 -0.8486
18461TIP3    H276799   2.804   5.481   4.799  1.1838 -1.3801  0.6700
18462TIP3   OH276800   5.223   4.904   5.182 -0.7396 -0.0431  0.2802
18462TIP3    H176801   5.211   4.993   5.214 -1.7928 -0.0740  0.0224
18462TIP3    H276802   5.299   4.870   5.230  1.3975  1.8664 -1.5161
18463TIP3   OH276803   4.201   1.301   1.198 -0.1203 -0.0011  0.1452
18463TIP3    H176804   4.156   1.384   1.217 -1.2582 -0.5582 -0.0444
18463TIP3    H276805   4.197   1.293   1.103 -0.8238 -0.7150  0.2340
18464TIP3   OH276806   1.053   1.914  13.026 -0.3860  0.1420  0.2277
18464TIP3    H176807   1.107   1.835  13.029 -0.7503 -0.0726  1.7570
18464TIP3    H276808   1.080   1.958  12.945  3.0916  0.7335  1.5221
18465TIP3   OH276809   1.307   1.135   3.502 -0.0801  0.4599  0.6859
18465TIP3    H176810   1.276   1.224   3.516 -0.3752  0.2878  1.1599
18465TIP3    H276811   1.282   1.115   3.412 -0.6389  0.6098  0.8013
18466TIP3   OH276812   5.906   2.600   0.540  0.2652  0.1452  0.1435
18466TIP3    H176813   5.846   2.535   0.577  1.4305  0.4109  2.6343
18466TIP3    H276814   5.951   2.554   0.469 -2.2228 -0.2947 -1.2705
18467TIP3   OH276815   5.539   5.107  12.106 -0.1065 -0.3701 -0.4897
18467TIP3    H176816   5.482   5.031  12.089  0.1948 -0.7535  0.1701
18467TIP3    H276817   5.575   5.129  12.021  0.0022 -1.1423 -0.6538
18468TIP3   OH276818   5.513   6.338  11.230  0.2008 -0.5412  0.0381
18468TIP3    H176819   5.519   6.251  11.189 -1.4258 -0.3993 -0.5867
18468TIP3    H276820   5.485   6.396  11.159 -0.5417  0.1312  0.8529
18469TIP3   OH276821   0.453   5.967   0.086  0.3839  0.0418  0.1723
18469TIP3    H176822   0.364   5.940   0.107  0.8732 -1.8680 -0.0673
18469TIP3    H276823   0.452   6.062   0.097 -2.3155  0.4086 -2.1349
18470TIP3   OH276824   4.039   6.619  15.653 -0.1386  0.5976  0.3961
18470TIP3    H176825   4.066   6.549  15.594 -0.2053  0.9486 -0.0606
18470TIP3    H276826   4.016   6.575  15.734  0.6119  0.1732  0.3840
18471TIP3   OH276827   1.649   4.089   2.902  0.3467 -0.2331  0.0138
18471TIP3    H176828   1.629   4.033   2.826 -0.9157 -0.8586  0.7767
18471TIP3    H276829   1.742   4.109   2.893  0.3328 -0.6964 -1.4374
18472TIP3   OH276830   6.615   5.896  15.556  0.1482  0.5190 -0.1936
18472TIP3    H176831   6.604   5.810  15.517  0.0040  0.2686  0.3856
18472TIP3    H276832   6.642   5.953  15.483 -0.2483  0.0979 -0.6743
18473TIP3   OH276833   0.777   6.093   5.421  0.1535  0.0643 -0.0940
18473TIP3    H176834   0.872   6.078   5.416  0.2196  0.8008 -1.5778
18473TIP3    H276835   0.754   6.131   5.336 -1.7658 -1.6741 -0.4329
18474TIP3   OH276836   6.301   0.810  11.263  0.2749  0.0145  0.2374
18474TIP3    H176837   6.269   0.720  11.259  0.1050  0.1274 -1.8848
18474TIP3    H276838   6.393   0.804  11.241  0.3459  0.3326  0.4365
18475TIP3   OH276839   6.313   6.334   4.049 -0.1936  0.2084  0.0463
18475TIP3    H176840   6.317   6.245   4.014  1.8372 -0.3325  1.4152
18475TIP3    H276841   6.370   6.385   3.991 -1.8912  0.8462 -1.1481
18476TIP3   OH276842   4.153   6.408  13.048 -0.6579 -0.7258  1.1080
18476TIP3    H176843   4.209   6.368  12.981 -0.5538  0.6857  0.3071
18476TIP3    H276844   4.195   6.386  13.131  2.2439  1.8052  0.4907
18477TIP3   OH276845   0.505   3.791   5.419 -0.7810  0.2076 -0.1933
18477TIP3    H176846   0.469   3.805   5.331 -2.3803 -1.2557  0.1663
18477TIP3    H276847   0.554   3.710   5.413  0.5988  0.9999 -0.1072
18478TIP3   OH276848   2.285   2.239  17.135 -0.5358  0.7746  1.1245
18478TIP3    H176849   2.317   2.150  17.151  0.4258  1.2133  1.7266
18478TIP3    H276850   2.197   2.227  17.098 -1.5925 -0.3854  3.7877
18479TIP3   OH276851   5.759   5.859  12.233 -0.2687  0.1048 -1.0693
18479TIP3    H176852   5.731   5.825  12.319 -1.3260  0.7161 -1.1520
18479TIP3    H276853   5.819   5.793  12.200 -0.5624 -0.6004 -0.2525
18480TIP3   OH276854   3.977   4.109   3.190  0.7891  0.4269 -0.2415
18480TIP3    H176855   4.038   4.122   3.117  0.8963 -1.7708 -0.6110
18480TIP3    H276856   3.900   4.069   3.150  1.4858 -2.4074  0.9719
18481TIP3   OH276857   2.920   6.725  14.366  0.0987 -0.1243 -0.6531
18481TIP3    H176858   2.935   6.809  14.408  1.6674 -1.0874  0.8655
18481TIP3    H276859   2.854   6.742  14.299 -1.6016  1.7894  1.3529
18482TIP3   OH276860   5.164   6.204  12.510 -0.4130 -0.7093 -0.1434
18482TIP3    H176861   5.162   6.171  12.420 -1.5967 -2.5134  0.4941
18482TIP3    H276862   5.226   6.146  12.555 -1.5916 -1.3251  0.7265
18483TIP3   OH276863   6.651   5.436  12.038  0.4689  0.3357 -0.0204
18483TIP3    H176864   6.736   5.411  12.074 -0.1094 -1.0107  0.5007
18483TIP3    H276865   6.637   5.376  11.965 -0.8394 -0.7693  1.0847
18484TIP3   OH276866   2.721   2.195   1.896  0.1148 -0.2543 -0.1639
18484TIP3    H176867   2.701   2.103   1.913  0.0090 -0.4305 -1.2180
18484TIP3    H276868   2.756   2.227   1.980 -1.0162 -0.9154  0.5946
18485TIP3   OH276869   2.615   5.349  15.278 -0.0090 -0.2532  0.1382
18485TIP3    H176870   2.612   5.307  15.192 -2.4430 -2.7073  1.2681
18485TIP3    H276871   2.661   5.287  15.334 -0.7282  0.1250  1.1708
18486TIP3   OH276872   2.291   0.294  15.423  0.3218 -0.7291  0.3012
18486TIP3    H176873   2.335   0.342  15.493 -1.8961 -1.1484  2.0957
18486TIP3    H276874   2.361   0.248  15.378  2.3011  2.4795 -0.2122
18487TIP3   OH276875   5.825   2.685   0.908 -0.2342 -0.0746 -0.1687
18487TIP3    H176876   5.855   2.664   0.997  1.3310  0.0482 -0.6548
18487TIP3    H276877   5.832   2.780   0.902 -3.5214  0.3746  0.6512
18488TIP3   OH276878   5.483   4.737  12.336  0.2234  0.4475 -0.4506
18488TIP3    H176879   5.502   4.660  12.283  0.9349 -2.1159  3.1108
18488TIP3    H276880   5.569   4.770  12.362 -0.0609  0.5419  0.4358
18489TIP3   OH276881   2.316   3.500  14.841 -0.2049 -0.3608 -0.0827
18489TIP3    H176882   2.310   3.591  14.810 -1.4196 -0.5955 -0.6132
18489TIP3    H276883   2.357   3.453  14.768 -1.4980 -0.5980 -0.6927
18490TIP3   OH276884   0.968   2.515  12.837  0.3034 -0.2010 -0.4792
18490TIP3    H176885   1.022   2.436  12.844 -0.8023 -0.9962 -0.6220
18490TIP3    H276886   1.018   2.573  12.779  1.8051 -0.1990  0.7447
18491TIP3   OH276887   5.344   6.212   3.974 -0.1389 -0.2521 -0.0608
18491TIP3    H176888   5.266   6.231   3.922 -0.4633 -2.9053 -0.6480
18491TIP3    H276889   5.392   6.146   3.924  1.2175 -0.5112  1.4852
18492TIP3   OH276890   5.171   0.252   3.814 -0.0558 -0.5886 -0.1436
18492TIP3    H176891   5.091   0.202   3.803 -1.7334  1.8344  0.2522
18492TIP3    H276892   5.234   0.210   3.756 -1.8814 -1.9744 -1.2289
18493TIP3   OH276893   5.038   6.022   5.580  0.4517 -0.7862 -0.2678
18493TIP3    H176894   5.058   6.041   5.672  1.2636  0.4017 -0.6716
18493TIP3    H276895   4.943   6.008   5.579  0.4095 -0.6450  0.7225
18494TIP3   OH276896   6.358   5.165   0.577  0.3636 -0.0370  0.2926
18494TIP3    H176897   6.435   5.221   0.586  0.6785 -0.3938 -0.1403
18494TIP3    H276898   6.315   5.196   0.497 -0.9760  1.3866  1.5123
18495TIP3   OH276899   6.560   2.278   3.711  0.0769 -0.1999  0.4344
18495TIP3    H176900   6.629   2.214   3.696  0.7145  1.0221 -2.7360
18495TIP3    H276901   6.570   2.341   3.640 -2.4126  1.7425  1.6396
18496TIP3   OH276902   5.241   4.524  11.643  0.4305 -0.6223  0.6361
18496TIP3    H176903   5.224   4.445  11.694 -1.0412 -0.8635 -0.1690
18496TIP3    H276904   5.221   4.499  11.552 -0.5209  0.7711  0.4210
18497TIP3   OH276905   5.828   1.489   2.482  0.6397  0.7830  0.4040
18497TIP3    H176906   5.767   1.416   2.471  2.5852 -0.7088 -1.3106
18497TIP3    H276907   5.787   1.562   2.436 -0.3784  0.1818  0.3279
18498TIP3   OH276908   2.207   4.522   1.708  0.0465 -0.9660  0.5649
18498TIP3    H176909   2.253   4.544   1.789 -3.5820 -1.2829  2.9823
18498TIP3    H276910   2.236   4.433   1.688  0.5710 -1.1374  1.9435
18499TIP3   OH276911   5.519   5.684  16.258 -0.1206 -0.3687 -0.1014
18499TIP3    H176912   5.563   5.678  16.173  0.2692 -0.0248  0.0773
18499TIP3    H276913   5.589   5.677  16.323 -0.5367 -1.9351  0.2295
18500TIP3   OH276914   4.379   3.294   5.182 -0.5818 -0.1316 -0.4052
18500TIP3    H176915   4.309   3.349   5.148 -0.3733  1.3224  1.3413
18500TIP3    H276916   4.460   3.340   5.159 -0.4140  0.5149  1.3098
18501TIP3   OH276917   0.303   1.814   0.073  0.3280  0.2266 -0.2157
18501TIP3    H176918   0.312   1.820  -0.022  0.1818 -1.9812 -0.4139
18501TIP3    H276919   0.338   1.728   0.095 -1.8732 -0.3259  1.4206
18502TIP3   OH276920   2.156   5.899  15.506 -0.6328 -0.8863  0.2391
18502TIP3    H176921   2.196   5.978  15.468 -1.0378 -0.5317  0.5442
18502TIP3    H276922   2.223   5.832  15.496 -1.2857 -1.2230 -2.5509
18503TIP3   OH276923   6.107   3.330   4.304 -0.2496 -0.7015 -0.6299
18503TIP3    H176924   6.082   3.417   4.333 -0.6873 -0.5103 -1.5416
18503TIP3    H276925   6.025   3.287   4.283  0.0544 -0.3933 -2.7554
18504TIP3   OH276926   6.084   1.551  12.103  0.1612 -0.3959 -0.2021
18504TIP3    H176927   6.056   1.638  12.132 -0.6034 -0.7057 -0.0000
18504TIP3    H276928   6.027   1.491  12.151  0.9765 -1.0261 -0.0085
18505TIP3   OH276929   2.775   3.602   0.263  0.8227  0.6998  0.4187
18505TIP3    H176930   2.818   3.678   0.301  1.4468 -0.2156  1.6273
18505TIP3    H276931   2.841   3.533   0.267 -0.3825 -0.4471  1.2548
18506TIP3   OH276932   1.345   4.550   2.619  0.0122 -0.3841  0.4823
18506TIP3    H176933   1.276   4.590   2.567 -0.6489 -0.2345  1.4460
18506TIP3    H276934   1.313   4.462   2.638  0.7613 -0.8383 -0.3134
18507TIP3   OH276935   4.056   2.958   2.766 -0.0576 -0.3389  0.9862
18507TIP3    H176936   4.102   2.951   2.683  0.8271 -3.4444  1.6072
18507TIP3    H276937   3.977   2.904   2.755 -2.9406  3.5235  0.5061
18508TIP3   OH276938   3.278   6.239   6.324  0.3076  0.0680  0.0284
18508TIP3    H176939   3.343   6.170   6.337 -0.1902 -0.8885 -2.1177
18508TIP3    H276940   3.213   6.224   6.393  0.4685 -1.3134 -0.0993
18509TIP3   OH276941   5.786   3.659  10.795  0.1355 -0.2920  0.4755
18509TIP3    H176942   5.851   3.704  10.850  1.5052 -0.7526 -0.7136
18509TIP3    H276943   5.750   3.727  10.739  0.7906 -0.3264  0.0124
18510TIP3   OH276944   3.266   0.188  16.054  0.2907 -0.5539 -0.0611
18510TIP3    H176945   3.235   0.128  16.122  0.4071  0.8123  1.2583
18510TIP3    H276946   3.360   0.196  16.071  0.3636 -0.3773 -0.5302
18511TIP3   OH276947   1.429   4.396   4.484  0.0171  0.5775  0.0407
18511TIP3    H176948   1.380   4.341   4.545  1.2155  0.6870  1.1337
18511TIP3    H276949   1.459   4.470   4.536  1.9090  0.1788 -0.4004
18512TIP3   OH276950   2.681   6.669   5.398  0.0766  0.5129  0.1384
18512TIP3    H176951   2.670   6.689   5.305  1.8828  1.1664  0.0337
18512TIP3    H276952   2.649   6.747   5.444 -2.0223 -0.2998  0.1745
18513TIP3   OH276953   6.720   0.859   4.404 -0.5788 -0.3964 -0.9126
18513TIP3    H176954   6.674   0.823   4.328 -0.6496  0.2185 -1.1664
18513TIP3    H276955   6.704   0.954   4.399  0.9751 -0.1254 -1.1961
18514TIP3   OH276956   1.287   0.626   4.044 -0.4249 -0.2836 -0.2222
18514TIP3    H176957   1.241   0.682   4.106  0.4511 -0.0603  0.2533
18514TIP3    H276958   1.269   0.664   3.958 -0.5479  0.2179  0.0211
18515TIP3   OH276959   4.873   6.754   1.057 -0.4639 -0.3210 -0.0468
18515TIP3    H176960   4.852   6.832   1.109 -0.5817 -0.6470  0.4025
18515TIP3    H276961   4.915   6.788   0.978  0.5560  0.1316  0.6771
18516TIP3   OH276962   4.766   1.543   0.949 -0.0375 -0.3157 -0.5231
18516TIP3    H176963   4.798   1.573   1.034 -0.6319  0.7708 -0.6718
18516TIP3    H276964   4.828   1.475   0.923  1.0577  0.4236  0.0747
18517TIP3   OH276965   2.732   3.440  12.183 -0.3670 -0.0990  0.8824
18517TIP3    H176966   2.750   3.532  12.163  1.5357 -0.1346  2.1051
18517TIP3    H276967   2.761   3.393  12.105 -0.3921  0.2783  0.6412
18518TIP3   OH276968   0.578   3.351  14.454  0.3295 -0.1711  0.2031
18518TIP3    H176969   0.616   3.326  14.538  0.4504 -1.3251 -0.1877
18518TIP3    H276970   0.596   3.278  14.396 -0.3385  0.3264 -0.6596
18519TIP3   OH276971   0.013   5.372   4.710  0.4648 -0.1821  0.0795
18519TIP3    H176972   0.054   5.414   4.787 -1.4999  0.6050  0.7492
18519TIP3    H276973  -0.040   5.441   4.671 -0.7286 -1.3300 -0.3691
18520TIP3   OH276974   2.847   0.626  13.516  0.0144  0.1368  0.5396
18520TIP3    H176975   2.892   0.568  13.577 -0.0228 -0.1176  0.3267
18520TIP3    H276976   2.862   0.714  13.551  0.3942  0.0290  0.6515
18521TIP3   OH276977   0.860   0.339   2.134  0.2385  0.5281 -0.0104
18521TIP3    H176978   0.874   0.248   2.162 -0.2279  0.7504  0.9583
18521TIP3    H276979   0.948   0.377   2.132  0.4675 -0.0137 -0.6970
18522TIP3   OH276980   0.669   6.352  10.885  0.1011 -0.5347 -0.2239
18522TIP3    H176981   0.579   6.350  10.853 -0.3511 -0.0697  0.9736
18522TIP3    H276982   0.719   6.303  10.819 -0.9728 -0.5793 -1.0324
18523TIP3   OH276983   5.852   4.355  16.163  0.0920  0.0459 -0.1228
18523TIP3    H176984   5.871   4.261  16.173  0.0544  0.0908  0.3996
18523TIP3    H276985   5.832   4.385  16.252  0.9960  0.7532 -0.1528
18524TIP3   OH276986   0.373   2.587   5.317  0.9463 -0.6081 -0.1056
18524TIP3    H176987   0.460   2.609   5.350  0.8146 -0.1938 -0.0273
18524TIP3    H276988   0.322   2.667   5.328 -0.2728 -1.6286  2.4918
18525TIP3   OH276989   2.867   0.745  14.608 -0.6763  0.3131  0.2034
18525TIP3    H176990   2.870   0.749  14.512 -0.2808 -1.0988  0.1408
18525TIP3    H276991   2.939   0.687  14.632  0.6409  2.3617  1.5234
18526TIP3   OH276992   0.196   0.855   4.685 -0.0508 -0.1439 -0.4174
18526TIP3    H176993   0.112   0.898   4.702 -0.8692 -1.2690 -1.4100
18526TIP3    H276994   0.188   0.822   4.595  0.5046 -2.3875  0.3066
18527TIP3   OH276995   5.865   4.551  15.354 -0.3727  0.2935 -1.0281
18527TIP3    H176996   5.872   4.551  15.259 -3.0624 -3.3299 -1.4432
18527TIP3    H276997   5.779   4.589  15.372  0.9459  3.0090  0.2945
18528TIP3   OH276998   6.284   1.341   0.368 -0.2036 -0.4417 -0.5931
18528TIP3    H176999   6.365   1.291   0.379 -0.9543 -1.5063  0.2956
18528TIP3    H277000   6.271   1.385   0.452 -0.4847 -0.1829 -0.7692
18529TIP3   OH277001   3.049   4.475   1.645 -0.2247  0.2176  0.1624
18529TIP3    H177002   3.064   4.540   1.713  0.7803 -0.6693  0.8213
18529TIP3    H277003   3.118   4.492   1.580 -1.5040  1.4063 -0.9409
18530TIP3   OH277004   4.885   0.815  14.217  0.4667 -0.9220 -0.5018
18530TIP3    H177005   4.914   0.906  14.206  0.1964 -0.6755  0.6643
18530TIP3    H277006   4.834   0.797  14.138  0.6303 -0.0972 -0.8130
18531TIP3   OH277007   5.903   2.082   5.041 -0.4547  0.1286 -0.1633
18531TIP3    H177008   5.815   2.044   5.036 -1.4844  2.4182 -0.6423
18531TIP3    H277009   5.958   2.022   4.990 -1.8802 -0.9039 -0.5399
18532TIP3   OH277010   4.771   5.021   3.870 -0.0671 -0.0459 -0.0337
18532TIP3    H177011   4.762   5.067   3.953 -2.1152 -1.5825  0.6749
18532TIP3    H277012   4.864   5.028   3.849  0.5430  0.2918  2.4323
18533TIP3   OH277013   1.885   5.348  17.042  0.0236  0.1619 -0.0258
18533TIP3    H177014   1.890   5.253  17.034 -0.5909  0.2655 -2.4932
18533TIP3    H277015   1.807   5.372  16.991  1.7473  2.1785 -1.9105
18534TIP3   OH277016   6.251   3.732   3.244 -0.0058  0.8771 -0.0621
18534TIP3    H177017   6.259   3.700   3.154 -0.4668 -0.0842  0.2225
18534TIP3    H277018   6.240   3.653   3.296 -1.2562  1.5015  0.6653
18535TIP3   OH277019   6.423   5.303  15.879  0.1443  0.1269 -0.0370
18535TIP3    H177020   6.392   5.257  15.801 -0.7912  2.5252 -1.1475
18535TIP3    H277021   6.344   5.340  15.918  0.8413  0.6116  0.9369
18536TIP3   OH277022   3.969   3.876  13.056 -0.6651  0.0962  0.2341
18536TIP3    H177023   3.977   3.907  12.965 -1.1836 -0.7788 -0.1203
18536TIP3    H277024   3.971   3.781  13.048 -0.9255  0.0150  1.1299
18537TIP3   OH277025   2.303   0.918   2.460  0.1763 -0.5370 -0.3224
18537TIP3    H177026   2.344   0.834   2.437  1.0415 -0.6088  1.3100
18537TIP3    H277027   2.326   0.931   2.553  0.0341  1.4892 -0.5271
18538TIP3   OH277028   2.536   2.544  16.992 -0.2124  0.4315  0.1693
18538TIP3    H177029   2.560   2.519  16.903  1.1683 -1.1539  0.9347
18538TIP3    H277030   2.616   2.582  17.029 -0.6734  0.7708  0.8501
18539TIP3   OH277031   3.432   6.321  11.706 -0.4751  0.5204 -0.4132
18539TIP3    H177032   3.483   6.401  11.709 -1.0746  0.8956  1.9198
18539TIP3    H277033   3.496   6.251  11.718 -0.2745  0.8585  0.5600
18540TIP3   OH277034   4.188   3.474  15.398 -0.1991  0.8264 -0.0442
18540TIP3    H177035   4.245   3.551  15.396 -0.0558  0.8588  2.3268
18540TIP3    H277036   4.101   3.509  15.420  0.0439  0.2850  1.9360
18541TIP3   OH277037   4.837   4.133   4.950  0.6007 -0.4905 -0.2211
18541TIP3    H177038   4.893   4.065   4.913 -1.2339 -1.7265 -0.8661
18541TIP3    H277039   4.749   4.099   4.941 -0.2835  1.3686  0.7961
18542TIP3   OH277040   4.980   2.570   4.179 -0.1899  0.1599  0.2036
18542TIP3    H177041   4.896   2.556   4.135 -0.7950 -1.4170  1.7413
18542TIP3    H277042   5.028   2.628   4.121 -2.4293  1.3188 -0.6115
18543TIP3   OH277043   0.424   1.100  13.145 -0.1740  0.2129  0.2313
18543TIP3    H177044   0.407   1.022  13.199  0.8768  0.1323  0.4784
18543TIP3    H277045   0.367   1.089  13.069  1.2408 -1.7635 -0.6486
18544TIP3   OH277046   0.586   2.131   5.768 -0.0894  0.3863  0.4791
18544TIP3    H177047   0.573   2.046   5.726 -0.8880  0.2995  0.8723
18544TIP3    H277048   0.650   2.176   5.713  0.4049 -0.4964  0.3083
18545TIP3   OH277049   2.956   6.305   0.513  0.6334 -0.2044 -0.5228
18545TIP3    H177050   2.943   6.233   0.574 -0.7669 -0.2125 -0.7835
18545TIP3    H277051   2.987   6.378   0.567 -0.4577 -0.2461  0.1823
18546TIP3   OH277052   1.496   6.100   2.280  0.4913 -0.6200  0.5510
18546TIP3    H177053   1.423   6.038   2.285 -0.4007  0.3460 -0.0884
18546TIP3    H277054   1.488   6.138   2.192  2.5025 -1.3762 -0.0036
18547TIP3   OH277055   2.964   5.283   4.932  0.3963 -0.3942  0.1950
18547TIP3    H177056   2.926   5.246   5.012  2.6184  2.1012  2.6103
18547TIP3    H277057   2.897   5.344   4.900  0.0387 -0.3483  0.9961
18548TIP3   OH277058   6.491   6.695   1.923  0.0244 -0.5187  0.0076
18548TIP3    H177059   6.514   6.603   1.905 -0.0022 -0.5046 -0.1000
18548TIP3    H277060   6.399   6.701   1.899 -0.2980 -0.7595  1.1287
18549TIP3   OH277061   1.208   1.171  14.282 -0.0428  0.1739  0.2634
18549TIP3    H177062   1.142   1.237  14.303 -0.8133 -0.0988 -1.1653
18549TIP3    H277063   1.198   1.157  14.188  2.1212  0.1858 -0.0259
18550TIP3   OH277064   2.255   3.051  13.875  0.5315  0.4649  0.3569
18550TIP3    H177065   2.312   2.983  13.838 -1.1542 -0.6956 -0.2201
18550TIP3    H277066   2.279   3.053  13.968  2.0064  0.5572  0.0076
18551TIP3   OH277067   3.749   2.768  10.652  0.1678  0.1140 -0.6624
18551TIP3    H177068   3.655   2.775  10.640  0.1265 -1.9051 -1.9165
18551TIP3    H277069   3.781   2.858  10.645 -1.6572  0.8696  0.1243
18552TIP3   OH277070   2.629   6.452  12.790 -0.1634  0.3701 -0.5490
18552TIP3    H177071   2.684   6.374  12.781 -0.1257  0.4187 -0.7450
18552TIP3    H277072   2.604   6.454  12.883 -2.0365 -1.1440 -0.9628
18553TIP3   OH277073   2.589   5.767   0.556 -0.6230 -0.2906  0.2181
18553TIP3    H177074   2.623   5.784   0.468  0.6299  0.1503  0.7779
18553TIP3    H277075   2.494   5.780   0.547 -0.3834  0.9825 -0.7933
18554TIP3   OH277076   4.959   1.964  16.427  0.3100 -0.0974  0.1380
18554TIP3    H177077   4.876   2.009  16.445 -0.1144 -0.5838 -0.5323
18554TIP3    H277078   4.941   1.913  16.348  1.1595 -0.4548  0.1708
18555TIP3   OH277079   1.528   4.292  15.562  0.1989  0.2531 -0.3161
18555TIP3    H177080   1.616   4.264  15.540  0.0986 -0.1542 -0.2041
18555TIP3    H277081   1.526   4.386  15.541  0.5552  0.1908 -0.6211
18556TIP3   OH277082   4.860   0.641   5.142  0.0362 -0.3169  0.1853
18556TIP3    H177083   4.911   0.695   5.081 -0.4139  0.4751  0.4944
18556TIP3    H277084   4.823   0.704   5.204 -0.2502 -1.0220  0.7419
18557TIP3   OH277085   3.333   3.581   4.246  0.1381  0.1402  0.1601
18557TIP3    H177086   3.259   3.551   4.299  1.1447  0.0535  1.5887
18557TIP3    H277087   3.371   3.501   4.210  0.4673  0.0445  0.7167
18558TIP3   OH277088   1.636   0.363   2.051 -0.1023  0.1785 -0.3321
18558TIP3    H177089   1.607   0.272   2.052  0.6497 -0.0717  0.8670
18558TIP3    H277090   1.564   0.411   2.009 -0.4708 -0.9634 -1.0406
18559TIP3   OH277091   1.141   4.058   2.799 -0.0363  0.3522 -0.7050
18559TIP3    H177092   1.059   4.096   2.830 -0.0274  2.0840 -2.5630
18559TIP3    H277093   1.123   4.035   2.707  0.9176 -1.3435 -0.5153
18560TIP3   OH277094   0.303   0.563   5.457 -0.0979  0.5565 -0.3326
18560TIP3    H177095   0.392   0.581   5.429  0.5787 -1.1948  0.5682
18560TIP3    H277096   0.254   0.642   5.434  1.5720  1.3628 -1.2566
18561TIP3   OH277097   3.899   0.006   1.682  0.2973  0.1348 -0.3080
18561TIP3    H177098   3.980  -0.025   1.722 -0.1916 -2.0697 -0.9001
18561TIP3    H277099   3.920   0.014   1.589 -0.4043 -1.5192 -0.6460
18562TIP3   OH277100   2.369   3.163  12.891  0.7436 -0.1544 -0.6094
18562TIP3    H177101   2.382   3.257  12.878  1.1463 -0.1783 -0.3865
18562TIP3    H277102   2.279   3.148  12.863  0.8414  0.2063 -1.1354
18563TIP3   OH277103   6.266   2.366  14.513 -0.1143  0.2481  0.5879
18563TIP3    H177104   6.267   2.324  14.599  1.3806 -0.1403  0.4126
18563TIP3    H277105   6.229   2.452  14.529 -3.2302 -1.0371  0.9698
18564TIP3   OH277106   4.856   3.888  15.758  0.0797 -0.1328 -0.0667
18564TIP3    H177107   4.843   3.906  15.851 -1.4531  0.2113 -0.3153
18564TIP3    H277108   4.950   3.877  15.748  0.5357  2.0977  1.1461
18565TIP3   OH277109   1.758   3.620  15.151  0.2154  0.5179  0.3912
18565TIP3    H177110   1.727   3.533  15.173 -0.1104  0.8619  1.3111
18565TIP3    H277111   1.763   3.666  15.235 -0.7390  1.7531 -0.2011
18566TIP3   OH277112   1.496   0.729   2.536  0.0403  0.0176  0.2657
18566TIP3    H177113   1.402   0.747   2.527  0.2575  1.2540  0.3331
18566TIP3    H277114   1.526   0.716   2.446 -0.2359 -0.6313  0.2621
18567TIP3   OH277115   0.106   0.557  14.207  0.1926  0.4648  0.4804
18567TIP3    H177116   0.133   0.645  14.182  2.2547 -0.1649  0.2981
18567TIP3    H277117   0.136   0.501  14.135  0.8153 -0.6415  1.5594
18568TIP3   OH277118   3.744   4.852  16.879  0.0142  0.7921 -0.2247
18568TIP3    H177119   3.802   4.871  16.953  0.6216  1.8028 -0.9406
18568TIP3    H277120   3.750   4.757  16.867 -1.0680  0.4064  1.7911
18569TIP3   OH277121   3.999   0.641   3.163 -0.2974  0.2581  0.2940
18569TIP3    H177122   4.035   0.680   3.242  0.1579  1.0717 -0.2925
18569TIP3    H277123   4.052   0.563   3.147 -0.8766 -0.3332  1.1917
18570TIP3   OH277124   1.087   5.139   0.824 -0.3916  0.7231  0.7537
18570TIP3    H177125   1.109   5.165   0.914 -1.3039 -2.7482  2.1501
18570TIP3    H277126   1.060   5.047   0.832  0.4383 -0.0506 -3.2440
18571TIP3   OH277127   5.317   2.319   2.294 -0.1797  0.4992 -0.0685
18571TIP3    H177128   5.247   2.302   2.230 -0.1785  0.0546  0.0425
18571TIP3    H277129   5.381   2.371   2.246  1.2705 -2.3066 -1.3866
18572TIP3   OH277130   5.465   0.317  13.040 -0.4480  1.0045 -0.3216
18572TIP3    H177131   5.540   0.365  13.004  0.4833  0.0076  0.2177
18572TIP3    H277132   5.440   0.256  12.972  0.4556  0.0475  0.1681
18573TIP3   OH277133   4.447   3.729  11.034  0.0019  0.0473 -0.1520
18573TIP3    H177134   4.416   3.639  11.021  0.7324  0.0364 -2.1166
18573TIP3    H277135   4.542   3.722  11.028  0.1512  0.7868  1.0366
18574TIP3   OH277136   3.022   3.008   0.358 -0.1002  1.0798  0.2719
18574TIP3    H177137   3.111   3.043   0.364 -0.0388  1.1526 -0.8389
18574TIP3    H277138   3.034   2.916   0.338 -0.2669  1.3412 -1.0937
18575TIP3   OH277139   2.200   3.764   1.061 -0.1167 -0.4317 -0.1613
18575TIP3    H177140   2.110   3.740   1.083 -0.1429 -0.3246 -0.1502
18575TIP3    H277141   2.211   3.734   0.970 -0.1879 -0.3793 -0.1876
18576TIP3   OH277142   5.290   5.476  13.182 -0.2537  0.6921  0.4104
18576TIP3    H177143   5.207   5.450  13.222 -0.0099  1.0379  1.1597
18576TIP3    H277144   5.337   5.520  13.252  1.4178 -1.2472  0.6100
18577TIP3   OH277145   2.530   1.502  11.341 -0.6126  0.6385  0.0520
18577TIP3    H177146   2.610   1.486  11.389  0.0565 -0.8899 -1.4656
18577TIP3    H277147   2.555   1.496  11.249 -2.8161 -2.0714 -0.5083
18578TIP3   OH277148   6.041   1.684   4.155 -0.3158 -0.0248 -0.6602
18578TIP3    H177149   6.126   1.658   4.121 -0.3493 -0.3826 -0.4827
18578TIP3    H277150   5.995   1.722   4.081  0.5179  1.5031 -0.4319
18579TIP3   OH277151   1.887   0.500  14.298 -0.0427 -0.0724  0.9080
18579TIP3    H177152   1.877   0.554  14.219  1.6060 -1.4072 -0.2782
18579TIP3    H277153   1.810   0.443  14.298  0.6278 -1.0578 -0.6096
18580TIP3   OH277154   5.119   5.697   0.294 -0.1592  0.0463  0.2683
18580TIP3    H177155   5.029   5.673   0.317  0.0242 -0.1228  0.8233
18580TIP3    H277156   5.173   5.657   0.362  0.3622 -0.0837 -0.2129
18581TIP3   OH277157   6.092   3.640   5.501  0.6913 -0.2606  0.1019
18581TIP3    H177158   6.148   3.680   5.567  0.3205 -0.3903  0.5080
18581TIP3    H277159   6.010   3.622   5.548  0.6598 -0.9803 -0.2081
18582TIP3   OH277160   2.235   2.469   6.960  0.0695  0.0993  0.5952
18582TIP3    H177161   2.217   2.551   6.913  0.9000 -0.7790 -1.3815
18582TIP3    H277162   2.149   2.427   6.968 -0.0713  0.1576 -0.4183
18583TIP3   OH277163   6.051   5.028   5.653 -0.3715 -0.4687 -0.3840
18583TIP3    H177164   6.122   4.965   5.665 -0.9038 -1.1921 -0.9267
18583TIP3    H277165   6.091   5.103   5.609  0.3837 -0.1854  0.7381
18584TIP3   OH277166   4.186   3.755  14.711 -0.0458  0.4991 -0.2025
18584TIP3    H177167   4.134   3.675  14.717 -0.5120  0.7027 -1.3039
18584TIP3    H277168   4.129   3.823  14.747  0.4843  0.3089  1.0719
18585TIP3   OH277169   1.645   3.571   3.859  0.2189  0.0764  0.2194
18585TIP3    H177170   1.733   3.536   3.843  0.3033  0.6755 -0.7178
18585TIP3    H277171   1.630   3.631   3.786 -0.9937 -0.0591  0.3381
18586TIP3   OH277172   4.285   1.406   3.661  0.0599  0.0598 -0.2446
18586TIP3    H177173   4.349   1.443   3.723 -3.1536  1.6873  2.4124
18586TIP3    H277174   4.233   1.346   3.714 -0.6178 -1.3263 -2.3553
18587TIP3   OH277175   0.498   6.392  14.798 -0.2921 -0.0508 -0.0024
18587TIP3    H177176   0.423   6.334  14.781 -1.0620  0.3375  1.8985
18587TIP3    H277177   0.571   6.332  14.814 -0.7963 -0.4891  0.7159
18588TIP3   OH277178   4.303   5.912   0.636  0.1105  0.0910 -0.3765
18588TIP3    H177179   4.291   5.836   0.580 -1.7089 -0.3505  0.5307
18588TIP3    H277180   4.239   5.976   0.604  0.3970  0.5698 -0.0112
18589TIP3   OH277181   2.683   0.307  15.935 -0.2591  0.1850  0.0074
18589TIP3    H177182   2.673   0.398  15.963 -1.0105 -0.0390  0.4915
18589TIP3    H277183   2.699   0.258  16.015  0.1727 -0.1067 -0.2548
18590TIP3   OH277184   6.339   6.265  14.299 -0.3760  0.3381 -0.1772
18590TIP3    H177185   6.290   6.226  14.372 -0.9580  1.7808  0.2405
18590TIP3    H277186   6.402   6.198  14.274 -0.4268 -0.3446  1.4003
18591TIP3   OH277187   2.740   4.635   1.895 -0.8590 -0.1119  0.4347
18591TIP3    H177188   2.826   4.675   1.891 -1.2090  0.6773  0.6332
18591TIP3    H277189   2.737   4.577   1.818  1.0127 -2.6339  2.0661
18592TIP3   OH277190   5.216   3.458  13.191 -0.4692  0.1900 -0.3564
18592TIP3    H177191   5.231   3.385  13.130 -0.1838  0.8978 -1.1512
18592TIP3    H277192   5.153   3.424  13.254  1.4781 -1.5804  0.7659
18593TIP3   OH277193   3.696   1.144   2.215  0.2359  0.1034  0.4037
18593TIP3    H177194   3.691   1.214   2.151 -2.6499  0.7539  1.2189
18593TIP3    H277195   3.641   1.074   2.179 -0.8071  0.1840  1.7549
18594TIP3   OH277196   2.252   6.143  15.782 -0.3185  0.4341 -0.3871
18594TIP3    H177197   2.269   6.151  15.688  0.1363  2.1922 -0.1899
18594TIP3    H277198   2.213   6.057  15.792  0.2287 -0.0496 -2.1037
18595TIP3   OH277199   2.568   0.623  15.453 -0.3913  0.3130 -0.2805
18595TIP3    H177200   2.603   0.634  15.365 -1.9896 -1.2208 -1.1638
18595TIP3    H277201   2.482   0.666  15.451 -0.5797  0.0001  0.4321
18596TIP3   OH277202   6.374   1.333  14.093  0.0561  0.0537 -0.5746
18596TIP3    H177203   6.402   1.318  14.003  0.4917  0.6112 -0.5331
18596TIP3    H277204   6.282   1.361  14.086 -0.3497 -1.2352 -0.7432
18597TIP3   OH277205   6.000   2.506  12.412 -0.2540 -0.1885 -0.2125
18597TIP3    H177206   5.986   2.500  12.507  0.3842 -0.1792 -0.1152
18597TIP3    H277207   6.089   2.539  12.403  0.2337 -1.5945 -0.8191
18598TIP3   OH277208   5.399   0.265   5.889 -0.3014 -0.0392  0.3186
18598TIP3    H177209   5.468   0.270   5.955  0.1971 -0.3362 -0.1639
18598TIP3    H277210   5.349   0.186   5.913  0.7721 -0.9892 -0.4844
18599TIP3   OH277211   3.329   5.948  14.400 -0.2100 -0.5029 -0.2900
18599TIP3    H177212   3.417   5.922  14.428  0.2096 -0.2736 -1.3275
18599TIP3    H277213   3.320   6.038  14.429  0.2925 -0.2055 -1.0193
18600TIP3   OH277214   1.945   6.503   4.941 -0.3294  0.6393 -0.2972
18600TIP3    H177215   2.011   6.464   4.883  0.2205 -0.2861  0.8962
18600TIP3    H277216   1.891   6.429   4.969 -0.7718  1.1174  0.1229
18601TIP3   OH277217   2.725   5.579   2.228 -0.1777  0.4651 -0.9107
18601TIP3    H177218   2.633   5.599   2.211 -0.9334 -1.7368  0.1345
18601TIP3    H277219   2.746   5.626   2.308 -0.5488  0.6171 -0.9001
18602TIP3   OH277220   5.064   4.460   2.527 -0.0707  0.0591  0.1170
18602TIP3    H177221   5.029   4.495   2.445  1.8546 -0.2819 -0.9075
18602TIP3    H277222   5.141   4.514   2.545  1.5628 -2.0289 -0.2135
18603TIP3   OH277223   0.167   1.874  12.930 -0.1284  0.0391  0.2220
18603TIP3    H177224   0.135   1.963  12.948 -0.6763 -0.0468 -0.2726
18603TIP3    H277225   0.094   1.817  12.955 -1.2865 -0.0434 -2.8698
18604TIP3   OH277226   4.115   2.648   5.214 -0.0745  0.0613 -0.2881
18604TIP3    H177227   4.043   2.592   5.242  0.1394  0.1262  0.3922
18604TIP3    H277228   4.173   2.653   5.289  1.7738 -1.7516 -1.4973
18605TIP3   OH277229   3.472   5.358  14.685 -0.2820  0.7630  0.0111
18605TIP3    H177230   3.451   5.449  14.666  1.1814  1.0933 -0.1408
18605TIP3    H277231   3.487   5.317  14.600 -0.2363  0.5696  0.1094
18606TIP3   OH277232   0.961   3.626   0.749 -0.0230  0.0404 -0.7134
18606TIP3    H177233   1.011   3.676   0.684 -1.8528  2.9182 -0.1211
18606TIP3    H277234   0.883   3.597   0.702  0.4069 -1.1800 -0.7043
18607TIP3   OH277235   0.419   3.513   0.184 -0.2055 -0.7230 -0.5323
18607TIP3    H177236   0.418   3.566   0.263  1.6214 -0.2649 -0.7553
18607TIP3    H277237   0.354   3.554   0.127  0.3453  0.5976 -0.2577
18608TIP3   OH277238   3.150   1.732  14.157 -0.7600  0.1571  0.1980
18608TIP3    H177239   3.232   1.747  14.112 -0.5518  2.5808  1.1998
18608TIP3    H277240   3.153   1.640  14.184  1.4553  0.0905 -0.1069
18609TIP3   OH277241   5.519   4.395   3.895  0.0643 -0.7261 -0.1890
18609TIP3    H177242   5.524   4.485   3.927 -0.0072 -0.9368  0.4372
18609TIP3    H277243   5.592   4.350   3.939  1.1109 -0.6147 -1.7379
18610TIP3   OH277244   4.667   0.860   0.224  0.1837 -0.0850  0.3587
18610TIP3    H177245   4.626   0.818   0.148  1.0282  0.4687 -0.4188
18610TIP3    H277246   4.709   0.938   0.188  0.1205  0.4894  1.4970
18611TIP3   OH277247   1.557   0.913  13.143  0.8437  0.1674  0.1529
18611TIP3    H177248   1.627   0.962  13.186 -0.3793  0.6051  1.7528
18611TIP3    H277249   1.476   0.955  13.173 -0.2859 -2.8137  1.6561
18612TIP3   OH277250   3.688   0.721  10.836  0.1542  0.1397  0.2094
18612TIP3    H177251   3.618   0.688  10.892  0.2854 -0.4223  0.0561
18612TIP3    H277252   3.652   0.716  10.747 -0.1489  1.2772  0.2564
18613TIP3   OH277253   2.006   6.582  12.149 -0.1313  0.5064  0.0086
18613TIP3    H177254   2.022   6.635  12.227  2.1799  0.8102 -0.5900
18613TIP3    H277255   1.956   6.507  12.181 -0.7080  1.4642  1.4490
18614TIP3   OH277256   2.837   2.590   5.089 -0.2224 -0.0474 -0.4838
18614TIP3    H177257   2.881   2.617   5.009  0.1135 -1.7789 -0.9145
18614TIP3    H277258   2.798   2.671   5.123  2.1198  1.3012 -0.7879
18615TIP3   OH277259   4.960   5.919  16.871  0.2821 -0.8602 -0.3224
18615TIP3    H177260   4.885   5.950  16.923  0.5746 -1.4879  0.5006
18615TIP3    H277261   4.922   5.890  16.788 -0.2982 -0.5652 -0.1632
18616TIP3   OH277262   5.049   1.943  15.330 -0.2080  0.1568 -0.0997
18616TIP3    H177263   5.075   1.955  15.239  0.0924  2.1971  0.2140
18616TIP3    H277264   5.130   1.958  15.380 -0.0643 -2.1679  0.5024
18617TIP3   OH277265   6.516   2.965   5.395 -0.0573 -0.1592  0.1247
18617TIP3    H177266   6.489   3.052   5.368 -1.1369 -0.6489 -0.4319
18617TIP3    H277267   6.509   2.965   5.490  2.7409  1.2448  0.4417
18618TIP3   OH277268   1.668   5.842   2.263 -0.0846 -0.2586  0.2423
18618TIP3    H177269   1.688   5.911   2.327  0.8458 -0.6499  0.3875
18618TIP3    H277270   1.742   5.782   2.269 -0.9096 -1.3177  0.1667
18619TIP3   OH277271   5.763   3.398  15.315  0.6228  0.6429  1.0793
18619TIP3    H177272   5.712   3.475  15.341 -0.7460  1.2181 -2.6405
18619TIP3    H277273   5.852   3.431  15.304  0.5825  1.0754  1.9971
18620TIP3   OH277274   3.795   6.283  12.836 -0.2164 -0.3133 -0.4916
18620TIP3    H177275   3.840   6.245  12.761  1.4220 -3.4787  1.8672
18620TIP3    H277276   3.842   6.250  12.912 -3.3312  0.5983  2.0615
18621TIP3   OH277277   5.790   3.245   2.762  0.5304 -0.1564  0.1767
18621TIP3    H177278   5.730   3.203   2.824  0.3952 -0.1113  0.0763
18621TIP3    H277279   5.759   3.218   2.676  1.5323 -1.3256  0.1624
18622TIP3   OH277280   1.219   6.339  16.501 -0.1252 -0.7051  0.2955
18622TIP3    H177281   1.233   6.426  16.463  2.4828 -0.6033  1.3152
18622TIP3    H277282   1.188   6.286  16.428 -1.5711  0.9865 -0.4003
18623TIP3   OH277283   6.178   0.413  16.185 -0.1339 -0.0048  0.9447
18623TIP3    H177284   6.247   0.479  16.189 -0.6090  0.6022 -0.3166
18623TIP3    H277285   6.207   0.344  16.244  1.4969  0.2860  0.5174
18624TIP3   OH277286   0.155   4.267  17.076  0.1864  0.0440  0.0953
18624TIP3    H177287   0.229   4.243  17.021  0.1485  0.3415 -0.0887
18624TIP3    H277288   0.132   4.356  17.048  0.3460  0.3144  0.7729
18625TIP3   OH277289   3.042   3.291  16.410 -0.2486  0.2322  0.0620
18625TIP3    H177290   3.017   3.359  16.473  1.7738  1.9121 -0.8328
18625TIP3    H277291   3.023   3.329  16.324 -0.2040 -0.8279 -0.4286
18626TIP3   OH277292   1.250   3.205  14.307 -0.0380 -0.0383 -0.3043
18626TIP3    H177293   1.309   3.130  14.292 -0.0385  0.2513 -1.9484
18626TIP3    H277294   1.172   3.166  14.348 -0.1227 -0.9968 -1.3185
18627TIP3   OH277295   5.158   2.413   1.749 -0.1356  0.0439  0.3706
18627TIP3    H177296   5.205   2.342   1.706 -0.4214  0.2185 -0.2431
18627TIP3    H277297   5.145   2.478   1.679 -1.6455 -0.1857  0.4199
18628TIP3   OH277298   6.399   6.688  15.997  0.1301 -0.0829  0.9464
18628TIP3    H177299   6.445   6.725  15.922 -0.0087  0.1732  0.9850
18628TIP3    H277300   6.458   6.620  16.030 -0.3104 -0.9765 -0.0665
18629TIP3   OH277301   5.081   5.431   2.631 -0.9597 -0.3431 -0.1209
18629TIP3    H177302   5.142   5.358   2.620  0.6261  0.6980  1.2121
18629TIP3    H277303   5.057   5.429   2.723 -0.1820  1.3024  0.1563
18630TIP3   OH277304   3.047   2.442   5.977  0.4951 -0.0761  0.0970
18630TIP3    H177305   3.076   2.428   6.068 -0.8277  1.0645  0.7207
18630TIP3    H277306   2.957   2.471   5.985  1.2378  2.9753 -1.3920
18631TIP3   OH277307   6.682   4.059  11.590  0.1299 -0.1953 -0.1199
18631TIP3    H177308   6.686   3.981  11.645 -0.1473 -1.0187 -1.2559
18631TIP3    H277309   6.615   4.114  11.631  0.8131 -0.2236  1.0831
18632TIP3   OH277310   1.302   2.954   4.176 -0.5426 -0.2204  0.4161
18632TIP3    H177311   1.335   3.042   4.197 -1.3447  0.8779 -2.4294
18632TIP3    H277312   1.207   2.964   4.176 -0.6207 -0.7701 -1.0048
18633TIP3   OH277313   2.613   6.049  13.744  0.3828 -0.2605 -0.5559
18633TIP3    H177314   2.682   6.042  13.811 -1.4873  1.4214  1.7174
18633TIP3    H277315   2.543   5.992  13.777 -1.0322  1.5058 -0.4056
18634TIP3   OH277316   6.623   3.274   0.565 -0.1806  0.0688  0.5961
18634TIP3    H177317   6.612   3.244   0.655  1.1850  0.0118  0.7650
18634TIP3    H277318   6.698   3.333   0.569 -1.2626  1.5777 -0.1718
18635TIP3   OH277319   2.058   0.073  13.466 -0.1646  0.1344 -0.1352
18635TIP3    H177320   2.009   0.069  13.548  1.3025 -2.1617  0.7352
18635TIP3    H277321   1.995   0.045  13.399 -0.3953 -1.8046  0.8111
18636TIP3   OH277322   1.707   4.349  16.811  0.5654  0.0626 -0.1384
18636TIP3    H177323   1.644   4.381  16.876  2.1484  1.4210  0.7905
18636TIP3    H277324   1.775   4.416  16.807  0.0968  0.5574 -3.9714
18637TIP3   OH277325   4.638   4.343  16.688 -0.0894 -0.5651 -0.1935
18637TIP3    H177326   4.650   4.250  16.707  0.4337 -0.6893 -1.0708
18637TIP3    H277327   4.560   4.347  16.632 -0.3585 -0.4297  0.1885
18638TIP3   OH277328   4.478   2.322  11.675 -0.4142 -0.1255  0.0701
18638TIP3    H177329   4.425   2.329  11.596 -0.0645  0.2515 -0.1349
18638TIP3    H277330   4.436   2.381  11.738  0.4536  1.1443 -0.4914
18639TIP3   OH277331   6.209   6.410   1.523 -0.0021 -0.7118 -0.7377
18639TIP3    H177332   6.181   6.381   1.437 -0.5793 -0.8004 -0.5240
18639TIP3    H277333   6.286   6.357   1.543 -1.0952 -2.2087 -0.3055
18640TIP3   OH277334   4.854   6.203   5.776 -0.2768 -0.5852  0.0128
18640TIP3    H177335   4.788   6.178   5.841 -0.8050  1.0257  0.1326
18640TIP3    H277336   4.905   6.272   5.819  0.5605 -0.7910 -0.6248
18641TIP3   OH277337   1.236   0.992  12.682  0.0942 -0.4176  0.1110
18641TIP3    H177338   1.288   0.957  12.754 -1.3246  1.2334  2.0419
18641TIP3    H277339   1.301   1.022  12.618  1.3777 -2.7966  0.1665
18642TIP3   OH277340   1.807   2.033   5.566 -0.1711  0.1754  0.0197
18642TIP3    H177341   1.721   2.011   5.531 -0.2206  0.3301  0.0439
18642TIP3    H277342   1.839   2.103   5.509 -0.3113  0.5244  0.3672
18643TIP3   OH277343   1.159   3.218   2.742  0.2985  0.2684  0.3353
18643TIP3    H177344   1.229   3.197   2.680 -1.5630 -1.9666 -1.1667
18643TIP3    H277345   1.091   3.259   2.689 -0.8965 -0.6845  1.0706
18644TIP3   OH277346   1.803   0.859   0.774 -0.4020 -0.2016 -0.1146
18644TIP3    H177347   1.722   0.878   0.822 -0.0338 -0.2600  0.5472
18644TIP3    H277348   1.783   0.881   0.683 -0.8051  0.8524  0.2125
18645TIP3   OH277349   2.442   0.676  13.816  0.2936 -0.3258 -0.4729
18645TIP3    H177350   2.499   0.749  13.790 -0.1306 -0.6440 -2.4530
18645TIP3    H277351   2.447   0.615  13.743 -1.0468 -1.2848  0.2046
18646TIP3   OH277352   5.662   5.913   2.146 -0.4208  0.7535 -0.3669
18646TIP3    H177353   5.572   5.923   2.179 -0.0682 -2.4163  2.0201
18646TIP3    H277354   5.709   5.988   2.182 -1.3228  0.3840  1.7205
18647TIP3   OH277355   5.149   3.700  11.338 -0.2625  0.2282 -0.8327
18647TIP3    H177356   5.233   3.679  11.379 -0.5974  0.0985 -0.1974
18647TIP3    H277357   5.143   3.795  11.345 -0.4127  0.1870 -0.3898
18648TIP3   OH277358   1.342   0.510   3.037 -0.0847  0.4283  0.1616
18648TIP3    H177359   1.352   0.532   3.129 -0.7200  1.3343  0.0309
18648TIP3    H277360   1.284   0.578   3.002  0.0585  0.0398 -0.8794
18649TIP3   OH277361   4.938   4.135  12.889  0.4103 -0.4132  0.1263
18649TIP3    H177362   4.915   4.194  12.818  0.7661 -1.8118 -1.2217
18649TIP3    H277363   4.867   4.143  12.952 -0.8024 -0.3764 -1.2003
18650TIP3   OH277364   2.891   0.413   1.007  0.1511 -0.1802  0.4006
18650TIP3    H177365   2.810   0.458   1.031 -0.9647 -2.3491  0.9206
18650TIP3    H277366   2.881   0.395   0.914 -1.1538 -2.5419  0.9078
18651TIP3   OH277367   4.215   1.056   3.702 -0.0667 -0.1987 -0.4577
18651TIP3    H177368   4.147   0.989   3.694 -1.0161  0.5736  0.8108
18651TIP3    H277369   4.183   1.115   3.769  3.0040 -1.1574  2.1148
18652TIP3   OH277370   6.294   1.107   4.520 -0.0806  0.1125 -0.0210
18652TIP3    H177371   6.257   1.051   4.452 -1.3209  0.1292  0.6271
18652TIP3    H277372   6.380   1.069   4.538  0.2598  0.0760 -1.5497
18653TIP3   OH277373   0.360   0.026   2.278 -0.4377 -0.0718 -0.1243
18653TIP3    H177374   0.331   0.093   2.215 -0.9538  0.5182  0.7182
18653TIP3    H277375   0.453   0.014   2.259 -0.3033  0.9881 -0.2183
18654TIP3   OH277376   1.102   4.769   0.343 -0.1687 -0.1172 -0.4437
18654TIP3    H177377   1.106   4.727   0.429 -1.3614 -0.9324 -0.7620
18654TIP3    H277378   1.112   4.862   0.361 -1.3038 -0.1885  0.6892
18655TIP3   OH277379   1.902   6.558   4.124 -0.4080 -0.5628  0.1573
18655TIP3    H177380   1.883   6.639   4.075 -1.5836 -1.3411 -0.7393
18655TIP3    H277381   1.997   6.561   4.138 -0.3889  0.8626 -0.0452
18656TIP3   OH277382   4.280   3.111  15.121 -0.7379  0.3956  0.4367
18656TIP3    H177383   4.292   3.017  15.118 -0.2375  0.4635  0.2881
18656TIP3    H277384   4.188   3.124  15.096 -0.2198  0.0958 -1.8773
18657TIP3   OH277385   3.695   6.536  13.726 -0.3110 -0.7360  0.6069
18657TIP3    H177386   3.641   6.563  13.800 -0.2956 -1.5895  0.9400
18657TIP3    H277387   3.649   6.570  13.649  0.0159  0.7240  1.0306
18658TIP3   OH277388   4.740   6.208   2.389  0.4979  0.2570 -0.6874
18658TIP3    H177389   4.821   6.245   2.355  0.4669  0.9075 -0.0773
18658TIP3    H277390   4.722   6.258   2.469  1.1528 -1.9426  0.9141
18659TIP3   OH277391   1.415   4.232  15.799  0.0018 -0.1995 -0.3797
18659TIP3    H177392   1.464   4.251  15.719 -2.0021 -0.3041 -1.7054
18659TIP3    H277393   1.427   4.138  15.813 -0.0268 -0.2680 -0.8224
18660TIP3   OH277394   1.741   2.250  14.419 -0.4658  0.3297  0.6273
18660TIP3    H177395   1.715   2.190  14.348  0.0093  0.2991  0.4748
18660TIP3    H277396   1.747   2.336  14.377 -1.0757  0.4702  0.8313
18661TIP3   OH277397   4.730   6.372   1.380  0.7131 -0.7475  0.2090
18661TIP3    H177398   4.681   6.291   1.366  0.2392 -0.4617  0.1640
18661TIP3    H277399   4.676   6.440   1.338 -0.2256 -0.0129  2.4315
18662TIP3   OH277400   2.279   1.268   4.226  0.1636 -0.1816 -0.5931
18662TIP3    H177401   2.258   1.247   4.135 -1.5072 -1.9315  0.1416
18662TIP3    H277402   2.261   1.361   4.234 -0.9896 -0.2872 -1.7221
18663TIP3   OH277403   0.704   3.990   1.708 -0.3296 -0.0959 -0.4340
18663TIP3    H177404   0.629   4.039   1.673 -1.9009  0.7206  3.5843
18663TIP3    H277405   0.756   4.055   1.755  0.1827 -1.4850  0.9868
18664TIP3   OH277406   0.882   1.014  14.478 -0.1655  0.4272 -0.5092
18664TIP3    H177407   0.854   1.042  14.391  0.3348  1.0884 -0.4592
18664TIP3    H277408   0.801   0.984  14.520 -0.3783 -0.1069 -1.2695
18665TIP3   OH277409   5.558   6.641  11.124 -0.0667  0.3441  0.9364
18665TIP3    H177410   5.511   6.571  11.078 -0.4329  1.1936 -0.0248
18665TIP3    H277411   5.491   6.707  11.141  1.0549  2.6796 -2.5902
18666TIP3   OH277412   1.623   3.334  12.701  0.2295 -0.0794  0.0074
18666TIP3    H177413   1.592   3.397  12.637 -0.9043 -1.2751 -0.6847
18666TIP3    H277414   1.684   3.278  12.653  1.8389  0.9231  0.8129
18667TIP3   OH277415   0.536   3.966   0.370  0.4923 -0.1079  0.6232
18667TIP3    H177416   0.604   3.915   0.413 -0.3296 -0.2508  1.8000
18667TIP3    H277417   0.499   4.020   0.439  0.3020  0.9552 -0.2816
18668TIP3   OH277418   0.958   2.444   0.508  0.5122 -0.3430 -0.1692
18668TIP3    H177419   0.880   2.401   0.472 -1.9905  1.2540  2.8263
18668TIP3    H277420   0.969   2.522   0.454  0.7052 -1.1017 -1.2515
18669TIP3   OH277421   2.947   3.813  16.005  0.0507  0.1101 -0.3819
18669TIP3    H177422   2.880   3.853  15.950  0.4945  1.2705 -0.1043
18669TIP3    H277423   2.935   3.854  16.091  1.8427  1.2558 -0.6060
18670TIP3   OH277424   3.736   4.045   0.935  0.1136 -0.6514  0.0078
18670TIP3    H177425   3.753   3.981   1.004  1.3393  0.4873  0.8166
18670TIP3    H277426   3.804   4.027   0.869 -0.8383 -1.5114 -0.7599
18671TIP3   OH277427   6.582   3.548  14.672  0.3820  0.1766  0.1187
18671TIP3    H177428   6.541   3.524  14.590 -0.7692  1.9062  0.1473
18671TIP3    H277429   6.547   3.635  14.693 -0.2091 -0.6353  2.9801
18672TIP3   OH277430   2.302   6.638  16.760 -0.8776  0.0458 -0.7443
18672TIP3    H177431   2.391   6.640  16.725 -0.5485 -0.5295  0.0193
18672TIP3    H277432   2.252   6.587  16.696 -0.5239 -0.1285 -0.8847
18673TIP3   OH277433   5.050   0.784  16.387 -0.1958 -0.4259  0.5703
18673TIP3    H177434   5.005   0.865  16.363 -0.9318 -0.7384  0.8651
18673TIP3    H277435   5.068   0.741  16.303  3.0733  1.4785  0.1146
18674TIP3   OH277436   1.171   6.648   2.554  0.2671 -0.3323 -0.2420
18674TIP3    H177437   1.258   6.617   2.579 -0.2891 -2.4090 -0.6732
18674TIP3    H277438   1.182   6.741   2.535  2.3531 -0.5375 -0.1627
18675TIP3   OH277439   1.942   5.347   5.466 -0.0080 -0.1697  0.4755
18675TIP3    H177440   1.982   5.359   5.380  0.5240 -0.3343  0.6963
18675TIP3    H277441   2.005   5.293   5.514 -1.1018 -1.5678  0.3880
18676TIP3   OH277442   2.297   5.117  16.616  0.0679  0.1281  0.1217
18676TIP3    H177443   2.206   5.142  16.632 -0.0704 -0.5135  0.3547
18676TIP3    H277444   2.295   5.073  16.531 -0.1124 -1.2416  0.8037
18677TIP3   OH277445   5.496   3.149  13.290  0.3606 -0.5670 -0.0241
18677TIP3    H177446   5.572   3.120  13.240  0.2007 -2.5423  0.8123
18677TIP3    H277447   5.527   3.156  13.380  0.2206  1.3619 -0.0793
18678TIP3   OH277448   2.636   3.695   5.191  0.2995  0.0594  0.0212
18678TIP3    H177449   2.551   3.726   5.162  0.0123 -0.1829  0.5953
18678TIP3    H277450   2.699   3.742   5.137 -0.2414 -2.1551 -2.7557
18679TIP3   OH277451   3.885   3.099  12.851 -0.4673  0.2260 -0.3166
18679TIP3    H177452   3.966   3.074  12.807 -0.9380 -2.1064 -0.0219
18679TIP3    H277453   3.817   3.051  12.805 -1.2812 -0.3122  1.3473
18680TIP3   OH277454   0.103   1.867   6.384  0.3988  0.0645  0.1100
18680TIP3    H177455   0.156   1.799   6.343  1.5071  0.5714  0.6720
18680TIP3    H277456   0.017   1.857   6.344  1.1651 -0.1236 -1.5801
18681TIP3   OH277457   5.812   0.608  12.433  0.3249 -0.3503 -0.0127
18681TIP3    H177458   5.853   0.608  12.346  2.0443  0.2374  0.7735
18681TIP3    H277459   5.881   0.580  12.493 -0.7374 -0.3982  1.2288
18682TIP3   OH277460   0.255   5.504   3.915  0.6883  0.0754  0.0758
18682TIP3    H177461   0.257   5.454   3.996 -0.4241  1.3151  0.8986
18682TIP3    H277462   0.163   5.510   3.891  1.0665 -1.4135 -2.0617
18683TIP3   OH277463   1.315   5.228  15.359 -0.1862 -0.0764  0.1924
18683TIP3    H177464   1.232   5.271  15.380  0.1279  1.1489 -0.9857
18683TIP3    H277465   1.303   5.194  15.271  0.4956 -0.0556  0.0876
18684TIP3   OH277466   4.200   4.640  15.566 -0.3507 -0.3762 -0.1130
18684TIP3    H177467   4.134   4.579  15.599 -0.2069 -0.0806  0.7467
18684TIP3    H277468   4.154   4.724  15.562 -0.1602 -0.2676  0.0207
18685TIP3   OH277469   5.560   6.046   3.548 -0.1313 -0.2550  0.4466
18685TIP3    H177470   5.562   6.133   3.509 -1.3882  0.5829  2.1192
18685TIP3    H277471   5.525   5.990   3.479 -0.8520  0.8777 -0.1387
18686TIP3   OH277472   5.458   0.822  11.682  0.5205 -0.7261  0.0983
18686TIP3    H177473   5.369   0.832  11.714  0.2601 -3.4072  0.4347
18686TIP3    H277474   5.514   0.834  11.759  0.2594 -1.6079  0.4341
18687TIP3   OH277475   2.614   3.093  14.511  0.3531 -0.5914  0.4120
18687TIP3    H177476   2.668   3.066  14.436 -1.3217  1.2618 -1.5927
18687TIP3    H277477   2.660   3.058  14.587  3.3084 -0.7831 -1.3032
18688TIP3   OH277478   0.289   5.274   5.303 -0.3460  0.2719 -0.3832
18688TIP3    H177479   0.232   5.205   5.267 -2.0729  0.8762  1.0365
18688TIP3    H277480   0.332   5.233   5.378 -0.4068  0.3781 -0.2906
18689TIP3   OH277481   6.351   5.721   5.527 -0.1859 -0.1037 -0.2619
18689TIP3    H177482   6.349   5.637   5.480  0.6924 -0.8600  0.9889
18689TIP3    H277483   6.262   5.729   5.562 -0.3693 -0.3568 -0.6542
18690TIP3   OH277484   0.042   1.483  14.355 -0.0160  0.7502  0.3599
18690TIP3    H177485   0.106   1.508  14.289 -1.0423  0.3549 -0.8268
18690TIP3    H277486   0.012   1.566  14.393  3.6126  0.9053  3.4449
18691TIP3   OH277487   0.239   6.526  15.117 -0.1065  0.6514 -0.0998
18691TIP3    H177488   0.301   6.543  15.188  0.1553 -2.3616  0.5624
18691TIP3    H277489   0.153   6.534  15.159  0.0428 -0.8590  0.5702
18692TIP3   OH277490   0.044   3.985  14.797 -0.1763  0.1474 -0.5838
18692TIP3    H177491  -0.051   3.987  14.810 -0.1570 -1.0594 -0.1578
18692TIP3    H277492   0.056   3.954  14.707 -0.1806  0.7387 -0.7940
18693TIP3   OH277493   4.013   5.170  16.923  0.7001  0.4133  0.5954
18693TIP3    H177494   3.975   5.255  16.947  0.8725  0.4218  0.8393
18693TIP3    H277495   4.027   5.176  16.828 -0.6061  0.1359  0.3641
18694TIP3   OH277496   0.791   5.830  10.333  0.1599  0.2382  0.0084
18694TIP3    H177497   0.745   5.774  10.272 -1.3565  1.0169  0.3815
18694TIP3    H277498   0.775   5.919  10.301  1.2705  0.5355  0.2478
18695TIP3   OH277499   4.757   3.008   4.259  0.0933  0.5330 -0.1505
18695TIP3    H177500   4.754   3.026   4.353 -0.5137  0.6199 -0.1814
18695TIP3    H277501   4.849   2.989   4.241 -0.2821 -3.5652  1.2268
18696TIP3   OH277502   5.691   4.724  17.166  0.5201  0.4015  0.7254
18696TIP3    H177503   5.607   4.760  17.140  1.3403  2.1818  0.3531
18696TIP3    H277504   5.712   4.769  17.248  1.7901  1.1692  0.0129
18697TIP3   OH277505   0.113   3.920  13.471 -0.5888 -0.3358 -0.5089
18697TIP3    H177506   0.135   3.881  13.556  0.0354  0.3408 -0.3453
18697TIP3    H277507   0.040   3.980  13.491  0.0651  0.4042 -0.2925
18698TIP3   OH277508   0.272   2.131  14.878  0.1985 -0.3433  0.2566
18698TIP3    H177509   0.260   2.077  14.800  3.2181 -0.5207 -0.1932
18698TIP3    H277510   0.361   2.111  14.908 -0.6879  0.0834  3.5039
18699TIP3   OH277511   0.450   6.720  12.322  0.6928 -0.3971 -0.1393
18699TIP3    H177512   0.430   6.796  12.377 -1.3484 -3.2911  3.5319
18699TIP3    H277513   0.542   6.700  12.339  1.4207  1.4224 -1.5802
18700TIP3   OH277514   1.232   1.002  11.218  0.4851 -0.1936  0.5762
18700TIP3    H177515   1.297   1.037  11.158  0.9234  1.1129  1.7558
18700TIP3    H277516   1.283   0.956  11.285  0.0224 -1.3848  0.1383
18701TIP3   OH277517   4.442   5.979   3.633 -0.1325 -0.2448 -0.6037
18701TIP3    H177518   4.421   5.996   3.725  0.3680 -0.1825 -0.4989
18701TIP3    H277519   4.483   5.892   3.633 -1.3938 -0.8613 -0.9542
18702TIP3   OH277520   4.660   5.534   0.486  0.1042 -0.1673 -0.0959
18702TIP3    H177521   4.635   5.622   0.457 -0.2375 -0.4530 -0.6781
18702TIP3    H277522   4.606   5.476   0.434  0.9035 -0.7569 -0.2723
18703TIP3   OH277523   4.178   6.099  12.498 -0.0132 -0.1905  0.2486
18703TIP3    H177524   4.260   6.075  12.542  0.7291  2.1824  0.3165
18703TIP3    H277525   4.133   6.016  12.483  0.8842 -1.3515  3.1594
18704TIP3   OH277526   4.890   3.420  12.606 -0.2080  0.2240 -0.5096
18704TIP3    H177527   4.917   3.486  12.669  1.5175  0.7178 -1.7038
18704TIP3    H277528   4.873   3.469  12.525  0.4440 -0.6923 -1.2244
18705TIP3   OH277529   5.255   6.774   5.757  0.3962  0.5183 -0.2881
18705TIP3    H177530   5.279   6.689   5.721 -0.7618  0.0479  0.0223
18705TIP3    H277531   5.215   6.821   5.684  0.2315  0.4634 -0.2334
18706TIP3   OH277532   6.722   1.720  14.447  0.0379  0.1531  0.8511
18706TIP3    H177533   6.775   1.790  14.407  1.2657 -0.7742  0.8092
18706TIP3    H277534   6.633   1.755  14.445  0.2030  0.6557 -1.6192
18707TIP3   OH277535   2.694   2.750   0.374  0.3066  0.0584  0.2700
18707TIP3    H177536   2.694   2.654   0.373 -0.1725  0.0540  0.5647
18707TIP3    H277537   2.652   2.773   0.457 -0.5694  0.5300 -0.2903
18708TIP3   OH277538   5.231   6.012   0.365 -0.6502 -0.1724 -0.5372
18708TIP3    H177539   5.157   5.972   0.320 -2.2730  0.5428  1.3605
18708TIP3    H277540   5.307   5.965   0.332 -2.0853 -2.0054 -1.4177
18709TIP3   OH277541   5.378   4.242  15.904 -0.0771 -0.4099  0.1713
18709TIP3    H177542   5.301   4.185  15.906 -0.3348 -0.0490  0.6827
18709TIP3    H277543   5.346   4.322  15.862  0.5785 -1.0567 -1.6609
18710TIP3   OH277544   3.098   6.532  12.320  0.2433  0.8488 -0.8244
18710TIP3    H177545   3.008   6.563  12.318 -0.4201 -0.9306 -2.1738
18710TIP3    H277546   3.112   6.503  12.410 -0.1763  2.0388 -0.3589
18711TIP3   OH277547   1.963   3.576   2.122 -0.6594 -0.5850 -0.0572
18711TIP3    H177548   2.030   3.509   2.109 -2.0332 -1.8278 -1.0529
18711TIP3    H277549   1.893   3.531   2.171 -0.5716  0.8329  1.4585
18712TIP3   OH277550   3.726   4.080   0.546 -0.1275 -0.2687  0.0415
18712TIP3    H177551   3.797   4.042   0.598  1.3578  0.7806 -1.1451
18712TIP3    H277552   3.649   4.030   0.572  1.4009 -2.9532 -0.2013
18713TIP3   OH277553   2.188   4.481   5.429 -0.0519  0.1375 -0.0525
18713TIP3    H177554   2.198   4.576   5.417  0.5439  0.3556  1.8886
18713TIP3    H277555   2.096   4.464   5.409 -0.3276  1.2309  0.2106
18714TIP3   OH277556   1.179   1.300  11.144  0.4198 -0.3614  0.2519
18714TIP3    H177557   1.154   1.294  11.236 -0.7809 -0.6689 -0.0726
18714TIP3    H277558   1.121   1.238  11.100 -0.2834  1.0980 -0.9495
18715TIP3   OH277559   5.772   2.198  15.361 -0.1111  0.0035  0.2780
18715TIP3    H177560   5.832   2.187  15.435 -2.2314  0.7782  2.2182
18715TIP3    H277561   5.800   2.280  15.320 -0.3020  0.7604  1.6322
18716TIP3   OH277562   2.575   0.205  13.294 -0.3403  0.8494 -0.0011
18716TIP3    H177563   2.560   0.122  13.250 -1.5491  0.4613  1.0687
18716TIP3    H277564   2.498   0.216  13.350 -0.1142  2.6001  0.0188
18717TIP3   OH277565   3.557   4.838   6.373  0.2562 -0.4664  0.8074
18717TIP3    H177566   3.603   4.804   6.296  0.0409  1.6728 -0.3506
18717TIP3    H277567   3.595   4.926   6.386 -0.2085 -0.5067  2.7372
18718TIP3   OH277568   4.182   2.453  11.622 -0.4339  0.1674 -0.1035
18718TIP3    H177569   4.204   2.471  11.713  0.0077 -0.4958 -0.0751
18718TIP3    H277570   4.158   2.360  11.621 -2.2254  0.5977 -0.3227
18719TIP3   OH277571   2.031   5.075  12.214  0.0395 -0.1904  0.9561
18719TIP3    H177572   1.970   5.025  12.268 -0.1105 -0.6629  0.3640
18719TIP3    H277573   2.018   5.166  12.240 -3.3211  0.1797 -1.3670
18720TIP3   OH277574   5.027   5.231  10.676  0.1100 -0.2302  0.5401
18720TIP3    H177575   5.106   5.278  10.704  0.7899 -0.0319 -1.5084
18720TIP3    H277576   4.980   5.294  10.622 -1.2145 -0.5166  1.3326
18721TIP3   OH277577   0.495   5.765   2.399  0.1213  0.2026 -0.1530
18721TIP3    H177578   0.442   5.690   2.426  0.9294 -0.1248  0.5774
18721TIP3    H277579   0.552   5.781   2.474  0.5428  1.0091 -0.6431
18722TIP3   OH277580   6.694   6.258  11.984  0.1590  0.3086  0.5341
18722TIP3    H177581   6.738   6.195  11.927  0.5424  2.1910 -1.4277
18722TIP3    H277582   6.756   6.330  11.993 -0.9938  1.2809  1.0254
18723TIP3   OH277583   2.581   2.370  12.880 -0.3142  0.3180 -0.1906
18723TIP3    H177584   2.532   2.453  12.882  1.9715  1.8454 -1.8478
18723TIP3    H277585   2.548   2.325  12.803  0.6816  1.2991 -1.2448
18724TIP3   OH277586   2.773   3.380  11.103 -0.5362  0.3885  0.0357
18724TIP3    H177587   2.678   3.381  11.119 -0.4542  0.1413  0.5585
18724TIP3    H277588   2.795   3.471  11.083 -0.7618  0.5892  0.6708
18725TIP3   OH277589   6.779   2.381   6.228 -0.0871 -0.4807 -0.0954
18725TIP3    H177590   6.749   2.303   6.275  1.0217 -1.4080 -0.8643
18725TIP3    H277591   6.807   2.441   6.296 -0.3208 -1.0244  0.4891
18726TIP3   OH277592   0.605   6.728   2.213 -0.0043  0.5004  0.5110
18726TIP3    H177593   0.697   6.712   2.232 -0.2866 -0.9271  0.7578
18726TIP3    H277594   0.576   6.650   2.166 -0.6721  1.6613 -1.1097
18727TIP3   OH277595   4.647   4.076  14.416 -0.8232  0.1604  0.1425
18727TIP3    H177596   4.705   4.121  14.477 -0.4042  0.5078 -0.4912
18727TIP3    H277597   4.565   4.124  14.421 -1.4354 -0.9821  1.8318
18728TIP3   OH277598   3.159   0.790   4.825  0.0283  0.6005 -0.5224
18728TIP3    H177599   3.186   0.707   4.865  0.4310  0.1748 -1.6438
18728TIP3    H277600   3.157   0.852   4.898  0.5781 -0.1902  0.1868
18729TIP3   OH277601   0.183   5.800   4.884  0.0174  0.1720  0.5319
18729TIP3    H177602   0.132   5.720   4.869  0.6057  0.0034 -0.6565
18729TIP3    H277603   0.121   5.861   4.925 -0.9971 -0.1962 -0.4156
18730TIP3   OH277604   6.576   4.104  16.149 -0.3458  0.4131  1.0495
18730TIP3    H177605   6.636   4.178  16.135 -0.9518  0.6104 -0.9443
18730TIP3    H277606   6.499   4.143  16.188 -1.2855  1.2328 -1.3909
18731TIP3   OH277607   4.990   0.337   5.357  0.7180 -0.0857 -0.5474
18731TIP3    H177608   5.038   0.263   5.322 -0.9287 -0.7858 -1.4502
18731TIP3    H277609   5.033   0.414   5.320  2.4054 -0.5440  0.3577
18732TIP3   OH277610   4.243   0.718   2.006  0.2489  0.0223  0.2468
18732TIP3    H177611   4.195   0.780   2.061 -1.3032 -0.6723 -0.2536
18732TIP3    H277612   4.335   0.731   2.029 -0.1929  1.1801  1.4945
18733TIP3   OH277613   6.401   5.772  11.973  0.9497  0.4626  0.0296
18733TIP3    H177614   6.439   5.831  11.908 -0.9526  2.3609  0.5138
18733TIP3    H277615   6.424   5.811  12.057  2.0495 -1.0990  0.4899
18734TIP3   OH277616   4.771   1.957  13.488 -0.1994 -0.8729 -0.0107
18734TIP3    H177617   4.793   1.869  13.458  0.7153 -1.2634  1.6507
18734TIP3    H277618   4.842   2.012  13.455  1.5636 -1.5297  2.3763
18735TIP3   OH277619   3.944   2.243  15.393  0.3000  0.0594  0.3215
18735TIP3    H177620   3.860   2.271  15.430  1.1454  0.8700  1.6865
18735TIP3    H277621   4.010   2.276  15.454  1.8131  1.7478 -2.0649
18736TIP3   OH277622   1.195   1.396  15.841  0.4925 -0.1207 -0.1523
18736TIP3    H177623   1.156   1.330  15.782  0.8203 -0.8666  0.4517
18736TIP3    H277624   1.123   1.420  15.900  0.6066 -0.6013  0.1898
18737TIP3   OH277625   3.923   2.245  16.815  0.0910 -0.3313  0.0752
18737TIP3    H177626   3.856   2.183  16.845 -0.3997  0.3720  0.4472
18737TIP3    H277627   3.883   2.287  16.738  0.5782 -0.7477 -0.4106
18738TIP3   OH277628   6.340   2.359  13.012  0.2226 -0.2298 -0.4238
18738TIP3    H177629   6.322   2.453  13.014  2.2671  0.2015 -0.3782
18738TIP3    H277630   6.420   2.351  12.960  0.4632 -1.8783  0.1414
18739TIP3   OH277631   2.295   5.179  15.291  0.2000  0.1502  0.1768
18739TIP3    H177632   2.206   5.162  15.322  0.9192 -2.2287  1.1123
18739TIP3    H277633   2.330   5.242  15.355  0.0889 -1.0997  1.5317
18740TIP3   OH277634   3.040   6.361   4.519  0.0588 -0.4229 -0.1706
18740TIP3    H177635   3.021   6.327   4.607  1.5246 -0.3184  0.2219
18740TIP3    H277636   3.012   6.292   4.460  0.2635 -1.0648  0.4603
18741TIP3   OH277637   0.860   5.902  14.665 -0.4523  0.0828 -0.1036
18741TIP3    H177638   0.836   5.945  14.583 -2.2483  0.5284  0.6213
18741TIP3    H277639   0.846   5.809  14.649  2.0436 -0.2067 -1.1984
18742TIP3   OH277640   1.710   3.410   1.960  0.1527 -0.2352 -0.1146
18742TIP3    H177641   1.734   3.343   1.896  1.5163  0.5301 -0.4232
18742TIP3    H277642   1.714   3.364   2.045 -2.1229 -1.3806 -0.5210
18743TIP3   OH277643   2.919   5.280  15.300 -0.1237  0.0010 -0.1582
18743TIP3    H177644   2.919   5.263  15.206  1.2053 -0.4551 -0.0951
18743TIP3    H277645   2.952   5.370  15.308 -1.1029  0.3693 -0.1638
18744TIP3   OH277646   0.582   1.721  15.489  0.2170  0.0573  0.2741
18744TIP3    H177647   0.585   1.633  15.526  0.3141 -0.2403 -0.4289
18744TIP3    H277648   0.666   1.760  15.512  0.4246 -0.2551  0.0536
18745TIP3   OH277649   5.522   4.213  13.801  0.6287  0.0058 -0.2240
18745TIP3    H177650   5.525   4.118  13.795  3.7275 -0.1102  1.2548
18745TIP3    H277651   5.432   4.233  13.827  0.5203 -2.7218  1.8747
18746TIP3   OH277652   2.361   3.626   1.321  0.5808 -0.6861 -0.1752
18746TIP3    H177653   2.354   3.688   1.249 -0.8387 -0.7789 -0.1495
18746TIP3    H277654   2.396   3.546   1.280 -1.4571 -1.1834 -1.0946
18747TIP3   OH277655   3.122   4.727  10.204  0.3411  0.2136 -0.1899
18747TIP3    H177656   3.031   4.739  10.230 -0.1098  2.0529 -2.3624
18747TIP3    H277657   3.156   4.816  10.194  1.0401 -0.3306 -3.7088
18748TIP3   OH277658   6.307   1.365   5.478 -0.3283 -0.1730 -0.2140
18748TIP3    H177659   6.387   1.314   5.491 -0.1703 -0.5270 -2.2742
18748TIP3    H277660   6.338   1.449   5.443 -0.8013  0.1624  0.1449
18749TIP3   OH277661   1.955   3.394   3.469  0.0958  0.3177  0.1162
18749TIP3    H177662   1.862   3.418   3.467  0.3200  1.2654 -2.5740
18749TIP3    H277663   2.000   3.477   3.484  0.5455 -0.0531  0.8629
18750TIP3   OH277664   3.892   0.059  12.768 -0.3447  0.4627  0.2417
18750TIP3    H177665   3.822   0.027  12.826 -0.0059 -1.2464 -0.2303
18750TIP3    H277666   3.935   0.128  12.819 -0.3369 -0.6783  1.8643
18751TIP3   OH277667   4.885   5.250  16.948  0.2129 -0.4399  0.2600
18751TIP3    H177668   4.922   5.170  16.911  1.2243 -0.5079  1.3599
18751TIP3    H277669   4.917   5.252  17.038 -1.6170  0.0817  0.9331
18752TIP3   OH277670   2.134   5.341  13.108  0.1228  0.0527 -0.4152
18752TIP3    H177671   2.189   5.382  13.174  1.1241 -0.6824 -0.7662
18752TIP3    H277672   2.183   5.264  13.080 -0.2740  0.3365 -1.9992
18753TIP3   OH277673   5.323   3.655  11.546  0.1037 -0.2455 -0.3406
18753TIP3    H177674   5.352   3.745  11.562  0.1667 -0.1681 -0.8930
18753TIP3    H277675   5.287   3.626  11.630 -1.3781  0.8296 -0.5781
18754TIP3   OH277676   6.505   0.159  13.388 -0.2539  0.4442  0.3365
18754TIP3    H177677   6.591   0.199  13.382 -0.7379  1.5233  0.3463
18754TIP3    H277678   6.469   0.167  13.299 -0.6269  0.6708  0.5049
18755TIP3   OH277679   1.935   1.323   3.244  0.6582  0.5749 -0.3656
18755TIP3    H177680   1.871   1.393   3.256 -0.8902 -1.0453  1.6160
18755TIP3    H277681   1.945   1.316   3.149 -1.2917  1.6429 -0.7136
18756TIP3   OH277682   2.810   1.255  12.758  0.1303 -0.2341  0.0712
18756TIP3    H177683   2.817   1.350  12.745  0.2472  0.1226  2.2984
18756TIP3    H277684   2.899   1.226  12.776  0.1697 -0.8771 -1.0831
18757TIP3   OH277685   6.083   3.175  10.855 -0.2072 -0.2087 -0.1143
18757TIP3    H177686   6.101   3.230  10.778  1.6460 -1.9673 -1.0577
18757TIP3    H277687   6.114   3.227  10.929  1.2243  0.1847 -0.9369
18758TIP3   OH277688   1.769   1.163   1.238 -0.0843 -0.1497 -0.5156
18758TIP3    H177689   1.682   1.146   1.201  0.0333  0.5700 -1.1390
18758TIP3    H277690   1.754   1.161   1.333 -0.7093 -0.4168 -0.6111
18759TIP3   OH277691   5.675   4.564   4.611  0.4932  0.1778  0.4979
18759TIP3    H177692   5.650   4.473   4.592 -0.1024  0.2585  0.8685
18759TIP3    H277693   5.610   4.594   4.675  0.6033  0.9110  0.2754
18760TIP3   OH277694   6.068   3.870   0.106  1.0532 -0.5445 -0.2518
18760TIP3    H177695   6.039   3.855   0.016 -0.1242  1.8549 -0.3614
18760TIP3    H277696   6.120   3.950   0.101 -0.0150  0.3063  1.3300
18761TIP3   OH277697   4.291   3.832   3.916 -0.0862 -0.6246  0.2228
18761TIP3    H177698   4.373   3.871   3.948  0.0785  0.7640 -1.7054
18761TIP3    H277699   4.244   3.906   3.877 -1.0269 -1.8947 -1.1251
18762TIP3   OH277700   4.487   3.808  15.165 -0.6446 -0.2345 -0.4443
18762TIP3    H177701   4.455   3.753  15.093  0.4076  0.2375 -1.2991
18762TIP3    H277702   4.503   3.747  15.237  0.2226 -1.0134 -1.2800
18763TIP3   OH277703   0.169   4.164   2.231  0.4854  0.7074 -0.1819
18763TIP3    H177704   0.197   4.166   2.322 -0.6560 -2.2764  0.3475
18763TIP3    H277705   0.084   4.208   2.230 -1.7107 -2.9748  1.2809
18764TIP3   OH277706   3.764   5.307  15.837  0.2385  0.0790  0.0276
18764TIP3    H177707   3.716   5.345  15.764  0.1253  0.8559  0.4849
18764TIP3    H277708   3.754   5.372  15.907  0.1421 -0.7556  0.8024
18765TIP3   OH277709   4.883   5.834  15.506 -0.1081 -0.2693 -0.3855
18765TIP3    H177710   4.928   5.909  15.469 -1.2121  0.5669 -0.0909
18765TIP3    H277711   4.828   5.801  15.435  0.7922 -1.1649 -0.6870
18766TIP3   OH277712   1.746   3.749   1.261 -0.0380 -0.2340  0.5971
18766TIP3    H177713   1.817   3.737   1.324 -0.0078 -0.1652  0.5763
18766TIP3    H277714   1.784   3.723   1.177 -0.0359 -0.1938  0.5854
18767TIP3   OH277715   0.313   6.687   3.418 -0.1948  0.0053  0.2470
18767TIP3    H177716   0.298   6.752   3.350  0.8618  2.1835  1.9604
18767TIP3    H277717   0.229   6.641   3.427 -0.2830 -0.5530 -2.6177
18768TIP3   OH277718   5.783   3.511   5.466 -0.1206 -0.0802 -0.1611
18768TIP3    H177719   5.689   3.508   5.482 -0.2704 -2.8191 -1.1054
18768TIP3    H277720   5.795   3.587   5.409 -1.8077  0.0437 -0.4079
18769TIP3   OH277721   6.116   0.949   4.723  0.4825 -0.0396 -0.1321
18769TIP3    H177722   6.157   1.035   4.712  1.3471 -0.7159 -2.8638
18769TIP3    H277723   6.171   0.905   4.789  1.0328  0.8905  0.0595
18770TIP3   OH277724   6.712   3.061   1.919  0.1303  0.3895 -0.0195
18770TIP3    H177725   6.806   3.071   1.904  0.1189  0.9564  0.2727
18770TIP3    H277726   6.672   3.138   1.878 -0.3788 -0.7031 -1.6751
18771TIP3   OH277727   1.824   0.509  12.748 -0.3577  0.5776 -0.2075
18771TIP3    H177728   1.838   0.482  12.839 -3.3555  0.3345  0.2830
18771TIP3    H277729   1.834   0.605  12.750 -1.5400  0.7057  0.6592
18772TIP3   OH277730   1.947   0.104  15.966  0.1194 -0.0053 -0.1714
18772TIP3    H177731   1.959   0.163  16.040 -1.3326 -1.2541  1.1551
18772TIP3    H277732   2.018   0.040  15.974 -0.5410 -0.6474  0.6984
18773TIP3   OH277733   4.641   1.843   0.917 -0.0456 -0.0690 -0.2418
18773TIP3    H177734   4.597   1.769   0.958 -1.6337  1.0026  0.0966
18773TIP3    H277735   4.593   1.920   0.948  0.4052  0.9787 -1.9683
18774TIP3   OH277736   5.605   5.475  11.293 -0.1919  0.2675  0.4387
18774TIP3    H177737   5.589   5.389  11.331  0.1227  0.4860  1.0849
18774TIP3    H277738   5.700   5.478  11.279  0.0485  1.1122  1.9683
18775TIP3   OH277739   2.005   1.754  15.599  0.2442 -0.1756 -0.3876
18775TIP3    H177740   2.038   1.814  15.666  0.4200 -0.3984 -0.2729
18775TIP3    H277741   1.962   1.684  15.649  0.2359 -0.2599 -0.5117
18776TIP3   OH277742   3.105   1.133  11.595 -0.1207 -0.2224  0.1001
18776TIP3    H177743   3.165   1.063  11.571 -0.1518 -0.5363  0.9150
18776TIP3    H277744   3.020   1.090  11.602 -0.1262 -0.1227  0.6805
18777TIP3   OH277745   6.520   3.802  13.990 -0.1428 -0.2795  0.2603
18777TIP3    H177746   6.528   3.780  13.897  1.1295 -1.2754  0.5707
18777TIP3    H277747   6.592   3.754  14.032 -0.8910 -0.1100  1.8045
18778TIP3   OH277748   5.120   2.149   5.615  0.1684  0.5120 -0.1649
18778TIP3    H177749   5.099   2.195   5.696 -0.1543 -1.7332  1.1214
18778TIP3    H277750   5.194   2.092   5.638  0.0089 -0.2458 -1.4202
18779TIP3   OH277751   6.211   6.784   4.463  0.1969  0.2727  0.0666
18779TIP3    H177752   6.162   6.710   4.427  1.3632 -1.1028  1.1769
18779TIP3    H277753   6.284   6.744   4.511  2.0322  2.2055 -0.9269
18780TIP3   OH277754   5.644   6.529   5.331  0.1707 -0.0966 -0.4989
18780TIP3    H177755   5.611   6.460   5.389 -1.5941  0.1029 -1.1971
18780TIP3    H277756   5.575   6.539   5.265  0.8437  1.6618 -0.9771
18781TIP3   OH277757   6.500   0.040  16.297  0.3030  0.0435 -0.2880
18781TIP3    H177758   6.590   0.010  16.282  0.1334 -0.1241 -1.0445
18781TIP3    H277759   6.472  -0.007  16.375  1.0425  0.4897  0.2565
18782TIP3   OH277760   3.716   5.462  16.361 -0.2170  0.2076  0.0882
18782TIP3    H177761   3.760   5.425  16.438  3.1877 -0.9756 -2.2030
18782TIP3    H277762   3.773   5.534  16.334 -1.5246  0.8068 -1.1871
18783TIP3   OH277763   3.182   2.610  11.605  0.1357 -0.5371  0.1018
18783TIP3    H177764   3.246   2.620  11.535  0.2188 -0.8446  0.1322
18783TIP3    H277765   3.231   2.569  11.677 -0.0668 -0.6670  0.1663
18784TIP3   OH277766   3.916   3.930  11.517 -0.2274 -0.1159  0.3894
18784TIP3    H177767   3.919   4.021  11.546  1.6288 -0.0980  0.2337
18784TIP3    H277768   3.998   3.916  11.471 -0.9285 -1.5939 -0.5028
18785TIP3   OH277769   3.052   1.068   1.296  0.1560  0.4528  0.3776
18785TIP3    H177770   3.101   1.092   1.375  2.0508 -1.6038 -0.0642
18785TIP3    H277771   3.019   1.151   1.263 -1.4126  1.3146  3.6989
18786TIP3   OH277772   3.976   1.132  11.233  0.0182 -0.1120  0.5469
18786TIP3    H177773   3.975   1.226  11.251  0.3978 -0.2758  1.4888
18786TIP3    H277774   3.915   1.121  11.160  0.6458  0.9768 -0.1635
18787TIP3   OH277775   6.050   3.568   5.975 -0.3462  0.3826 -0.6770
18787TIP3    H177776   6.128   3.622   5.963 -0.3295  0.3465 -0.7307
18787TIP3    H277777   6.067   3.518   6.056 -0.2117  0.1987 -0.8177
18788TIP3   OH277778   6.695   1.497  12.815 -1.0330  0.0196 -0.0681
18788TIP3    H177779   6.653   1.514  12.899 -0.5698  0.3912  0.0960
18788TIP3    H277780   6.641   1.429  12.774 -0.2918 -1.4616  1.2902
18789TIP3   OH277781   5.149   6.051   5.862  0.2493 -0.0201  0.3160
18789TIP3    H177782   5.174   6.087   5.947 -0.3624 -0.2381  0.5908
18789TIP3    H277783   5.100   5.972   5.882  0.2607 -0.1805 -0.2473
18790TIP3   OH277784   0.783   6.764   2.508 -0.2093  0.1720 -0.1587
18790TIP3    H177785   0.780   6.778   2.603 -0.6440  0.2930 -0.1901
18790TIP3    H277786   0.712   6.702   2.490  0.5447 -0.6834 -0.2678
18791TIP3   OH277787   5.600   1.247  15.381 -0.2395  0.0537 -0.3385
18791TIP3    H177788   5.545   1.169  15.379  0.6551 -0.5782 -1.3317
18791TIP3    H277789   5.595   1.277  15.472  0.8711 -2.2795  0.6010
18792TIP3   OH277790   3.322   4.944   1.113  0.1856 -0.0044  0.0788
18792TIP3    H177791   3.293   5.018   1.059 -0.3975  0.0401  0.4447
18792TIP3    H277792   3.370   4.985   1.185  0.6947 -0.0463 -0.2298
18793TIP3   OH277793   4.628   6.064   4.228  0.0236  0.0711 -0.1836
18793TIP3    H177794   4.623   6.071   4.132  1.4488 -2.1395 -0.4632
18793TIP3    H277795   4.607   6.153   4.258 -1.7798  0.5276 -2.4594
18794TIP3   OH277796   0.375   6.747   6.833 -0.3068  0.2952  0.3280
18794TIP3    H177797   0.418   6.666   6.861  1.2590  0.2189 -2.0705
18794TIP3    H277798   0.284   6.722   6.818  0.1562 -1.0328 -0.3863
18795TIP3   OH277799   5.802   6.088   2.524 -0.1466  0.0030  0.0578
18795TIP3    H177800   5.854   6.038   2.586 -0.2228  0.3674  0.4203
18795TIP3    H277801   5.864   6.149   2.485 -0.0960 -0.2344 -0.2324
18796TIP3   OH277802   0.801   4.538   1.840 -0.0774 -0.1155 -0.1222
18796TIP3    H177803   0.724   4.579   1.799  0.6782  0.8021 -0.6705
18796TIP3    H277804   0.871   4.551   1.776  0.1105 -2.7913 -0.5878
18797TIP3   OH277805   3.932   0.567   2.640  0.0602 -0.0624 -0.0678
18797TIP3    H177806   3.923   0.607   2.553  1.9295 -0.8926 -0.6930
18797TIP3    H277807   4.021   0.591   2.668 -0.0142 -0.9719  1.0138
18798TIP3   OH277808   4.103   4.228   0.321  0.2148 -0.3035  0.0929
18798TIP3    H177809   4.064   4.177   0.251 -0.5554 -1.2988  1.2138
18798TIP3    H277810   4.109   4.168   0.395  0.9514  0.7298  0.9156
18799TIP3   OH277811   3.541   1.739  16.918 -0.2409 -0.4171  0.2775
18799TIP3    H177812   3.451   1.713  16.936 -0.0842 -1.3846 -0.2575
18799TIP3    H277813   3.533   1.810  16.854 -0.6009 -2.1445 -1.7148
18800TIP3   OH277814   0.664   2.869   0.431  0.0626  0.7212  0.5211
18800TIP3    H177815   0.719   2.933   0.476 -0.2427  0.4077  1.3507
18800TIP3    H277816   0.669   2.790   0.484 -1.3566  0.7521  0.7487
18801TIP3   OH277817   6.704   0.650   1.627 -0.9297  0.2215 -0.1375
18801TIP3    H177818   6.643   0.676   1.557 -0.1655 -0.1859 -0.9689
18801TIP3    H277819   6.704   0.554   1.624  0.2335  0.2198 -0.5842
18802TIP3   OH277820   3.621   5.652   2.691 -0.4115  0.2657 -0.0929
18802TIP3    H177821   3.636   5.696   2.775 -0.2669 -0.1716  0.1127
18802TIP3    H277822   3.708   5.645   2.652  0.0818 -2.5934  1.2596
18803TIP3   OH277823   6.200   4.640  13.650  0.1030 -0.3947 -0.6891
18803TIP3    H177824   6.236   4.582  13.583  0.2386 -2.0639  0.7634
18803TIP3    H277825   6.256   4.626  13.727 -0.7937  0.5405  0.1668
18804TIP3   OH277826   6.242   5.127  14.668 -0.5595 -0.8196  0.4762
18804TIP3    H177827   6.255   5.175  14.750 -1.6546 -0.8036  0.6656
18804TIP3    H277828   6.148   5.137  14.650 -0.3123 -0.7214 -0.8424
18805TIP3   OH277829   1.988   0.856  15.827 -0.1010  0.0097  0.0043
18805TIP3    H177830   2.005   0.875  15.734 -0.6930  1.5412  0.1762
18805TIP3    H277831   1.900   0.818  15.828  0.2329 -0.7916 -0.1272
18806TIP3   OH277832   3.756   1.696   2.364  0.2090  0.3159  0.5074
18806TIP3    H177833   3.797   1.612   2.384 -0.5829 -0.1494  0.2132
18806TIP3    H277834   3.717   1.723   2.447 -0.0756  0.0814  0.4528
18807TIP3   OH277835   1.249   2.064   4.475  0.4182 -0.2097  0.5225
18807TIP3    H177836   1.251   2.106   4.561 -1.2871 -0.8166  0.9064
18807TIP3    H277837   1.312   1.992   4.482 -0.1849 -0.6712  1.5221
18808TIP3   OH277838   3.604   5.966  15.494  0.7312  0.4252 -0.5506
18808TIP3    H177839   3.626   6.042  15.548  2.1772  0.0480 -0.5558
18808TIP3    H277840   3.603   5.893  15.556 -0.6798  0.4298 -0.5393
18809TIP3   OH277841   6.738   3.812  15.535  0.1262 -0.1665  0.1535
18809TIP3    H177842   6.712   3.789  15.446 -1.6534  0.5648  0.4419
18809TIP3    H277843   6.680   3.760  15.591 -1.4231  2.1132  0.8178
18810TIP3   OH277844   0.428   0.930  13.411  0.2894  0.4431 -0.3780
18810TIP3    H177845   0.377   0.849  13.402  0.4302  0.4033 -0.8547
18810TIP3    H277846   0.505   0.903  13.462  0.6145  0.1415 -1.0110
18811TIP3   OH277847   3.532   6.403   0.790  0.3014  0.0057  0.7730
18811TIP3    H177848   3.608   6.402   0.731  1.3920  1.1028  2.0674
18811TIP3    H277849   3.571   6.407   0.877 -1.2260  2.4006  1.4251
18812TIP3   OH277850   4.888   1.948   1.812 -0.1468 -0.0954  0.0376
18812TIP3    H177851   4.980   1.958   1.838  0.0721 -1.9546  0.0969
18812TIP3    H277852   4.850   1.893   1.881 -1.7538  1.9477  0.8904
18813TIP3   OH277853   2.780   2.342   2.891  0.0477 -0.4328 -0.8182
18813TIP3    H177854   2.728   2.422   2.891  0.9320  0.1808 -2.6503
18813TIP3    H277855   2.805   2.330   2.983  0.4977  1.7744 -0.5996
18814TIP3   OH277856   5.569   4.815   0.488  0.1074  0.4966 -0.7305
18814TIP3    H177857   5.633   4.753   0.523 -1.0051 -1.0457 -1.2926
18814TIP3    H277858   5.536   4.862   0.565 -0.8459 -1.4170  0.0912
18815TIP3   OH277859   2.114   4.001  12.843  0.4492  0.7894 -0.0623
18815TIP3    H177860   2.160   3.931  12.797 -0.4828  1.6174 -2.4043
18815TIP3    H277861   2.023   3.993  12.815 -0.2629  1.2009  1.9096
18816TIP3   OH277862   0.361   3.465   4.483  0.4248 -0.3804 -0.6376
18816TIP3    H177863   0.288   3.418   4.522  1.1774 -1.6119 -0.6469
18816TIP3    H277864   0.438   3.414   4.506  1.2075  0.4627 -1.2711
18817TIP3   OH277865   3.399   3.992   4.210  0.5682 -0.3305  0.3771
18817TIP3    H177866   3.403   3.927   4.281  1.1719  0.2256  0.8582
18817TIP3    H277867   3.324   3.964   4.157 -0.9424  0.1696  2.1367
18818TIP3   OH277868   2.766   2.015  15.505 -0.0857  0.7972 -0.0382
18818TIP3    H177869   2.729   1.928  15.519 -0.6578  0.9927 -0.3235
18818TIP3    H277870   2.735   2.066  15.580 -0.3172  0.9345 -0.2255
18819TIP3   OH277871   4.311   3.096   2.113 -0.3224  0.1073 -0.3200
18819TIP3    H177872   4.362   3.097   2.194 -1.5699 -0.3057  0.4892
18819TIP3    H277873   4.276   3.185   2.106 -0.3061  0.1112 -0.3558
18820TIP3   OH277874   0.288   3.854   1.072  0.3190  0.1554  0.1514
18820TIP3    H177875   0.354   3.786   1.059  0.0870  0.1297 -1.0564
18820TIP3    H277876   0.215   3.828   1.014 -1.1936 -0.3421  2.1592
18821TIP3   OH277877   5.135   4.791  13.065  0.0865  0.2758 -0.1070
18821TIP3    H177878   5.092   4.806  12.981 -0.1639 -0.2302 -0.0726
18821TIP3    H277879   5.155   4.697  13.066  2.0278  0.6400 -0.5126
18822TIP3   OH277880   2.378   5.751   4.349 -0.0071 -0.5129  0.4186
18822TIP3    H177881   2.440   5.687   4.386  2.1238  1.5507  0.6680
18822TIP3    H277882   2.380   5.735   4.255  0.6204 -0.7649  0.4655
18823TIP3   OH277883   4.277   5.458  11.264  0.6318  0.3127 -0.2264
18823TIP3    H177884   4.207   5.502  11.215  1.1914  1.1843 -0.2568
18823TIP3    H277885   4.230   5.402  11.327 -0.1012  1.1793  0.0178
18824TIP3   OH277886   3.161   4.675   1.473  0.0598  0.2176 -0.0084
18824TIP3    H177887   3.093   4.627   1.426 -1.3846  1.3469  0.8480
18824TIP3    H277888   3.150   4.766   1.446  1.9093  0.3246 -0.6005
18825TIP3   OH277889   6.580   3.723   5.345  0.2359  0.5125  0.9416
18825TIP3    H177890   6.574   3.816   5.327  1.0734  0.6995  1.5917
18825TIP3    H277891   6.507   3.684   5.296 -0.2193  1.5191  0.8069
18826TIP3   OH277892   6.773   1.734  12.683  0.3385 -0.8564  0.1298
18826TIP3    H177893   6.754   1.645  12.714 -1.5833 -0.9356 -1.0581
18826TIP3    H277894   6.693   1.783  12.703  0.4536 -0.0160 -1.2938
18827TIP3   OH277895   6.101   1.780   4.392 -0.1056 -0.1690 -0.3557
18827TIP3    H177896   6.063   1.733   4.318 -0.5983 -1.8563  0.9239
18827TIP3    H277897   6.028   1.831   4.428  0.1332  0.6487 -0.9849
18828TIP3   OH277898   4.769   1.912  12.693  0.2904  0.1042 -0.1605
18828TIP3    H177899   4.706   1.972  12.733  1.1933  0.8575  0.1686
18828TIP3    H277900   4.716   1.840  12.659 -0.7366  0.7022  0.1449
18829TIP3   OH277901   5.844   1.525   0.408 -0.3001  0.0400 -0.5997
18829TIP3    H177902   5.780   1.513   0.478  0.5513 -1.3196 -0.0011
18829TIP3    H277903   5.794   1.520   0.327 -1.0347 -0.3744 -0.1269
18830TIP3   OH277904   1.095   1.539  15.041 -0.5822 -0.1641  0.1629
18830TIP3    H177905   1.040   1.528  15.119 -1.1934  1.2980 -0.0306
18830TIP3    H277906   1.049   1.490  14.973 -1.7444  1.1356 -0.0251
18831TIP3   OH277907   0.137   5.843   2.339 -0.0448  0.5022  0.8483
18831TIP3    H177908   0.130   5.767   2.281  0.4289  1.7273 -0.9081
18831TIP3    H277909   0.050   5.883   2.337 -0.0556  0.4877  1.0531
18832TIP3   OH277910   4.029   5.694  16.959 -0.0575  0.5167  0.5381
18832TIP3    H177911   4.114   5.660  16.930  0.2769  0.8504  1.1022
18832TIP3    H277912   3.979   5.617  16.985 -0.0829  0.2812 -0.1976
18833TIP3   OH277913   1.668   5.097  11.961 -0.2854 -0.2073 -0.3317
18833TIP3    H177914   1.648   5.031  12.028  0.3846 -0.0279  0.0551
18833TIP3    H277915   1.648   5.181  12.003 -0.1572 -0.1099 -0.4625
18834TIP3   OH277916   2.263   3.884  14.176  0.0197  0.5147  0.2151
18834TIP3    H177917   2.180   3.918  14.143 -0.3208 -0.2668  0.2449
18834TIP3    H277918   2.237   3.823  14.245  0.5408 -0.9118 -0.8188
18835TIP3   OH277919   5.250   1.497   1.057 -0.1720  0.3629 -0.5138
18835TIP3    H177920   5.309   1.435   1.101 -1.4909 -2.6425 -2.6799
18835TIP3    H277921   5.173   1.502   1.114 -0.8163 -1.5130 -1.1606
18836TIP3   OH277922   0.471   1.635  11.787 -0.2372 -1.0361  0.1168
18836TIP3    H177923   0.380   1.649  11.760 -0.0201 -0.3435 -0.2775
18836TIP3    H277924   0.522   1.656  11.709  0.3315 -0.1565  0.7155
18837TIP3   OH277925   4.512   5.450  15.731 -0.0291  0.2460 -0.1103
18837TIP3    H177926   4.607   5.457  15.742  0.1196  0.1575 -1.2317
18837TIP3    H277927   4.478   5.530  15.771  0.6629  1.1455 -1.2460
18838TIP3   OH277928   3.790   4.764   1.621 -0.5164  0.5145 -0.0333
18838TIP3    H177929   3.775   4.710   1.699 -0.0846  1.2107  0.5424
18838TIP3    H277930   3.851   4.714   1.568 -3.1210 -1.4156 -1.4246
18839TIP3   OH277931   4.494   2.612  11.460  0.0379  0.0239 -0.0865
18839TIP3    H177932   4.503   2.546  11.392 -0.4123  0.9547 -1.0904
18839TIP3    H277933   4.584   2.633  11.486  0.3776  1.2811 -2.0521
18840TIP3   OH277934   3.616   2.314  16.842 -0.1752  0.3353  0.3955
18840TIP3    H177935   3.526   2.328  16.811 -0.4934 -2.0603  0.0330
18840TIP3    H277936   3.671   2.344  16.770 -0.7075  1.2588  0.3668
18841TIP3   OH277937   5.922   0.621   5.166  0.3980  0.4606  0.3296
18841TIP3    H177938   5.888   0.634   5.078  0.6254 -3.2083 -0.4565
18841TIP3    H277939   5.851   0.579   5.213  0.9582  0.5790  1.3130
18842TIP3   OH277940   3.613   0.081  15.417 -0.1462  0.4076  0.8238
18842TIP3    H177941   3.567   0.045  15.341  0.2204 -0.6289  1.0810
18842TIP3    H277942   3.546   0.130  15.464 -0.8010 -0.3939  0.7540
18843TIP3   OH277943   3.960   1.974   2.084 -0.2307  0.4506 -0.0412
18843TIP3    H177944   4.013   1.963   2.005  0.2390  0.3007  0.2941
18843TIP3    H277945   4.005   1.924   2.151 -1.4646 -0.7009 -0.0395
18844TIP3   OH277946   5.618   6.032  10.849 -0.4473 -0.4329 -0.2325
18844TIP3    H177947   5.584   5.953  10.807 -0.8596  0.4380 -1.5977
18844TIP3    H277948   5.667   6.076  10.780 -0.6385  0.7506  0.3744
18845TIP3   OH277949   5.189   4.215   1.931 -0.2476 -0.3300  0.2180
18845TIP3    H177950   5.103   4.183   1.902 -0.6064 -0.3575  1.2857
18845TIP3    H277951   5.248   4.193   1.858 -0.8497 -1.6910  0.1092
18846TIP3   OH277952   6.404   5.580   4.413  0.6100  0.2786  0.5433
18846TIP3    H177953   6.384   5.510   4.475 -0.6897  0.8403  0.7856
18846TIP3    H277954   6.469   5.541   4.353  0.5708 -0.8329  1.1921
18847TIP3   OH277955   4.879   6.504  11.853 -0.7418 -0.2007  0.3319
18847TIP3    H177956   4.859   6.597  11.842 -1.3253 -0.2074  1.2232
18847TIP3    H277957   4.795   6.463  11.875 -0.4956 -0.9425 -0.0798
18848TIP3   OH277958   3.406   4.443  11.739 -0.3799 -0.2585  0.6260
18848TIP3    H177959   3.396   4.524  11.689  0.4917 -0.3497  0.2796
18848TIP3    H277960   3.343   4.383  11.700 -2.6556  0.8699  2.3147
18849TIP3   OH277961   6.678   5.220   1.016  0.1489 -0.6229  0.5552
18849TIP3    H177962   6.607   5.265   0.969  1.7003  2.2108  0.7071
18849TIP3    H277963   6.641   5.199   1.101 -0.6733  0.3916  0.4717
18850TIP3   OH277964   3.788   0.275   3.608 -0.5908  0.0440  0.2594
18850TIP3    H177965   3.760   0.366   3.598 -0.6268 -0.1621 -2.1915
18850TIP3    H277966   3.854   0.263   3.540 -2.1924 -2.3306 -1.0287
18851TIP3   OH277967   5.046   0.229   2.772  0.1530  0.0029  0.1222
18851TIP3    H177968   5.101   0.292   2.725  1.0737 -0.8962 -0.0185
18851TIP3    H277969   5.083   0.226   2.860 -0.5700  0.4695  0.4481
18852TIP3   OH277970   3.196   4.392   0.632 -0.2279 -0.3467 -0.5678
18852TIP3    H177971   3.121   4.451   0.640  0.6942  1.2675 -2.8551
18852TIP3    H277972   3.159   4.311   0.595 -1.0919 -0.2443  0.0411
18853TIP3   OH277973   4.017   3.838   3.526  0.0004  0.0923  0.4258
18853TIP3    H177974   4.088   3.802   3.580  0.2730  1.7332  1.2141
18853TIP3    H277975   3.937   3.813   3.573  0.0470 -1.2165 -0.1316
18854TIP3   OH277976   6.117   3.760  14.504 -0.4111  0.5868 -0.2350
18854TIP3    H177977   6.080   3.698  14.442  2.2010 -1.4651  0.0574
18854TIP3    H277978   6.154   3.830  14.450 -0.5180  0.1953 -0.8206
18855TIP3   OH277979   4.801   5.431  12.564  0.1179  0.3852 -0.0020
18855TIP3    H177980   4.893   5.404  12.566 -0.0086 -0.1369 -1.0514
18855TIP3    H277981   4.751   5.350  12.576 -0.2279  0.4299 -1.0706
18856TIP3   OH277982   0.034   3.208   2.243 -0.9116  0.4439 -0.0200
18856TIP3    H177983   0.001   3.170   2.324  1.0058  2.2513  1.7343
18856TIP3    H277984  -0.001   3.297   2.242  1.5534  1.5251  0.5700
18857TIP3   OH277985   0.231   2.808  14.464 -0.0863  0.0512  0.3026
18857TIP3    H177986   0.258   2.855  14.544  1.1998 -0.1078 -0.0150
18857TIP3    H277987   0.260   2.865  14.393  0.0015 -0.4549 -0.0644
18858TIP3   OH277988   1.846   2.922   1.443 -0.2488  0.1193  0.0514
18858TIP3    H177989   1.772   2.919   1.382  0.1475  2.1188 -0.5949
18858TIP3    H277990   1.864   3.015   1.454  1.1341 -0.2783  1.4987
18859TIP3   OH277991   5.412   1.495   4.747 -0.1966  0.1649 -0.2380
18859TIP3    H177992   5.483   1.507   4.810 -0.2236  0.4730 -0.2677
18859TIP3    H277993   5.360   1.423   4.783  0.4919 -0.5114 -0.5391
18860TIP3   OH277994   5.371   6.222   4.529  0.4206  0.1894  0.7130
18860TIP3    H177995   5.460   6.189   4.543  0.2166  0.0761  1.8747
18860TIP3    H277996   5.322   6.147   4.496  0.3288 -0.2820  1.8656
18861TIP3   OH277997   1.502   0.474  12.972  0.1529 -0.0209 -0.6861
18861TIP3    H177998   1.530   0.484  12.881 -0.1782  2.0314 -0.5952
18861TIP3    H277999   1.438   0.543  12.986  0.4330 -0.0865  1.2151
18862TIP3   OH278000   0.213   1.470  15.460  0.0929 -0.1978  0.0446
18862TIP3    H178001   0.210   1.484  15.554 -1.4981 -1.2377  0.1902
18862TIP3    H278002   0.241   1.379  15.450  2.3961  0.5165 -0.5943
18863TIP3   OH278003   2.395   4.967  14.972  0.5808 -0.0745  0.0972
18863TIP3    H178004   2.402   4.873  14.990  0.6977  0.0640  0.7898
18863TIP3    H278005   2.307   4.978  14.937  0.7704 -0.5273 -0.5409
18864TIP3   OH278006   3.858   3.920   3.982  0.3492 -0.5225 -0.4719
18864TIP3    H178007   3.787   3.897   4.042 -0.3389 -1.3471 -1.5878
18864TIP3    H278008   3.824   3.993   3.930  0.6341 -0.3729 -0.4555
18865TIP3   OH278009   5.744   0.516  11.752  0.8996  0.7009  0.2875
18865TIP3    H178010   5.738   0.533  11.658  0.4171  1.7339  0.4880
18865TIP3    H278011   5.714   0.425  11.762  0.2269  0.8261 -0.4855
18866TIP3   OH278012   0.501   1.015  11.704  0.6719  0.2335  0.1329
18866TIP3    H178013   0.573   1.061  11.661  0.8996 -0.9632 -0.8368
18866TIP3    H278014   0.436   1.002  11.635 -0.8006  1.8558  1.1399
18867TIP3   OH278015   1.233   3.944  10.736 -0.3700  0.3482 -0.1994
18867TIP3    H178016   1.182   3.923  10.813 -0.0536 -0.4044 -0.1886
18867TIP3    H278017   1.289   4.017  10.763 -0.5396  0.3459  0.1557
18868TIP3   OH278018   2.219   2.325  12.577  0.2118 -0.3856  0.1933
18868TIP3    H178019   2.130   2.310  12.545 -0.6698  0.3388  2.1393
18868TIP3    H278020   2.266   2.245  12.555 -2.0385 -2.6061  2.7663
18869TIP3   OH278021   1.198   3.303   3.010  0.3372  0.2576  0.0820
18869TIP3    H178022   1.141   3.259   3.074 -0.3174  0.0298 -0.6436
18869TIP3    H278023   1.183   3.256   2.928 -0.7550  2.0880 -0.8425
18870TIP3   OH278024   6.711   2.505  15.015  0.3654 -0.5364  0.0606
18870TIP3    H178025   6.728   2.481  15.106 -0.9586  0.2971  0.5521
18870TIP3    H278026   6.772   2.577  14.997 -0.9294  0.8693  1.0624
18871TIP3   OH278027   6.217   2.221   4.109  0.1505  0.3112 -0.1170
18871TIP3    H178028   6.268   2.223   4.028 -1.0304 -1.5746 -0.9803
18871TIP3    H278029   6.129   2.247   4.082  0.3058  2.3089  1.1149
18872TIP3   OH278030   3.805   0.321  16.999  0.0627  0.1968 -0.0387
18872TIP3    H178031   3.809   0.228  16.975 -0.1915  0.6889 -2.2344
18872TIP3    H278032   3.860   0.365  16.934  1.2724  1.4907  1.7558
18873TIP3   OH278033   5.488   2.472  16.299 -0.4550  0.4053  0.3990
18873TIP3    H178034   5.527   2.548  16.342 -0.9650  0.1943  1.2601
18873TIP3    H278035   5.401   2.464  16.337 -0.4044 -0.6204  0.3444
18874TIP3   OH278036   1.131   6.182  13.325  0.2020 -0.0246 -0.2450
18874TIP3    H178037   1.170   6.242  13.388 -1.7445  1.3028 -0.2106
18874TIP3    H278038   1.072   6.127  13.376  0.2877 -0.4679 -0.6068
18875TIP3   OH278039   5.162   5.053  14.151 -0.1945  0.5211  0.5436
18875TIP3    H178040   5.191   4.962  14.149 -0.3002  0.4884 -0.9141
18875TIP3    H278041   5.144   5.074  14.059  2.2953  2.8109  0.4424
18876TIP3   OH278042   3.889   5.024   1.620  0.4391 -0.0411  0.0569
18876TIP3    H178043   3.853   4.935   1.625 -0.3147  0.2647  0.3029
18876TIP3    H278044   3.984   5.012   1.621  0.3959 -0.9721 -1.9706
18877TIP3   OH278045   3.708   3.926  12.405 -0.3620 -0.0528 -0.2359
18877TIP3    H178046   3.785   3.892  12.450 -0.9326 -0.4853  0.4497
18877TIP3    H278047   3.715   3.892  12.316  1.0277  1.2074 -0.6453
18878TIP3   OH278048   1.072   4.263  15.174 -0.4260 -0.5248 -0.2981
18878TIP3    H178049   1.123   4.245  15.095  0.1511  1.5547 -0.4437
18878TIP3    H278050   1.136   4.297  15.237 -0.9905 -1.5561  0.8844
18879TIP3   OH278051   2.802   3.718   4.757 -0.0331 -0.2312  0.0271
18879TIP3    H178052   2.781   3.804   4.720  0.8489  0.5736  1.2855
18879TIP3    H278053   2.896   3.708   4.742 -0.2648 -1.3816 -0.8407
18880TIP3   OH278054   0.506   2.852  13.335 -0.3198  0.2743 -0.3203
18880TIP3    H178055   0.551   2.900  13.405 -1.1955 -0.1414  0.5499
18880TIP3    H278056   0.530   2.760  13.350  0.7165  0.3175 -1.5070
18881TIP3   OH278057   4.870   4.103   0.669  1.2267  0.2862 -0.1352
18881TIP3    H178058   4.908   4.136   0.588  0.6726  0.5572 -0.2912
18881TIP3    H278059   4.791   4.156   0.682  0.7969 -0.3887  0.0690
18882TIP3   OH278060   5.941   6.023  12.409  1.1164  0.1078 -0.2742
18882TIP3    H178061   5.947   5.942  12.461  2.4696  0.3507 -0.0037
18882TIP3    H278062   5.950   5.993  12.318  0.8286 -0.1261 -0.2261
18883TIP3   OH278063   6.640   1.246   2.839  0.2421  0.1525  0.3710
18883TIP3    H178064   6.674   1.283   2.758 -1.4768  1.3329  0.1203
18883TIP3    H278065   6.663   1.310   2.906  0.6110 -0.2223  0.5986
18884TIP3   OH278066   2.942   5.905  12.842  0.0394 -0.4252 -0.6912
18884TIP3    H178067   3.020   5.930  12.792  1.1171 -1.9082  0.1456
18884TIP3    H278068   2.935   5.971  12.911  0.5397 -0.2447 -0.8091
18885TIP3   OH278069   5.813   6.217   2.029 -0.2639 -0.1652 -0.4356
18885TIP3    H178070   5.856   6.167   1.960 -0.6047  0.2897 -0.9811
18885TIP3    H278071   5.877   6.222   2.100 -0.0272 -0.8988 -0.5924
18886TIP3   OH278072   5.632   6.294   3.075 -0.4202 -0.1356  0.5579
18886TIP3    H178073   5.559   6.335   3.029 -0.6293 -1.4477 -0.3345
18886TIP3    H278074   5.667   6.363   3.131 -0.2253  1.4923 -1.4749
18887TIP3   OH278075   1.354   2.118   0.039 -0.2111  0.3737 -0.4896
18887TIP3    H178076   1.299   2.168  -0.022 -1.6585 -0.2772  0.2231
18887TIP3    H278077   1.291   2.076   0.098  1.0556 -0.8509  0.0279
18888TIP3   OH278078   4.814   0.920  10.442  0.1180 -0.2300 -0.4178
18888TIP3    H178079   4.784   0.997  10.491 -0.1976  0.4034 -1.5609
18888TIP3    H278080   4.831   0.953  10.353 -1.3252 -1.7187 -1.3114
18889TIP3   OH278081   4.497   6.325  14.557 -0.3888  0.2620 -0.0200
18889TIP3    H178082   4.520   6.249  14.503  1.1592  0.7688 -0.1311
18889TIP3    H278083   4.412   6.354  14.522  0.1246  0.0043 -1.5653
18890TIP3   OH278084   3.587   4.661  12.150  0.3254 -0.0221  0.3126
18890TIP3    H178085   3.615   4.683  12.239  1.4316 -1.9535  0.5079
18890TIP3    H278086   3.658   4.693  12.094  0.8940 -1.0756  0.4011
18891TIP3   OH278087   5.199   0.063   2.467 -0.1019 -0.0112 -0.1921
18891TIP3    H178088   5.253   0.088   2.392 -2.7245 -1.4323 -2.7559
18891TIP3    H278089   5.148   0.142   2.487 -0.4408 -0.0450 -0.8999
18892TIP3   OH278090   1.419   5.389  17.214  0.3053 -0.4088 -0.5382
18892TIP3    H178091   1.430   5.372  17.120  1.3194  1.6090 -0.8256
18892TIP3    H278092   1.389   5.305  17.249 -2.6623 -0.5814 -3.0312
18893TIP3   OH278093   4.501   6.595  13.495  0.0420  0.5816  0.4902
18893TIP3    H178094   4.558   6.546  13.435  1.0179  0.9379  1.0994
18893TIP3    H278095   4.560   6.626  13.564 -1.0085  0.3989  1.5085
18894TIP3   OH278096   5.405   3.039  14.744 -0.7822  0.3440 -0.0565
18894TIP3    H178097   5.356   2.961  14.770 -0.4770 -0.8219 -2.7165
18894TIP3    H278098   5.485   3.036  14.796 -1.2228 -0.5552  0.5920
18895TIP3   OH278099   4.757   4.559  11.937 -0.1725  0.9278 -0.1733
18895TIP3    H178100   4.680   4.533  11.987 -0.1592 -0.3126 -0.7587
18895TIP3    H278101   4.722   4.606  11.861 -0.5662 -1.5035 -1.6010
18896TIP3   OH278102   1.712   1.573   5.047 -0.1867 -0.3877 -0.2774
18896TIP3    H178103   1.624   1.585   5.011 -0.4733  0.6877  0.7362
18896TIP3    H278104   1.701   1.505   5.113 -0.4013  0.1984  0.3002
18897TIP3   OH278105   1.480   6.018  11.579 -0.1665 -0.2102  0.2336
18897TIP3    H178106   1.426   6.018  11.500  1.7153 -1.7256 -1.1276
18897TIP3    H278107   1.551   5.957  11.561 -0.6564 -2.1299  3.8381
18898TIP3   OH278108   6.695   5.339  16.555  0.4126 -0.1010 -0.0019
18898TIP3    H178109   6.699   5.245  16.574  0.7440  0.0369  0.6342
18898TIP3    H278110   6.784   5.362  16.529  0.6487  0.2931  1.1149
18899TIP3   OH278111   0.512   2.912  12.012 -0.2986 -0.6478 -0.2707
18899TIP3    H178112   0.549   2.825  12.027  0.8950 -0.2221 -0.5770
18899TIP3    H278113   0.547   2.966  12.083 -0.2960 -0.2238 -0.5845
18900TIP3   OH278114   6.462   4.447  12.466 -0.2490 -0.6723  0.7353
18900TIP3    H178115   6.449   4.397  12.546 -0.9063  0.2028  1.1888
18900TIP3    H278116   6.401   4.408  12.403  0.9562 -1.9914  0.3478
18901TIP3   OH278117   6.728   3.199   2.712  0.5332  0.2220 -0.0484
18901TIP3    H178118   6.714   3.288   2.681  1.5779  0.2552 -0.4630
18901TIP3    H278119   6.641   3.159   2.709  0.3724  0.6093 -1.8322
18902TIP3   OH278120   0.480   6.178  12.668  0.4672  0.3342  0.5193
18902TIP3    H178121   0.453   6.158  12.578  1.4565  0.8048  0.1099
18902TIP3    H278122   0.530   6.102  12.696 -1.1317 -0.4935  1.2438
18903TIP3   OH278123   1.782   5.489  13.572  0.2502 -0.3664 -0.4205
18903TIP3    H178124   1.821   5.439  13.501  2.2945 -1.0169  1.0401
18903TIP3    H278125   1.777   5.578  13.539 -0.4258 -0.9524 -1.9469
18904TIP3   OH278126   4.363   6.432   3.814  0.6509  0.0469  0.3862
18904TIP3    H178127   4.320   6.480   3.885 -0.0161 -0.2816  0.2138
18904TIP3    H278128   4.436   6.488   3.789  0.1451  0.7751  0.4833
18905TIP3   OH278129   4.788   2.331   2.805  0.0934 -0.2378 -0.5625
18905TIP3    H178130   4.721   2.397   2.793  0.3357 -0.2534 -2.1990
18905TIP3    H278131   4.863   2.363   2.755  0.4973 -1.3544 -0.7055
18906TIP3   OH278132   5.050   6.085   3.813  0.3271  0.3546  0.0323
18906TIP3    H178133   5.058   6.174   3.848  0.3897  0.9125 -1.3171
18906TIP3    H278134   5.078   6.093   3.721  0.6664 -1.1282 -0.0278
18907TIP3   OH278135   0.399   2.126   0.489  0.7437  0.3728  0.1291
18907TIP3    H178136   0.376   2.046   0.441 -0.8336  0.8898 -0.0171
18907TIP3    H278137   0.333   2.133   0.558  1.0825  1.3494  0.3699
18908TIP3   OH278138   2.659   6.671  14.214  0.4955 -0.2885  0.0895
18908TIP3    H178139   2.630   6.738  14.277  2.3243 -0.4049  1.1366
18908TIP3    H278140   2.640   6.588  14.257 -1.6259 -0.5087 -1.1434
18909TIP3   OH278141   1.387   3.629   2.518  0.1118 -0.0349 -0.0713
18909TIP3    H178142   1.453   3.560   2.521 -0.4412 -0.5351  2.4779
18909TIP3    H278143   1.341   3.622   2.602 -2.5165  0.9563 -1.3344
18910TIP3   OH278144   5.546   1.856  13.065 -0.7252 -0.0666  0.8298
18910TIP3    H178145   5.500   1.930  13.105 -0.2111  0.4186  0.5317
18910TIP3    H278146   5.515   1.780  13.113 -1.9392  0.2348  0.5689
18911TIP3   OH278147   1.333   3.332  16.574 -0.5418  0.3689 -0.5177
18911TIP3    H178148   1.423   3.341  16.542 -0.4185 -2.0820 -1.0970
18911TIP3    H278149   1.285   3.296  16.500 -2.1553  2.0720 -0.3583
18912TIP3   OH278150   2.463   3.604  11.621  0.1892 -0.2745  0.6805
18912TIP3    H178151   2.383   3.638  11.580  1.4186  1.8929 -0.0810
18912TIP3    H278152   2.513   3.567  11.549  1.7073  2.2411  0.3092
18913TIP3   OH278153   2.828   6.084  14.888 -0.0737 -0.1955 -0.4629
18913TIP3    H178154   2.789   6.004  14.923  2.0362 -1.0014  0.2372
18913TIP3    H278155   2.767   6.113  14.820 -0.7053 -2.6548 -1.0468
18914TIP3   OH278156   0.010   0.966   2.116 -0.0802  0.4282  0.0089
18914TIP3    H178157   0.062   0.943   2.039  0.1866  0.7664  0.0889
18914TIP3    H278158  -0.079   0.976   2.083  0.0504  0.6618 -0.2720
18915TIP3   OH278159   0.599   5.770  11.154  0.3808  0.3710 -0.2967
18915TIP3    H178160   0.603   5.826  11.232  1.3854  1.6703 -1.2228
18915TIP3    H278161   0.506   5.762  11.135  0.1874  1.1863  0.2588
18916TIP3   OH278162   2.256   4.082  15.302 -0.1881  0.1214 -0.0216
18916TIP3    H178163   2.341   4.108  15.339 -0.1860 -1.8332  1.5133
18916TIP3    H278164   2.195   4.092  15.375 -0.7576 -1.0465 -0.3198
18917TIP3   OH278165   6.661   2.761   0.953 -0.1006  0.3269  0.0371
18917TIP3    H178166   6.693   2.734   0.867  1.4582 -2.1972  1.2905
18917TIP3    H278167   6.586   2.705   0.970  0.3751 -0.0917  0.8131
18918TIP3   OH278168   5.533   2.860   4.885  0.2456 -0.4053 -0.0448
18918TIP3    H178169   5.605   2.869   4.822 -0.5062 -0.9013 -0.9985
18918TIP3    H278170   5.564   2.794   4.947  1.5787  1.1038  0.9801
18919TIP3   OH278171   4.744   4.770  11.734 -0.4842 -0.2088  0.0161
18919TIP3    H178172   4.770   4.814  11.815 -3.2198  1.7117 -0.0234
18919TIP3    H278173   4.813   4.792  11.671 -0.7656  2.5110  0.5496
18920TIP3   OH278174   2.854   1.718   2.978  0.0914 -0.3402 -0.1131
18920TIP3    H178175   2.931   1.749   2.930 -0.8404  0.4019 -1.1844
18920TIP3    H278176   2.866   1.623   2.982  0.3853 -0.3931 -1.5359
18921TIP3   OH278177   2.136   6.309   4.818  0.6887  0.4095 -0.2384
18921TIP3    H178178   2.117   6.278   4.907 -0.0199 -0.5916 -0.7220
18921TIP3    H278179   2.072   6.265   4.763  2.7845 -1.1422 -1.6224
18922TIP3   OH278180   3.483   0.016  16.051  0.0192  0.4176 -0.1515
18922TIP3    H178181   3.548   0.030  15.982 -0.0512 -0.5115 -0.4250
18922TIP3    H278182   3.419  -0.044  16.011 -0.8556  1.0984  0.2044
18923TIP3   OH278183   5.249   1.329   3.120 -0.4083 -0.1507 -0.2708
18923TIP3    H178184   5.188   1.403   3.114 -0.4130 -0.1568 -0.3002
18923TIP3    H278185   5.224   1.285   3.202 -0.2173  0.0448 -0.1076
18924TIP3   OH278186   1.019   5.791   3.881 -0.0152  0.5584  0.1087
18924TIP3    H178187   1.006   5.866   3.823  0.2880  1.2500  0.9143
18924TIP3    H278188   0.949   5.797   3.945  1.5791  1.7955  1.8439
18925TIP3   OH278189   3.341   5.476   3.942  0.2447 -0.5244  0.0949
18925TIP3    H178190   3.395   5.491   4.020  0.3992  0.1052 -0.1298
18925TIP3    H278191   3.402   5.444   3.876  0.4428  0.5852 -0.2892
18926TIP3   OH278192   5.732   6.361  11.862 -0.0243  0.7465 -0.0499
18926TIP3    H178193   5.809   6.305  11.863 -1.8562 -1.9241 -0.1712
18926TIP3    H278194   5.765   6.446  11.830  2.5916 -0.6364 -1.3504
18927TIP3   OH278195   1.437   3.946   0.894 -0.0611 -0.7725  0.0017
18927TIP3    H178196   1.454   4.040   0.891 -2.4295 -0.2319  1.1831
18927TIP3    H278197   1.456   3.921   0.984 -0.6060 -1.1716  0.0099
18928TIP3   OH278198   6.713   2.704  16.053  0.8010  0.2015  0.1413
18928TIP3    H178199   6.619   2.692  16.071  1.2228 -0.7299  1.8888
18928TIP3    H278200   6.723   2.799  16.045 -0.2153  0.3384  0.3571
18929TIP3   OH278201   1.439   0.943   4.669  0.2907  0.7245 -0.1153
18929TIP3    H178202   1.382   0.909   4.737  0.6127  1.3486  0.4826
18929TIP3    H278203   1.527   0.938   4.707  0.5389  0.5467 -0.7041
18930TIP3   OH278204   5.149   3.586   3.070 -0.0961  0.0816  0.7491
18930TIP3    H178205   5.093   3.517   3.106  0.2905 -0.7909 -0.2689
18930TIP3    H278206   5.237   3.548   3.069 -0.2287 -0.3566 -2.0186
18931TIP3   OH278207   2.913   2.055   4.544  0.1998 -0.1783  0.1855
18931TIP3    H178208   2.862   2.040   4.464  0.2063 -0.7737  0.2878
18931TIP3    H278209   2.970   2.129   4.522 -0.4993  0.3079 -0.0210
18932TIP3   OH278210   4.719   6.116   5.337  0.3571 -0.2911  0.1135
18932TIP3    H178211   4.694   6.036   5.293  0.1061 -1.0154  1.5153
18932TIP3    H278212   4.748   6.088   5.424  1.7227  0.9739  0.1243
18933TIP3   OH278213   2.999   4.652  10.810 -0.2413  0.3471 -0.1992
18933TIP3    H178214   2.906   4.669  10.793 -0.3898 -1.4497 -1.3784
18933TIP3    H278215   3.001   4.615  10.898 -0.7490 -0.4221 -0.5084
18934TIP3   OH278216   4.892   0.152  16.828  0.2117 -0.4600 -0.4125
18934TIP3    H178217   4.836   0.223  16.796 -0.0732 -0.7845 -0.6336
18934TIP3    H278218   4.962   0.147  16.763 -1.2104 -2.1922 -1.9351
18935TIP3   OH278219   2.716   3.826   0.800  0.6891 -0.4929 -0.0024
18935TIP3    H178220   2.680   3.763   0.738  0.3098  0.3163 -0.6288
18935TIP3    H278221   2.796   3.785   0.832  2.7803  0.3979 -3.5215
18936TIP3   OH278222   6.699   6.641   4.217 -0.0419 -0.5552  0.0004
18936TIP3    H178223   6.744   6.650   4.301 -1.8794  0.0603  0.9527
18936TIP3    H278224   6.606   6.651   4.237 -0.5405 -0.3960 -2.1113
18937TIP3   OH278225   1.295   0.543  13.461  0.8788  0.1629 -0.0576
18937TIP3    H178226   1.342   0.466  13.429  0.9105  0.4339 -0.6760
18937TIP3    H278227   1.348   0.617  13.431  0.3345  0.4535 -0.3209
18938TIP3   OH278228   3.536   1.871  15.353 -0.1637 -0.1683 -0.6047
18938TIP3    H178229   3.587   1.928  15.296  1.1914 -1.9665 -1.3022
18938TIP3    H278230   3.581   1.786  15.347 -1.1652 -0.9083  1.5928
18939TIP3   OH278231   4.449   0.299   0.602  0.0238 -0.3487 -0.1883
18939TIP3    H178232   4.528   0.352   0.603 -0.4678  0.4077 -0.3435
18939TIP3    H278233   4.392   0.339   0.668 -0.9968  0.3446 -1.4591
18940TIP3   OH278234   5.691   6.776   2.737  0.2243  0.0672  0.1643
18940TIP3    H178235   5.609   6.812   2.769 -0.3568 -0.5847 -0.5442
18940TIP3    H278236   5.674   6.755   2.645  1.2866  0.2220 -0.0845
18941TIP3   OH278237   0.589   6.128  11.983  0.1444  0.7594 -0.1869
18941TIP3    H178238   0.683   6.139  11.968  0.5043 -1.0361  0.5330
18941TIP3    H278239   0.563   6.056  11.927 -0.5406  0.4301  0.5349
18942TIP3   OH278240   1.406   3.548   4.018 -0.4326  0.2784 -0.1188
18942TIP3    H178241   1.468   3.480   3.992  0.3728 -0.6119  3.5288
18942TIP3    H278242   1.446   3.629   3.988 -0.9935 -0.6106 -3.8005
18943TIP3   OH278243   4.646   5.406   1.014 -0.1896  0.3897 -0.5064
18943TIP3    H178244   4.721   5.352   1.038 -1.1620 -1.0841 -0.6594
18943TIP3    H278245   4.623   5.377   0.925 -2.9673 -1.6901  0.7129
18944TIP3   OH278246   4.354   5.486   0.780 -0.2099  0.0674  0.0701
18944TIP3    H178247   4.294   5.555   0.752  0.7410  2.3656  3.1083
18944TIP3    H278248   4.298   5.415   0.811 -1.3286  1.0007  0.2296
18945TIP3   OH278249   3.224   4.732  14.225  0.0529 -0.1373  0.1147
18945TIP3    H178250   3.145   4.768  14.184 -0.2389 -0.8718  0.0240
18945TIP3    H278251   3.296   4.769  14.174 -0.1774  1.1727  0.6878
18946TIP3   OH278252   5.345   1.008   0.780 -0.2136  0.4914 -0.2838
18946TIP3    H178253   5.399   1.066   0.726 -1.2256  0.0915 -1.7968
18946TIP3    H278254   5.407   0.945   0.816  0.3771  0.0491 -1.9673
18947TIP3   OH278255   0.352   2.518   1.299 -0.2896  0.6140  0.0206
18947TIP3    H178256   0.269   2.547   1.262  0.5470  0.4839 -2.0983
18947TIP3    H278257   0.395   2.599   1.327 -0.4309  0.8344 -0.3978
18948TIP3   OH278258   2.533   1.932   3.576  0.2708 -0.2486 -0.2348
18948TIP3    H178259   2.625   1.907   3.573 -0.4807 -3.4113 -0.3612
18948TIP3    H278260   2.486   1.849   3.575 -2.5865  1.2378  0.8214
18949TIP3   OH278261   6.584   4.486   1.876 -0.3889  0.0578  0.0252
18949TIP3    H178262   6.673   4.487   1.912 -0.8638 -0.7966  1.2926
18949TIP3    H278263   6.528   4.498   1.953 -1.4318 -1.3619 -0.4803
18950TIP3   OH278264   0.569   4.313  13.108  0.5943 -1.4467  0.1175
18950TIP3    H178265   0.613   4.333  13.191  1.7526 -1.5955 -0.4440
18950TIP3    H278266   0.517   4.234  13.127  0.5205 -1.2440  0.7988
18951TIP3   OH278267   1.551   2.015   5.441  0.0094 -0.5131  0.1835
18951TIP3    H178268   1.548   2.103   5.478  1.1123 -0.7231  0.8195
18951TIP3    H278269   1.514   2.025   5.353  2.3432  1.1023 -0.7114
18952TIP3   OH278270   4.183   2.151  13.672 -0.0662  0.0130 -0.9663
18952TIP3    H178271   4.163   2.240  13.643  2.7117  0.6665 -1.1537
18952TIP3    H278272   4.232   2.112  13.600  0.1475 -1.1190 -0.2413
18953TIP3   OH278273   4.381   0.867  16.592 -0.3088 -0.6571  0.4438
18953TIP3    H178274   4.380   0.833  16.681 -0.0299  0.3840  0.8562
18953TIP3    H278275   4.413   0.793  16.539  1.5728 -0.6693  1.4848
18954TIP3   OH278276   6.386   1.614   5.404 -0.2527  0.1465 -0.0274
18954TIP3    H178277   6.336   1.674   5.349 -1.0582  0.2812  0.8189
18954TIP3    H278278   6.464   1.664   5.430 -0.6613  0.6516  0.2505
18955TIP3   OH278279   1.586   6.481   2.066 -0.4723  0.1151 -0.4924
18955TIP3    H178280   1.570   6.494   1.973  1.3221  1.9677 -0.6119
18955TIP3    H278281   1.636   6.400   2.071 -2.2395 -1.0632 -0.8876
18956TIP3   OH278282   2.647   5.160   5.899  0.1426  0.2985 -0.5022
18956TIP3    H178283   2.698   5.185   5.976 -1.6826 -0.4922  1.0519
18956TIP3    H278284   2.618   5.070   5.918  0.8535 -0.4687 -2.7932
18957TIP3   OH278285   3.738   4.870   4.054 -0.0641 -0.5437  0.4176
18957TIP3    H178286   3.660   4.848   4.003  0.2128  0.4548 -0.4665
18957TIP3    H278287   3.805   4.810   4.021 -0.1804 -0.6676  0.4059
18958TIP3   OH278288   1.544   1.758   4.732 -0.2727  0.3485 -0.2282
18958TIP3    H178289   1.587   1.796   4.808  1.4534 -3.1341  0.7180
18958TIP3    H278290   1.451   1.770   4.748  0.1237  1.7428  1.2468
18959TIP3   OH278291   1.450   3.631   6.762  0.2632  0.3124  0.3809
18959TIP3    H178292   1.493   3.562   6.712 -1.0434 -1.5274  1.6784
18959TIP3    H278293   1.381   3.664   6.704 -1.7671 -2.3514  1.1126
18960TIP3   OH278294   4.982   3.892  10.740 -0.2736 -0.2052 -0.1568
18960TIP3    H178295   5.034   3.953  10.793  1.0471 -0.9105 -0.5851
18960TIP3    H278296   5.023   3.894  10.654 -0.9751 -0.7902 -0.5140
18961TIP3   OH278297   2.985   5.228  16.937  0.2963 -0.1885 -0.8620
18961TIP3    H178298   3.012   5.276  17.015 -1.8780 -0.0451 -0.1242
18961TIP3    H278299   2.936   5.153  16.970  0.6153 -0.9628 -2.0748
18962TIP3   OH278300   1.648   4.241   6.173  0.0438  0.6846 -0.0887
18962TIP3    H178301   1.677   4.286   6.253  0.4762  1.8253 -0.8671
18962TIP3    H278302   1.573   4.293   6.143 -0.1310  0.2432 -0.4234
18963TIP3   OH278303   4.430   0.253  15.797  0.4510 -0.4761 -0.2446
18963TIP3    H178304   4.412   0.280  15.887  0.3932 -0.6346 -0.2086
18963TIP3    H278305   4.428   0.334  15.747  1.7358 -0.2041  0.0954
18964TIP3   OH278306   5.608   5.211  16.184 -0.4456 -0.7828  0.2433
18964TIP3    H178307   5.649   5.182  16.103  1.9287  1.3496  0.5463
18964TIP3    H278308   5.614   5.136  16.242  1.4954 -1.1186 -0.3234
18965TIP3   OH278309   2.045   5.021   0.810  0.4269  0.2585 -0.0560
18965TIP3    H178310   2.117   5.084   0.809  2.0622 -1.4926  0.9138
18965TIP3    H278311   2.076   4.949   0.866 -1.4217 -1.3054 -0.9064
18966TIP3   OH278312   2.348   3.657  14.348 -0.0522  0.1625  0.3958
18966TIP3    H178313   2.427   3.638  14.296  1.3070 -0.1847  2.4598
18966TIP3    H278314   2.354   3.598  14.423 -2.6657 -0.3108  0.2966
18967TIP3   OH278315   1.872   3.345  14.966  0.8307 -0.0573 -0.3356
18967TIP3    H178316   1.927   3.267  14.969  1.0394  0.1096  0.3184
18967TIP3    H278317   1.807   3.332  15.036  1.4530  0.7754  0.4236
18968TIP3   OH278318   2.488   2.689  12.367  0.2408  0.1498  0.3987
18968TIP3    H178319   2.485   2.609  12.314 -0.0242  0.7147 -0.4587
18968TIP3    H278320   2.442   2.666  12.448 -1.1486 -0.1386 -0.4381
18969TIP3   OH278321   2.582   0.780   2.186  0.2312  0.4581  0.1301
18969TIP3    H178322   2.533   0.714   2.137  0.8459 -0.5149  0.7797
18969TIP3    H278323   2.548   0.864   2.155 -1.8725 -0.1748  0.5989
18970TIP3   OH278324   2.086   3.402  15.818  0.1099 -0.3966  0.5742
18970TIP3    H178325   2.078   3.317  15.774  2.6713 -0.6761  0.5125
18970TIP3    H278326   2.125   3.380  15.903  1.0689  0.7177  0.4396
18971TIP3   OH278327   3.986   2.752  12.416 -0.1002  0.5401  0.3806
18971TIP3    H178328   3.948   2.668  12.388  2.3979 -0.2423 -0.9748
18971TIP3    H278329   3.925   2.818  12.384 -1.3997 -0.6964  0.2181
18972TIP3   OH278330   2.131   3.615  12.920 -0.8739 -0.1855 -0.1060
18972TIP3    H178331   2.051   3.653  12.884 -0.1926  0.0438 -1.4440
18972TIP3    H278332   2.109   3.594  13.011 -2.3567  0.1291 -0.3664
18973TIP3   OH278333   0.826   5.421  12.748  0.3418 -0.3583  0.2126
18973TIP3    H178334   0.860   5.450  12.664 -0.8583 -0.0078 -0.1829
18973TIP3    H278335   0.776   5.341  12.728  0.5921 -0.6437  0.6987
18974TIP3   OH278336   0.875   5.587   3.345 -0.0063  0.2023 -0.2634
18974TIP3    H178337   0.846   5.654   3.282 -0.4158  0.1902 -0.0932
18974TIP3    H278338   0.954   5.623   3.384 -0.7881  1.0470  0.5665
18975TIP3   OH278339   3.801   0.017  16.120  0.0513  0.4402 -0.3881
18975TIP3    H178340   3.878  -0.040  16.108  1.5468  1.7793  1.9568
18975TIP3    H278341   3.730  -0.043  16.143  0.8559 -0.7109 -0.8074
18976TIP3   OH278342   1.907   2.041  12.306 -0.1739 -0.6094 -0.3941
18976TIP3    H178343   1.859   2.101  12.363 -2.2189 -2.0733 -0.4417
18976TIP3    H278344   1.891   2.073  12.217  0.8759  0.2117 -0.2953
18977TIP3   OH278345   6.002   5.020  15.869  0.1078 -0.4995  0.8136
18977TIP3    H178346   5.944   5.090  15.839  1.2853  0.5288  0.8480
18977TIP3    H278347   5.963   4.940  15.835 -1.9616  0.0281  1.8266
18978TIP3   OH278348   6.656   6.154   0.567 -0.3085  0.1663 -0.0111
18978TIP3    H178349   6.566   6.152   0.534 -0.0758 -0.1331 -0.6677
18978TIP3    H278350   6.683   6.062   0.567 -0.7159  0.0049  2.2699
18979TIP3   OH278351   5.804   2.563   3.320 -0.5412  0.0081 -0.6583
18979TIP3    H178352   5.894   2.593   3.310 -0.8571  0.4222 -2.5500
18979TIP3    H278353   5.761   2.586   3.238 -2.5465  0.3486  0.4122
18980TIP3   OH278354   3.409   2.021   5.857 -0.4810  0.4634  0.5649
18980TIP3    H178355   3.446   1.949   5.807  0.0084 -0.8118  2.6538
18980TIP3    H278356   3.388   2.088   5.792 -2.2618 -2.0625 -1.6624
18981TIP3   OH278357   0.635   1.206   0.839  0.4452  0.3002  0.0140
18981TIP3    H178358   0.628   1.126   0.788 -0.8246  0.4230 -0.0232
18981TIP3    H278359   0.697   1.260   0.790  0.6177 -0.2854 -0.4312
18982TIP3   OH278360   1.208   3.133   1.507 -0.1678 -0.4175 -0.7243
18982TIP3    H178361   1.214   3.213   1.454 -0.4454  1.0677  1.3678
18982TIP3    H278362   1.118   3.130   1.537  0.1572 -0.8206  0.2542
18983TIP3   OH278363   6.668   4.329   3.964 -0.0093 -0.5037  0.5105
18983TIP3    H178364   6.734   4.390   3.930  1.1049 -0.8329  1.9597
18983TIP3    H278365   6.605   4.385   4.010  0.4409 -0.3382  0.9412
18984TIP3   OH278366   4.082   6.073   0.618  0.2702  0.0903 -0.4367
18984TIP3    H178367   4.023   6.124   0.673 -0.4085 -0.6550 -0.4627
18984TIP3    H278368   4.032   5.995   0.595  1.0893 -0.3155 -0.8724
18985TIP3   OH278369   3.230   4.146  14.108  0.0447  0.1955  0.4917
18985TIP3    H178370   3.279   4.117  14.031 -2.6311  0.9168 -1.6284
18985TIP3    H278371   3.297   4.182  14.166  2.4461 -2.2802 -0.4717
18986TIP3   OH278372   3.435   2.798  13.347 -0.1117  0.0368  0.4385
18986TIP3    H178373   3.343   2.775  13.337  0.0641 -0.2953 -0.5599
18986TIP3    H278374   3.465   2.816  13.258  1.5065 -2.6606  0.3424
18987TIP3   OH278375   2.299   3.737   4.485  0.2694  0.2473 -0.2741
18987TIP3    H178376   2.265   3.731   4.396 -0.9461  1.2707  0.0960
18987TIP3    H278377   2.271   3.655   4.526  0.7813 -0.2029 -0.8012
18988TIP3   OH278378   6.680   2.456   3.510  0.2021 -0.6004  0.3725
18988TIP3    H178379   6.726   2.535   3.484 -0.8776 -0.2879 -0.6418
18988TIP3    H278380   6.714   2.388   3.452 -0.2013 -0.4897  0.0060
18989TIP3   OH278381   1.543   3.638   5.035 -0.2275  0.3803  0.1615
18989TIP3    H178382   1.559   3.722   5.080 -1.1662  0.3971  0.4809
18989TIP3    H278383   1.628   3.614   4.999 -0.2321  2.2419 -1.2753
18990TIP3   OH278384   0.056   5.243   2.652 -0.5259 -0.1181 -0.1547
18990TIP3    H178385   0.131   5.184   2.659  0.9746  1.7361  0.3332
18990TIP3    H278386  -0.012   5.191   2.610  0.3532 -2.4744  1.1876
18991TIP3   OH278387   5.606   1.978  15.866 -0.7261 -0.3210 -0.1450
18991TIP3    H178388   5.574   2.026  15.942 -1.3523 -2.6552  1.1663
18991TIP3    H278389   5.701   1.990  15.869 -0.9078  1.4723 -0.3744
18992TIP3   OH278390   2.396   5.842   5.474 -0.3584  0.2247  0.5177
18992TIP3    H178391   2.488   5.855   5.454 -0.3675 -0.4584  0.0133
18992TIP3    H278392   2.367   5.774   5.413 -1.0910  0.1334  0.9540
18993TIP3   OH278393   0.257   5.378  15.562  0.3538 -0.0391 -0.1804
18993TIP3    H178394   0.163   5.390  15.549  0.3667  0.5267  0.2298
18993TIP3    H278395   0.278   5.299  15.511 -0.0621  0.6500 -1.4680
18994TIP3   OH278396   3.621   3.844   3.759  0.3292 -0.1025  0.3065
18994TIP3    H178397   3.529   3.837   3.733  0.5590  0.6316 -0.8055
18994TIP3    H278398   3.630   3.934   3.791  0.8085  0.0577 -0.2611
18995TIP3   OH278399   0.721   5.702   0.989  0.0291  0.0469  0.2685
18995TIP3    H178400   0.651   5.751   0.945  1.1958  2.1207  0.6046
18995TIP3    H278401   0.787   5.767   1.011  3.0455 -2.0574 -1.7582
18996TIP3   OH278402   0.235   5.270   0.722  0.0365 -0.8943  0.6079
18996TIP3    H178403   0.178   5.305   0.790  0.9423 -1.5315  1.7229
18996TIP3    H278404   0.297   5.214   0.768 -0.1260 -2.3961 -0.8961
18997TIP3   OH278405   2.784   0.644  13.912  0.5285 -0.3010 -0.7837
18997TIP3    H178406   2.808   0.737  13.909  0.8037 -0.3668 -0.6214
18997TIP3    H278407   2.761   0.623  13.822  1.9389 -0.4667 -1.1256
18998TIP3   OH278408   4.519   4.347   4.508  0.0556 -0.1794 -0.2483
18998TIP3    H178409   4.551   4.431   4.474 -0.7199 -0.5535 -2.0137
18998TIP3    H278410   4.514   4.360   4.602  0.0784  1.7220 -0.4715
18999TIP3   OH278411   5.377   3.823   2.144  0.3336  0.6829 -0.4627
18999TIP3    H178412   5.315   3.861   2.206  0.3385  1.1814 -0.7531
18999TIP3    H278413   5.354   3.730   2.140  0.7036  0.5238  0.7212
19000TIP3   OH278414   1.805   3.357   2.244  0.0185 -0.0327 -0.2778
19000TIP3    H178415   1.826   3.267   2.266 -2.9077 -0.6015  0.5983
19000TIP3    H278416   1.749   3.387   2.316  0.8723  2.5000 -0.5552
19001TIP3   OH278417   6.073   6.457  10.909 -0.0721  0.2786 -0.1916
19001TIP3    H178418   5.982   6.470  10.884 -0.5204 -0.8223  0.7850
19001TIP3    H278419   6.105   6.545  10.930 -1.0695  0.6024  0.0023
19002TIP3   OH278420   0.925   6.023   2.802  0.2335  0.5538  0.3109
19002TIP3    H178421   0.919   5.949   2.742  0.9067 -1.8013  2.9289
19002TIP3    H278422   0.834   6.047   2.819  0.0264  2.1041 -2.4374
19003TIP3   OH278423   6.461   6.400  16.017  0.1949  0.1587  0.2856
19003TIP3    H178424   6.395   6.421  16.084 -1.1815 -1.9396 -0.3119
19003TIP3    H278425   6.493   6.313  16.041 -0.9480 -1.0446 -2.1382
19004TIP3   OH278426   4.154   2.704   2.021 -0.2926 -0.4476  0.4363
19004TIP3    H178427   4.228   2.674   2.074  0.3183 -1.8944 -1.1119
19004TIP3    H278428   4.189   2.777   1.970 -0.9301  1.0583  2.0923
19005TIP3   OH278429   6.745   2.728   1.690 -0.8606  0.3239 -0.7966
19005TIP3    H178430   6.697   2.664   1.638 -2.9360  1.7284 -0.7199
19005TIP3    H278431   6.691   2.807   1.687  1.1161  1.7902 -0.0813
19006TIP3   OH278432   5.964   2.076   2.916  0.2432 -0.1459  0.5791
19006TIP3    H178433   5.927   2.048   2.832  1.0616 -0.9200  0.4609
19006TIP3    H278434   6.018   2.003   2.944  0.8471  0.5425  1.2535
19007TIP3   OH278435   2.516   2.029  12.926 -0.1594  0.5302  0.4960
19007TIP3    H178436   2.564   2.031  12.843 -0.5686  1.1000  0.2685
19007TIP3    H278437   2.489   1.938  12.936 -0.4579  0.5400 -0.1980
19008TIP3   OH278438   5.218   0.375   0.219  0.3816 -0.4071 -0.0631
19008TIP3    H178439   5.279   0.312   0.259  0.9890 -0.4099 -0.9634
19008TIP3    H278440   5.180   0.328   0.145 -0.2918 -0.2083  0.1547
19009TIP3   OH278441   5.146   0.287   0.751 -0.1840  0.4941  0.1141
19009TIP3    H178442   5.097   0.358   0.708 -0.5392  0.2635  0.1330
19009TIP3    H278443   5.122   0.294   0.843  0.0767  0.5853  0.1753
19010TIP3   OH278444   4.366   5.470  13.959  0.4534 -0.4159  0.5073
19010TIP3    H178445   4.313   5.525  14.017  0.0203 -0.9104  0.5847
19010TIP3    H278446   4.427   5.531  13.917 -1.8378  0.6067 -1.5404
19011TIP3   OH278447   4.180   0.037  15.823  0.6900 -0.3962  0.0397
19011TIP3    H178448   4.227   0.067  15.744  1.4945 -0.3172  0.5347
19011TIP3    H278449   4.115  -0.024  15.790  1.4992 -0.9271 -0.6217
19012TIP3   OH278450   3.083   3.631   1.152 -0.0948 -0.0498 -0.2731
19012TIP3    H178451   3.139   3.707   1.135  1.1799 -1.2171 -1.5811
19012TIP3    H278452   3.089   3.618   1.247  2.6835 -0.6825 -0.4579
19013TIP3   OH278453   0.355   5.480   6.051 -0.2078  0.7950  0.1114
19013TIP3    H178454   0.285   5.544   6.036 -0.9720  0.0733  0.5048
19013TIP3    H278455   0.331   5.437   6.133  0.2635 -0.0313 -0.1718
19014TIP3   OH278456   2.252   0.363   4.743  0.1392 -0.4244 -0.0858
19014TIP3    H178457   2.217   0.287   4.697 -0.8263  0.6845 -1.2634
19014TIP3    H278458   2.347   0.358   4.728  0.4301 -2.6496  1.8786
19015TIP3   OH278459   3.766   2.264  14.195  0.6014  0.2298 -0.2771
19015TIP3    H178460   3.780   2.285  14.103 -1.1254 -0.5148 -0.7512
19015TIP3    H278461   3.742   2.347  14.235  0.0954  0.3268 -0.7729
19016TIP3   OH278462   2.953   4.227  15.162 -0.0786  0.5446  0.5685
19016TIP3    H178463   3.020   4.169  15.124 -0.5422 -0.8057  1.7156
19016TIP3    H278464   2.983   4.243  15.251 -0.5865  1.0770  0.6466
19017TIP3   OH278465   4.455   2.619   3.688 -0.2113 -0.2432 -0.1904
19017TIP3    H178466   4.441   2.709   3.716  0.8944 -0.7410  2.2885
19017TIP3    H278467   4.437   2.619   3.594 -0.7232  2.4216 -0.1576
19018TIP3   OH278468   0.693   4.443   2.103 -0.5140  0.2036  0.7826
19018TIP3    H178469   0.775   4.405   2.071  0.1215 -0.0712  2.5775
19018TIP3    H278470   0.624   4.401   2.052  0.4273 -0.1403 -0.2286
19019TIP3   OH278471   1.682   5.426  14.457 -0.3338 -0.5580  0.2554
19019TIP3    H178472   1.690   5.367  14.533  0.9540 -0.4734  0.2016
19019TIP3    H278473   1.589   5.447  14.454 -0.2839  0.3391  2.5133
19020TIP3   OH278474   0.943   6.163   1.666  0.4575 -0.7461  0.1367
19020TIP3    H178475   0.854   6.155   1.700 -0.6369 -1.8801 -2.6517
19020TIP3    H278476   0.971   6.250   1.692 -2.3207  0.5078 -0.6838
19021TIP3   OH278477   2.010   4.538   4.043  0.2053 -0.1074  0.1302
19021TIP3    H178478   2.085   4.530   3.983 -0.3901 -1.2669 -0.5096
19021TIP3    H278479   1.961   4.613   4.010  0.9299  0.4947  0.3883
19022TIP3   OH278480   5.809   3.529   2.820 -0.3673  0.8010  0.1337
19022TIP3    H178481   5.777   3.446   2.782 -1.6882  1.2727  0.1610
19022TIP3    H278482   5.900   3.511   2.843 -0.2639 -0.2726 -0.9820
19023TIP3   OH278483   0.075   3.985  15.102 -0.5076 -0.1321 -0.1120
19023TIP3    H178484   0.129   4.061  15.125 -0.3895 -0.5481  1.0541
19023TIP3    H278485   0.069   3.988  15.007  0.0214  0.9790 -0.1295
19024TIP3   OH278486   1.773   4.417   6.376  0.1079  0.0249 -0.0927
19024TIP3    H178487   1.793   4.464   6.457 -1.0581 -0.7542  0.6792
19024TIP3    H278488   1.857   4.379   6.349  0.3386 -0.5456  1.3294
19025TIP3   OH278489   4.122   2.697   0.393  0.2016  0.0610 -0.3026
19025TIP3    H178490   4.109   2.645   0.472  0.0697 -0.5533 -0.7175
19025TIP3    H278491   4.145   2.784   0.425 -0.0510 -0.1254  0.4109
19026TIP3   OH278492   2.330   6.700  12.206  0.4684  0.1360 -0.1230
19026TIP3    H178493   2.236   6.706  12.221  0.6916  1.1233  1.1103
19026TIP3    H278494   2.368   6.697  12.294  1.7360  3.1639 -0.4341
19027TIP3   OH278495   2.556   2.094   1.418  0.4061 -0.0448  0.1418
19027TIP3    H178496   2.578   2.107   1.510  0.8464  2.5147 -0.2284
19027TIP3    H278497   2.532   2.182   1.387 -0.0821 -0.8999 -2.0897
19028TIP3   OH278498   3.766   0.675  15.937 -0.5166 -0.4074 -0.3826
19028TIP3    H178499   3.764   0.607  15.869  1.0346 -0.5275 -0.3317
19028TIP3    H278500   3.853   0.713  15.930 -0.4863 -0.1165  1.2575
19029TIP3   OH278501   1.730   6.360  14.567 -0.5112  0.7891  0.3127
19029TIP3    H178502   1.671   6.300  14.522  0.0836 -1.5047  2.3898
19029TIP3    H278503   1.796   6.383  14.502 -1.1516 -0.2758 -0.7435
19030TIP3   OH278504   4.345   2.644  14.813  0.5411 -0.7078 -0.1561
19030TIP3    H178505   4.434   2.617  14.794 -0.2463 -2.0643 -2.2419
19030TIP3    H278506   4.327   2.609  14.901  2.5028  0.9246  0.9676
19031TIP3   OH278507   6.003   6.097  16.137 -0.1822 -0.2462 -0.5378
19031TIP3    H178508   6.017   6.175  16.190 -1.8415 -0.9937  1.1323
19031TIP3    H278509   5.988   6.027  16.201 -0.5557 -1.5586 -2.0012
19032TIP3   OH278510   0.949   5.082  16.379 -0.3770 -0.3614 -0.3827
19032TIP3    H178511   0.957   4.988  16.392  3.1138 -0.0035  1.2389
19032TIP3    H278512   0.928   5.116  16.466 -1.5950  0.4185 -0.9523
19033TIP3   OH278513   5.566   2.421   3.372 -0.3394  0.4461 -0.0502
19033TIP3    H178514   5.660   2.437   3.366 -0.3831  0.3017 -1.4732
19033TIP3    H278515   5.526   2.505   3.347 -0.5834  0.2720 -0.2458
19034TIP3   OH278516   0.795   3.034   3.641  0.6754 -0.0859  0.3299
19034TIP3    H178517   0.720   3.039   3.582  1.6062 -1.0997 -1.0002
19034TIP3    H278518   0.841   3.117   3.629  0.8955 -0.3122 -0.4469
19035TIP3   OH278519   0.132   3.963  16.970 -0.5028  0.5482  0.1766
19035TIP3    H178520   0.040   3.990  16.971 -0.4019  0.8933  0.1603
19035TIP3    H278521   0.155   3.952  17.063 -0.1716  1.8035  0.2588
19036TIP3   OH278522   3.239   3.133  15.402  0.1990 -0.4423  0.3130
19036TIP3    H178523   3.192   3.211  15.375  0.6144 -0.0130  0.8048
19036TIP3    H278524   3.308   3.165  15.461  1.5584 -0.9791 -0.9350
19037TIP3   OH278525   5.003   4.830   0.060 -0.4556  0.0609 -0.5596
19037TIP3    H178526   5.023   4.795  -0.026 -0.2032  2.6723 -1.6695
19037TIP3    H278527   4.930   4.890   0.045 -0.7018  0.2311  1.1236
19038TIP3   OH278528   6.294   2.444   4.315  0.4268  0.2609 -0.2962
19038TIP3    H178529   6.216   2.470   4.364 -0.3262 -2.8819  0.4085
19038TIP3    H278530   6.274   2.463   4.224 -0.2189  1.5160  0.0882
19039TIP3   OH278531   5.666   6.051   4.092  0.0312 -0.0874 -0.0464
19039TIP3    H178532   5.728   6.103   4.042  0.9695 -1.0761  0.0479
19039TIP3    H278533   5.688   6.068   4.183  0.1340 -0.3935 -0.0116
19040TIP3   OH278534   6.205   2.867   6.516 -0.1183  0.3637  0.0698
19040TIP3    H178535   6.291   2.908   6.512  0.2828 -0.2965  1.3441
19040TIP3    H278536   6.185   2.844   6.426  1.0186  0.5890 -0.2560
19041TIP3   OH278537   2.259   1.577  16.615 -0.1525  0.5003  0.5795
19041TIP3    H178538   2.329   1.524  16.654 -1.4196 -0.1969  2.0231
19041TIP3    H278539   2.304   1.637  16.556  1.6205 -0.1822  1.1726
19042TIP3   OH278540   6.586   4.641  11.718 -0.5547  0.2398  0.3014
19042TIP3    H178541   6.614   4.609  11.803  0.2987 -0.2074 -0.1310
19042TIP3    H278542   6.667   4.657  11.670 -1.0184 -0.4675 -0.7682
19043TIP3   OH278543   3.560   4.384  15.242 -0.5229 -0.2162  0.0586
19043TIP3    H178544   3.642   4.408  15.285 -0.5939 -1.8706  1.2060
19043TIP3    H278545   3.538   4.460  15.189  0.6614  1.0865  1.3456
19044TIP3   OH278546   4.327   3.909  14.921  0.2554  0.2341  0.2698
19044TIP3    H178547   4.315   3.979  14.858  1.5408  0.1358 -0.0962
19044TIP3    H278548   4.312   3.828  14.871  2.6669  0.0849 -0.3076
19045TIP3   OH278549   1.257   1.131   3.227 -0.0174 -0.1143  0.1036
19045TIP3    H178550   1.301   1.148   3.144  0.6572 -2.1199 -0.0054
19045TIP3    H278551   1.168   1.104   3.203  0.5771 -2.0263 -0.1150
19046TIP3   OH278552   3.735   1.844   3.169 -0.3925 -0.0678 -0.1234
19046TIP3    H178553   3.716   1.761   3.212 -0.2779  0.2374  0.5284
19046TIP3    H278554   3.798   1.823   3.101 -1.7364 -0.8227 -1.1949
19047TIP3   OH278555   3.883   5.130  14.017  0.0186 -0.5028 -0.4582
19047TIP3    H178556   3.903   5.049  13.970 -0.2896 -0.3231 -0.8944
19047TIP3    H278557   3.963   5.182  14.010 -0.5446  0.1900 -2.1577
19048TIP3   OH278558   5.953   5.696   3.020 -0.0213 -0.7840 -0.5694
19048TIP3    H178559   5.859   5.718   3.021 -0.0233 -0.8132  0.1642
19048TIP3    H278560   5.990   5.748   3.091  0.7028 -0.0189 -1.4722
19049TIP3   OH278561   0.200   2.737   3.973 -0.5282 -0.2958 -0.4063
19049TIP3    H178562   0.252   2.816   3.989 -1.7795  0.3696  0.5226
19049TIP3    H278563   0.212   2.718   3.880  2.4391 -0.9513  0.0004
19050TIP3   OH278564   3.098   1.175  16.836 -0.2026  0.1565  0.1441
19050TIP3    H178565   3.066   1.214  16.754  1.4059 -1.7414 -1.4861
19050TIP3    H278566   3.022   1.130  16.872 -0.8786  0.8042 -0.4347
19051TIP3   OH278567   2.562   5.405  10.873 -0.5011  0.4315 -0.0300
19051TIP3    H178568   2.510   5.468  10.823 -1.1860  0.0481  0.1963
19051TIP3    H278569   2.519   5.321  10.858 -0.4826  0.2534  0.8929
19052TIP3   OH278570   6.558   2.675  16.417  0.1869  0.4536 -0.2278
19052TIP3    H178571   6.478   2.705  16.461  1.4301  0.5403  2.1226
19052TIP3    H278572   6.615   2.752  16.416  0.6692  0.1000 -0.8763
19053TIP3   OH278573   6.431   2.977  11.172 -0.2719  0.2489  0.4639
19053TIP3    H178574   6.431   3.070  11.193  1.8193  0.2794  0.5801
19053TIP3    H278575   6.496   2.940  11.232  0.0122 -1.0303 -0.6045
19054TIP3   OH278576   0.613   0.498  11.092 -0.0716  0.0003  0.0888
19054TIP3    H178577   0.608   0.490  11.187  0.5052  3.2200  0.5045
19054TIP3    H278578   0.668   0.575  11.077 -3.2653  2.0423 -2.7375
19055TIP3   OH278579   5.371   2.399  15.663  0.1929 -0.1175  0.2813
19055TIP3    H178580   5.374   2.483  15.709  0.4366  0.4902 -0.8084
19055TIP3    H278581   5.423   2.413  15.583 -0.4429 -1.0439 -0.3198
19056TIP3   OH278582   3.800   0.608  12.917 -0.2509  0.0617  0.2006
19056TIP3    H178583   3.859   0.653  12.856  0.0428  1.2727  1.3167
19056TIP3    H278584   3.855   0.541  12.957 -0.4812 -0.8322 -0.9241
19057TIP3   OH278585   3.808   5.898   5.105 -0.1365 -0.4523  0.8892
19057TIP3    H178586   3.878   5.952   5.069  1.2669 -0.5431  3.2914
19057TIP3    H278587   3.820   5.812   5.064  0.4040 -0.1376  0.3830
19058TIP3   OH278588   0.478   5.384  10.604  0.2844  0.0297  0.6066
19058TIP3    H178589   0.443   5.351  10.521  0.6137  2.4408 -0.5795
19058TIP3    H278590   0.401   5.415  10.651  0.2391 -0.0809  0.6065
19059TIP3   OH278591   4.908   6.764   0.028  0.2280  0.3014  0.2312
19059TIP3    H178592   4.954   6.755   0.112  2.9449 -0.8519 -1.2498
19059TIP3    H278593   4.838   6.699   0.032  1.8138 -1.4856  0.7643
19060TIP3   OH278594   1.996   1.606   5.304 -0.7810  0.8146 -0.3343
19060TIP3    H178595   2.028   1.693   5.326  1.1799 -0.1131  0.7180
19060TIP3    H278596   1.921   1.593   5.363  0.1117  1.0784  0.9097
19061TIP3   OH278597   2.325   6.019  16.151 -1.0387 -0.9220 -0.1386
19061TIP3    H178598   2.338   6.113  16.136 -0.8350 -0.7074  1.1857
19061TIP3    H278599   2.235   6.013  16.183 -1.6427 -1.4143 -1.8607
19062TIP3   OH278600   5.581   0.787   3.210  0.1300 -0.4675  0.4359
19062TIP3    H178601   5.523   0.725   3.165 -0.0362 -0.4977  0.6875
19062TIP3    H278602   5.550   0.787   3.300  2.0491 -2.3203  1.1717
19063TIP3   OH278603   2.500   4.976  14.050 -0.0074  0.3384  0.0154
19063TIP3    H178604   2.462   4.894  14.080 -1.1830  1.6933  2.5063
19063TIP3    H278605   2.430   5.018  14.001 -0.1074  0.7194  0.4786
19064TIP3   OH278606   4.762   1.394  14.221 -0.0162 -0.1423 -0.1484
19064TIP3    H178607   4.730   1.461  14.160  0.4055  0.1882 -0.0126
19064TIP3    H278608   4.779   1.442  14.302 -1.5035 -0.7413  0.5606
19065TIP3   OH278609   3.295   3.060  12.958 -0.4333  0.7441 -0.6141
19065TIP3    H178610   3.362   3.129  12.954 -0.8982  1.2186 -0.3929
19065TIP3    H278611   3.221   3.095  12.908 -0.0199 -0.3690 -2.0704
19066TIP3   OH278612   0.726   4.113  15.313  0.0057  0.8742  0.1246
19066TIP3    H178613   0.782   4.160  15.252 -0.6817  2.0525  0.3725
19066TIP3    H278614   0.786   4.073  15.376  0.5816  1.8301  0.1976
19067TIP3   OH278615   5.063   0.885   4.524 -0.1140 -0.0070  0.0460
19067TIP3    H178616   5.139   0.873   4.467  0.5370  0.1257  0.8629
19067TIP3    H278617   4.993   0.836   4.482  0.6688 -0.8924 -0.2451
19068TIP3   OH278618   4.367   6.124  14.160  0.2354 -0.3231  0.5424
19068TIP3    H178619   4.411   6.207  14.144  1.8814 -1.5292 -1.7087
19068TIP3    H278620   4.291   6.126  14.102  0.2095 -0.3331  0.5763
19069TIP3   OH278621   0.478   5.963  16.400 -0.0984  0.7863 -0.3489
19069TIP3    H178622   0.464   6.007  16.316  0.1284  2.2687  0.3527
19069TIP3    H278623   0.500   6.034  16.460  0.0777 -0.2915  0.8919
19070TIP3   OH278624   0.819   1.404   0.730  0.0948 -0.3803  0.1027
19070TIP3    H178625   0.888   1.460   0.767  0.0744 -0.6444  0.5573
19070TIP3    H278626   0.849   1.385   0.641  0.9692 -1.0647  0.5199
19071TIP3   OH278627   5.844   5.022  14.431  0.3179 -0.9601 -0.1624
19071TIP3    H178628   5.806   4.937  14.448 -1.4436 -0.1813  0.0081
19071TIP3    H278629   5.909   5.006  14.363  1.3051 -2.6950  1.1229
19072TIP3   OH278630   5.376   6.555  16.487  0.4431 -0.0342  0.5396
19072TIP3    H178631   5.443   6.536  16.552  1.9610  0.5075 -0.8044
19072TIP3    H278632   5.388   6.488  16.420  1.2540  1.4418 -0.8541
19073TIP3   OH278633   2.068   0.671  13.448 -0.0969  0.1816  0.1069
19073TIP3    H178634   2.090   0.717  13.367 -0.5209  1.0078  0.4428
19073TIP3    H278635   2.009   0.601  13.421  1.2373 -0.7443 -0.5271
19074TIP3   OH278636   2.014   1.792  14.325 -1.0095 -0.0247  0.4191
19074TIP3    H178637   1.958   1.843  14.266 -0.8597 -0.1001  0.2117
19074TIP3    H278638   2.100   1.833  14.319 -0.9282 -0.1993  0.3791
19075TIP3   OH278639   1.148   5.584   5.521  1.0293 -0.1933  0.2335
19075TIP3    H178640   1.139   5.666   5.568 -1.5416  0.4759 -1.2585
19075TIP3    H278641   1.235   5.589   5.480  1.0052  1.7027  0.3314
19076TIP3   OH278642   6.107   2.465  11.963 -0.8227  0.4891 -0.1455
19076TIP3    H178643   6.202   2.471  11.952 -1.0021  1.8136 -1.2949
19076TIP3    H278644   6.095   2.400  12.032  0.8393 -1.1306 -1.2944
19077TIP3   OH278645   0.993   0.798  16.540 -0.0925 -0.2478 -0.0148
19077TIP3    H178646   1.075   0.782  16.586  0.3308  0.9288 -0.3268
19077TIP3    H278647   0.995   0.892  16.518 -1.0191 -0.4275 -0.9783
19078TIP3   OH278648   6.253   0.127  12.484 -0.0985  0.3825  0.2794
19078TIP3    H178649   6.192   0.078  12.540 -1.1623  1.0844 -0.2369
19078TIP3    H278650   6.283   0.063  12.419 -0.0764 -0.0328  0.6928
19079TIP3   OH278651   3.900   3.175   0.466 -0.2345 -0.3072  0.0494
19079TIP3    H178652   3.911   3.136   0.552 -1.0534 -1.2459 -0.2435
19079TIP3    H278653   3.980   3.224   0.450  0.1306 -0.5403  1.1297
19080TIP3   OH278654   0.552   3.803   3.419  0.1773 -0.3512  0.0358
19080TIP3    H178655   0.480   3.762   3.371  0.7866 -2.3234  0.7063
19080TIP3    H278656   0.609   3.839   3.351  0.8370 -2.7633 -0.7831
19081TIP3   OH278657   0.746   5.039   4.389  0.4408  0.2718 -0.1190
19081TIP3    H178658   0.701   5.058   4.472 -0.0488 -0.1176 -0.2867
19081TIP3    H278659   0.704   4.959   4.358 -0.1436  1.0102 -1.2942
19082TIP3   OH278660   1.710   2.540   6.596 -0.7438 -0.2051 -0.8403
19082TIP3    H178661   1.639   2.544   6.661  1.4074 -0.4037  1.6847
19082TIP3    H278662   1.758   2.461   6.618  1.9495  1.4098 -0.4928
19083TIP3   OH278663   6.312   2.978  16.055 -0.3540  0.4456  0.1668
19083TIP3    H178664   6.321   3.068  16.088 -0.7893  1.2001 -1.6301
19083TIP3    H278665   6.365   2.977  15.975 -0.3461 -0.9068  0.1714
19084TIP3   OH278666   3.594   1.726   4.681  0.1072 -0.0101  0.8430
19084TIP3    H178667   3.577   1.819   4.692  2.1068  0.4180  0.6033
19084TIP3    H278668   3.576   1.688   4.767 -1.3390  0.4562  0.7826
19085TIP3   OH278669   0.064   5.627  16.396  0.1008 -0.4332 -0.9308
19085TIP3    H178670   0.086   5.537  16.371 -1.5868 -1.4478  1.0412
19085TIP3    H278671   0.116   5.644  16.474  1.2172  0.7464 -1.8797
19086TIP3   OH278672   4.316   1.418   3.988  0.1338 -0.1462 -0.1099
19086TIP3    H178673   4.406   1.449   3.979  0.1293 -0.4742 -1.5074
19086TIP3    H278674   4.276   1.479   4.049  1.6048 -0.6841  1.4899
19087TIP3   OH278675   0.695   6.720  12.681 -0.2202 -0.1315  0.0443
19087TIP3    H178676   0.631   6.735  12.751 -0.8451 -1.0789 -0.3062
19087TIP3    H278677   0.774   6.766  12.711 -0.4400 -0.5951  1.4280
19088TIP3   OH278678   0.832   0.672  11.836  0.7595 -0.0120  0.3664
19088TIP3    H178679   0.813   0.679  11.743 -0.2194 -0.4309  0.5226
19088TIP3    H278680   0.801   0.755  11.873 -0.8952 -0.7075  0.6262
19089TIP3   OH278681   1.105   4.983   3.165 -0.2262  0.0322  0.3028
19089TIP3    H178682   1.129   4.924   3.094 -1.8262  0.0235 -0.2749
19089TIP3    H278683   1.088   4.926   3.239  0.1430 -0.0757  0.3027
19090TIP3   OH278684   5.482   1.378  15.134 -0.1875  0.2709  0.7345
19090TIP3    H178685   5.570   1.350  15.161  1.0066  1.1742 -1.9490
19090TIP3    H278686   5.491   1.472  15.118 -1.7896  0.4650  0.8855
19091TIP3   OH278687   4.290   4.514  13.795 -0.1655 -0.7006 -0.4496
19091TIP3    H178688   4.248   4.467  13.867 -0.8401  0.7932  0.1541
19091TIP3    H278689   4.252   4.474  13.716 -2.7338  0.5066  0.0603
19092TIP3   OH278690   3.711   2.966   4.714 -0.1976 -0.3671  0.0777
19092TIP3    H178691   3.777   3.000   4.652 -1.1432  1.5349  0.0247
19092TIP3    H278692   3.678   2.887   4.672  0.7141 -0.3171 -0.7941
19093TIP3   OH278693   5.292   3.270   3.011 -0.2275  1.6475 -0.2058
19093TIP3    H178694   5.351   3.340   3.038  1.9458 -0.8146  2.0187
19093TIP3    H278695   5.348   3.205   2.970 -0.9627 -1.2526  2.8476
19094TIP3   OH278696   2.745   2.811  15.221 -0.0212  0.1211 -0.3994
19094TIP3    H178697   2.835   2.844  15.228  0.5044 -0.7484 -2.3713
19094TIP3    H278698   2.707   2.862  15.150 -0.8444 -0.0974 -0.1249
19095TIP3   OH278699   5.711   6.658  15.268  0.2271  0.0689  0.2785
19095TIP3    H178700   5.679   6.603  15.340  1.3988 -1.1454 -0.0782
19095TIP3    H278701   5.775   6.717  15.309  0.1615  0.0558  0.3985
19096TIP3   OH278702   2.169   4.154   5.471 -0.1704  0.4171  0.1270
19096TIP3    H178703   2.107   4.201   5.527 -0.6211  1.4771 -1.2077
19096TIP3    H278704   2.141   4.175   5.382  0.6470 -1.0613 -0.5172
19097TIP3   OH278705   3.456   4.681   1.738 -0.0671 -0.0058  0.2695
19097TIP3    H178706   3.469   4.603   1.685  2.7171 -0.8780  2.0590
19097TIP3    H278707   3.363   4.678   1.763 -0.5710 -1.4167 -1.5642
19098TIP3   OH278708   2.359   0.037  11.208 -0.3352 -0.5245  0.1095
19098TIP3    H178709   2.296   0.010  11.141  0.2906 -0.6401 -0.4468
19098TIP3    H278710   2.437   0.062  11.158  0.1579 -0.6564  0.8004
19099TIP3   OH278711   1.185   3.815   1.446 -0.3910  0.0048 -0.2211
19099TIP3    H178712   1.118   3.754   1.413 -0.5851  0.0291  0.1267
19099TIP3    H278713   1.185   3.802   1.540  0.3859 -0.2829 -0.2541
19100TIP3   OH278714   2.729   6.484   2.190 -0.4775 -0.0212 -0.2440
19100TIP3    H178715   2.780   6.410   2.155 -0.2474  0.1436 -0.2584
19100TIP3    H278716   2.679   6.516   2.115 -0.7715 -0.3235 -0.1784
19101TIP3   OH278717   3.089   6.741  16.721 -0.0584  0.4825  0.2984
19101TIP3    H178718   3.175   6.737  16.763  0.6433  0.0789 -1.1128
19101TIP3    H278719   3.106   6.717  16.630 -1.7007  0.2189  0.0331
19102TIP3   OH278720   2.133   6.370  14.895  0.7129 -0.0136 -0.2375
19102TIP3    H178721   2.122   6.432  14.823  1.1517  0.4466  0.0910
19102TIP3    H278722   2.131   6.424  14.974  0.7661 -0.4572  0.0680
19103TIP3   OH278723   1.543   2.853  16.607 -0.4081  0.6851  0.0458
19103TIP3    H178724   1.476   2.796  16.568  0.3203  0.8636 -1.5574
19103TIP3    H278725   1.500   2.938  16.614 -0.9027  0.3914  0.6985
19104TIP3   OH278726   4.570   0.795  10.514  0.0061 -0.1927 -0.2435
19104TIP3    H178727   4.664   0.788  10.498  0.0436  1.1219 -0.7402
19104TIP3    H278728   4.559   0.881  10.555 -1.0478 -0.0747 -0.7519
19105TIP3   OH278729   2.244   2.632  12.503 -0.3144 -0.0554 -0.0585
19105TIP3    H178730   2.252   2.560  12.441  1.8649  0.3395 -0.3199
19105TIP3    H278731   2.194   2.699  12.455 -0.3584 -0.4955 -0.6453
19106TIP3   OH278732   5.941   0.822  12.088  0.4941 -0.0566  0.5548
19106TIP3    H178733   5.978   0.828  12.000  0.3115 -2.7000  0.2050
19106TIP3    H278734   5.853   0.861  12.080  0.9851  0.9653 -0.0519
19107TIP3   OH278735   3.493   3.639  11.445  0.3718  0.3597 -0.5109
19107TIP3    H178736   3.560   3.650  11.513  1.3447 -0.2214 -1.3434
19107TIP3    H278737   3.519   3.700  11.376 -0.4871  0.7886 -0.4589
19108TIP3   OH278738   1.928   3.797   5.422  0.1659  0.2750  0.4931
19108TIP3    H178739   1.955   3.710   5.452  2.0412  0.7864  0.4303
19108TIP3    H278740   1.839   3.808   5.456  0.3972 -1.1223  1.6358
19109TIP3   OH278741   4.761   4.447   0.919  0.0889 -0.3136  0.4012
19109TIP3    H178742   4.703   4.380   0.880  0.7783 -0.5755 -0.2029
19109TIP3    H278743   4.702   4.518   0.944 -0.7120 -1.3082  1.4137
19110TIP3   OH278744   5.058   2.378  12.264  0.1172  0.2426 -0.0721
19110TIP3    H178745   5.149   2.353  12.245  0.0032 -1.1309  0.9855
19110TIP3    H278746   5.020   2.397  12.178  1.5250  1.3818 -0.4931
19111TIP3   OH278747   3.449   0.031   5.942  0.7460 -0.3574 -0.3613
19111TIP3    H178748   3.531   0.035   5.991  0.0608  1.4146  0.7576
19111TIP3    H278749   3.383   0.006   6.008 -0.0206  1.0176 -0.5551
19112TIP3   OH278750   3.608   1.410   0.175  0.0806 -0.2022  0.3114
19112TIP3    H178751   3.668   1.358   0.227  0.4986 -0.7379 -0.6748
19112TIP3    H278752   3.656   1.429   0.094 -0.7652  0.0823 -0.1394
19113TIP3   OH278753   1.801   3.288   2.718 -0.3568  0.1128 -0.1008
19113TIP3    H178754   1.867   3.219   2.718 -0.1048  0.3436 -1.0289
19113TIP3    H278755   1.850   3.369   2.704 -0.6492  0.4962  0.9962
19114TIP3   OH278756   4.524   4.500   3.542 -0.5261  0.0987 -0.3086
19114TIP3    H178757   4.541   4.461   3.456  0.2434  0.2840 -0.2482
19114TIP3    H278758   4.606   4.488   3.590  0.2885  3.0435 -0.7545
19115TIP3   OH278759   3.892   4.685   0.334  0.0070  0.2319  0.4619
19115TIP3    H178760   3.838   4.613   0.365  1.1769 -0.5024  0.8800
19115TIP3    H278761   3.831   4.744   0.290 -1.2708 -0.0649  1.7581
19116TIP3   OH278762   4.634   3.756  13.936 -0.7761 -0.2142  0.8992
19116TIP3    H178763   4.659   3.664  13.935  1.0620  0.2317 -1.0199
19116TIP3    H278764   4.616   3.775  14.028 -2.4150 -2.7402  1.2037
19117TIP3   OH278765   3.388   1.415  15.140 -0.2696 -0.2281 -0.4994
19117TIP3    H178766   3.410   1.479  15.208 -0.1287 -0.1489 -0.6182
19117TIP3    H278767   3.294   1.399  15.151 -0.2031 -0.3824 -0.1459
19118TIP3   OH278768   0.956   2.215   5.349  0.1712  0.5453  0.3187
19118TIP3    H178769   0.952   2.147   5.281  0.8239 -1.1139  1.8409
19118TIP3    H278770   1.049   2.220   5.371  0.2606  2.6439 -0.3797
19119TIP3   OH278771   3.111   5.072  11.559 -0.9021 -0.0050 -0.2492
19119TIP3    H178772   3.143   5.141  11.617  0.1470 -1.0525  0.4848
19119TIP3    H278773   3.029   5.043  11.599 -1.3477  0.7958 -0.5630
19120TIP3   OH278774   2.203   0.168  13.821  0.5603 -0.4133  0.2461
19120TIP3    H178775   2.173   0.205  13.904  0.8234 -1.7461  0.9657
19120TIP3    H278776   2.162   0.082  13.816 -0.9328  0.3410 -1.9262
19121TIP3   OH278777   2.454   2.262   5.258  0.2237  0.4091  0.0840
19121TIP3    H178778   2.379   2.319   5.277  0.2365  0.5041 -0.1435
19121TIP3    H278779   2.417   2.190   5.207  0.1636  0.0791  0.5885
19122TIP3   OH278780   0.222   2.219   6.392 -0.7405 -0.1279  0.2256
19122TIP3    H178781   0.231   2.314   6.404 -1.7192 -0.1839  1.5459
19122TIP3    H278782   0.239   2.182   6.478 -0.2317 -1.1921 -0.3057
19123TIP3   OH278783   1.774   3.247  11.915 -0.1383  0.3125 -0.5469
19123TIP3    H178784   1.706   3.274  11.853 -0.6434 -0.0100 -0.1389
19123TIP3    H278785   1.726   3.204  11.985  0.4272  0.7076  0.0872
19124TIP3   OH278786   3.377   4.269   3.971 -0.7083  0.1848  0.5680
19124TIP3    H178787   3.330   4.291   4.051 -0.6557  0.5111  0.5106
19124TIP3    H278788   3.468   4.291   3.990 -0.3600 -1.5885  1.1132
19125TIP3   OH278789   2.806   5.352   5.993  0.4493  0.5054  0.6228
19125TIP3    H178790   2.761   5.423   6.039 -0.9036  0.7784 -1.0246
19125TIP3    H278791   2.788   5.369   5.900  1.9396 -0.7781  0.0570
19126TIP3   OH278792   0.438   3.565  11.374  0.0459  0.5570  0.1525
19126TIP3    H178793   0.360   3.543  11.323 -0.1366  2.5547 -0.5022
19126TIP3    H278794   0.404   3.605  11.454  0.3489 -2.1205  1.7372
19127TIP3   OH278795   4.730   1.661   1.657 -0.6188  0.0379 -0.2486
19127TIP3    H178796   4.719   1.566   1.649  0.2085  0.0632 -2.2525
19127TIP3    H278797   4.715   1.679   1.750  0.2084 -2.1773  0.3832
19128TIP3   OH278798   4.813   6.552  16.573 -0.3948  0.2865  0.0152
19128TIP3    H178799   4.792   6.641  16.603  2.4509  0.4499  1.9393
19128TIP3    H278800   4.772   6.495  16.638 -1.7767  0.1519 -0.9307
19129TIP3   OH278801   4.815   4.718  16.218  0.7456 -0.5228  0.2704
19129TIP3    H178802   4.816   4.672  16.134  1.6206 -2.6543  1.3665
19129TIP3    H278803   4.840   4.808  16.197  1.5877 -1.1621 -1.6641
19130TIP3   OH278804   4.299   0.097   4.615 -0.1931 -0.0423 -0.1810
19130TIP3    H178805   4.339   0.056   4.538  0.3094  4.2431 -2.4609
19130TIP3    H278806   4.219   0.046   4.630  0.2882 -1.7671 -2.8032
19131TIP3   OH278807   1.198   2.271  11.679  0.0902 -0.1943 -0.1362
19131TIP3    H178808   1.136   2.199  11.689  0.9064 -1.2003 -1.8394
19131TIP3    H278809   1.199   2.290  11.585  1.0944  0.9500  0.0727
19132TIP3   OH278810   0.148   6.270  14.941  0.5801  0.4541 -0.3533
19132TIP3    H178811   0.161   6.351  14.991  0.3194  0.8107 -0.8436
19132TIP3    H278812   0.128   6.301  14.852  3.0230 -0.1644 -1.1887
19133TIP3   OH278813   0.285   5.096   2.659  0.6900  0.2894  0.1421
19133TIP3    H178814   0.344   5.089   2.733  0.8705 -0.3737 -0.0616
19133TIP3    H278815   0.334   5.146   2.593  0.1857  1.7022  0.8034
19134TIP3   OH278816   1.150   2.488  12.089 -0.2156 -0.1382 -0.0843
19134TIP3    H178817   1.159   2.583  12.093  0.3986 -0.0912 -1.6793
19134TIP3    H278818   1.211   2.461  12.020 -0.8651 -1.6165 -0.1266
19135TIP3   OH278819   3.177   0.649   0.743  0.3493 -0.0054 -0.2905
19135TIP3    H178820   3.097   0.667   0.791  0.5581  0.0788  0.0283
19135TIP3    H278821   3.210   0.735   0.716 -0.0403 -0.0821 -1.0368
19136TIP3   OH278822   0.327   5.842  13.457  0.1835  0.1127  0.5799
19136TIP3    H178823   0.305   5.886  13.375 -0.1658  2.2839  1.7861
19136TIP3    H278824   0.311   5.749  13.439  1.6088  0.3079 -2.2854
19137TIP3   OH278825   4.616   0.591   6.297  0.1280  0.0814  0.0941
19137TIP3    H178826   4.553   0.533   6.254  0.3868 -0.2486  0.1555
19137TIP3    H278827   4.591   0.678   6.267 -1.6058  0.1891  1.6521
19138TIP3   OH278828   1.546   3.076  13.344  0.2120 -0.2298  0.3832
19138TIP3    H178829   1.565   3.009  13.278  0.6894 -1.4610  1.6938
19138TIP3    H278830   1.452   3.068  13.360  0.2307 -0.4575  0.3835
19139TIP3   OH278831   2.383   2.333   1.674 -0.3097  0.6422 -0.5083
19139TIP3    H178832   2.448   2.365   1.737  0.0657 -1.1072  0.0522
19139TIP3    H278833   2.407   2.375   1.591  1.0441  0.6633 -0.1275
19140TIP3   OH278834   4.232   1.702  14.376 -0.3599  0.2042  0.1785
19140TIP3    H178835   4.292   1.741  14.439 -0.9369 -1.2454  1.7068
19140TIP3    H278836   4.287   1.673  14.303  0.5101  0.6953  0.6383
19141TIP3   OH278837   6.148   1.252   2.492 -0.5248 -0.6605  0.1864
19141TIP3    H178838   6.114   1.180   2.439 -1.3693 -0.6869  0.7521
19141TIP3    H278839   6.225   1.215   2.536 -0.4675 -0.9635 -0.1618
19142TIP3   OH278840   0.564   3.510  11.994  0.0444 -0.4399 -0.6497
19142TIP3    H178841   0.570   3.495  11.900  1.1518 -1.5735 -0.4196
19142TIP3    H278842   0.565   3.605  12.003  0.1814 -0.3239 -1.7667
19143TIP3   OH278843   1.402   4.897  12.599  0.4999  0.0402  0.2719
19143TIP3    H178844   1.375   4.863  12.684 -1.0258 -3.2690 -1.3508
19143TIP3    H278845   1.333   4.957  12.574 -0.3854 -0.9186  0.3370
19144TIP3   OH278846   0.601   5.638   0.720  0.3195 -0.0693  0.2224
19144TIP3    H178847   0.620   5.695   0.646 -0.2818  0.0749  0.1725
19144TIP3    H278848   0.684   5.627   0.765  0.8809 -0.8266 -0.9445
19145TIP3   OH278849   5.146   2.405   5.826  0.1711 -0.6600 -0.3717
19145TIP3    H178850   5.055   2.409   5.856  0.5341 -1.0775  0.8704
19145TIP3    H278851   5.155   2.478   5.765 -1.2474 -1.1968 -1.2573
19146TIP3   OH278852   3.570   1.643  11.862 -0.3356 -0.3466 -0.5867
19146TIP3    H178853   3.522   1.726  11.850 -1.5969 -1.2293 -2.0131
19146TIP3    H278854   3.630   1.640  11.788  1.1944  0.2216  0.5921
19147TIP3   OH278855   3.602   2.290  16.418 -0.2260  0.6061 -0.6241
19147TIP3    H178856   3.570   2.202  16.437  0.9465  0.5793  1.5657
19147TIP3    H278857   3.529   2.347  16.440  0.1152  0.3582  1.2902
19148TIP3   OH278858   5.416   3.399  13.578 -0.1299 -0.3545  0.1494
19148TIP3    H178859   5.402   3.428  13.668 -1.5410 -1.8916  0.4751
19148TIP3    H278860   5.501   3.354  13.580  0.2509  0.3676  0.4950
19149TIP3   OH278861   2.409   2.313   0.151  0.4041  0.4063  0.0637
19149TIP3    H178862   2.484   2.263   0.183  0.8282 -0.0409 -1.5527
19149TIP3    H278863   2.362   2.253   0.093  0.0070  1.3671 -0.6374
19150TIP3   OH278864   1.707   1.347   5.210  0.4345  0.1489 -0.6314
19150TIP3    H178865   1.744   1.306   5.132  1.1831 -0.3904 -0.0185
19150TIP3    H278866   1.765   1.319   5.281 -0.5327  0.1876  0.2024
19151TIP3   OH278867   5.025   5.665  14.481 -0.1298  0.5324  0.1446
19151TIP3    H178868   5.100   5.609  14.501  0.2973  0.4363 -1.5939
19151TIP3    H278869   5.057   5.726  14.415 -1.1329  1.6105  0.6087
19152TIP3   OH278870   2.077   1.444  12.711 -0.1075  0.5637  0.1672
19152TIP3    H178871   2.012   1.478  12.771 -0.5435  1.1909 -0.6406
19152TIP3    H278872   2.063   1.349  12.711 -1.1465  0.7045 -0.1281
19153TIP3   OH278873   2.500   3.905   5.509 -0.7311 -0.5694 -1.0304
19153TIP3    H178874   2.428   3.873   5.564  0.2401 -1.9277 -0.4606
19153TIP3    H278875   2.534   3.981   5.556 -0.0135 -1.6186  0.2410
19154TIP3   OH278876   6.011   5.812  14.023 -0.5932  0.1026 -0.1803
19154TIP3    H178877   5.954   5.868  13.972 -0.9106 -1.5272 -1.7090
19154TIP3    H278878   5.952   5.762  14.080 -0.8521 -1.9175 -2.0888
19155TIP3   OH278879   2.109   4.435   4.534 -0.2070 -0.0762 -0.1143
19155TIP3    H178880   2.144   4.474   4.614  0.1875 -0.5545 -0.0539
19155TIP3    H278881   2.031   4.387   4.562 -0.1952 -0.0590 -0.0521
19156TIP3   OH278882   5.242   5.380   2.098  0.0551  0.1541  0.2572
19156TIP3    H178883   5.232   5.467   2.138 -0.5136  0.8665 -1.3520
19156TIP3    H278884   5.309   5.392   2.031 -0.7705 -0.3943 -0.6859
19157TIP3   OH278885   0.433   4.193   5.698  0.1925  0.3006 -0.2682
19157TIP3    H178886   0.451   4.104   5.668  0.0063  0.0623  0.3279
19157TIP3    H278887   0.341   4.192   5.723  0.1316  0.7241 -0.4689
19158TIP3   OH278888   4.703   3.397   2.945  0.0327 -0.4449 -0.9668
19158TIP3    H178889   4.785   3.352   2.966  1.3830  2.1941 -0.0555
19158TIP3    H278890   4.731   3.484   2.918 -2.4943  0.6216 -0.3916
19159TIP3   OH278891   4.714   1.887   0.358  0.4970 -0.3810  0.0506
19159TIP3    H178892   4.680   1.867   0.445  2.3771  0.7263  1.0920
19159TIP3    H278893   4.792   1.940   0.374 -1.4060  3.6241 -2.3608
19160TIP3   OH278894   4.493   5.825   5.910 -0.1664  0.2973 -0.1009
19160TIP3    H178895   4.441   5.815   5.989  0.0860  0.8353  0.1341
19160TIP3    H278896   4.499   5.736   5.874 -0.1091  0.0195  0.5898
19161TIP3   OH278897   2.018   1.631  15.367 -0.3627  0.2457  0.3754
19161TIP3    H178898   1.954   1.689  15.327  0.4305  2.0639  1.5895
19161TIP3    H278899   2.007   1.644  15.461 -0.1401 -1.6222  0.7134
19162TIP3   OH278900   1.402   1.507   1.586  0.3688  0.4718 -0.6802
19162TIP3    H178901   1.463   1.449   1.633 -0.3083  0.7752  0.6056
19162TIP3    H278902   1.422   1.594   1.620 -0.6889  0.5861 -0.3361
19163TIP3   OH278903   1.411   5.025  16.498 -0.2393 -0.2691  0.3914
19163TIP3    H178904   1.382   5.104  16.544 -0.2735 -0.8871  1.4799
19163TIP3    H278905   1.360   4.954  16.538 -0.3223 -0.8288 -0.6752
19164TIP3   OH278906   1.077   3.627   1.023 -0.2831  0.1575  0.1853
19164TIP3    H178907   1.044   3.705   0.978 -2.7750 -1.8870 -1.9074
19164TIP3    H278908   1.132   3.584   0.958 -0.1434 -0.5788  0.7836
19165TIP3   OH278909   4.557   0.973  15.717  0.0549  0.2906  0.0039
19165TIP3    H178910   4.497   0.940  15.783  1.8284 -1.8811  0.7024
19165TIP3    H278911   4.537   0.922  15.638 -0.1624  0.7969 -0.2692
19166TIP3   OH278912   5.662   4.495   4.320  0.6974  0.3378 -0.1637
19166TIP3    H178913   5.734   4.551   4.349  0.1571  0.4664  0.9989
19166TIP3    H278914   5.587   4.554   4.315  0.4448  0.0035 -0.3452
19167TIP3   OH278915   4.486   6.741  12.923  0.0127  0.4616 -0.0771
19167TIP3    H178916   4.532   6.825  12.925  1.5278 -0.3291 -0.2144
19167TIP3    H278917   4.475   6.718  13.016  0.9352  0.1160 -0.0502
19168TIP3   OH278918   6.246   5.790   5.281  0.1450  0.4338  0.3186
19168TIP3    H178919   6.317   5.745   5.235 -1.4243 -2.3896  0.4899
19168TIP3    H278920   6.280   5.803   5.370  0.1408 -1.8992  0.7186
19169TIP3   OH278921   1.165   2.628  13.055  0.2970 -0.5063  0.2078
19169TIP3    H178922   1.238   2.686  13.035 -0.5009  0.4487 -0.0559
19169TIP3    H278923   1.173   2.556  12.993 -0.7551  1.1937 -2.0349
19170TIP3   OH278924   2.928   6.531   1.209 -0.1174  0.0081 -0.0277
19170TIP3    H178925   2.898   6.461   1.267 -0.0613  0.7313  0.8803
19170TIP3    H278926   2.911   6.612   1.257  1.5732  0.5390 -0.2683
19171TIP3   OH278927   2.810   1.633   0.627  0.2704 -0.2903  0.1469
19171TIP3    H178928   2.747   1.561   0.622 -0.0167 -0.0766  0.5690
19171TIP3    H278929   2.815   1.653   0.721  0.9861 -0.3198  0.1238
19172TIP3   OH278930   3.357   1.440   4.763  0.0491  0.7159  0.1868
19172TIP3    H178931   3.339   1.352   4.796 -1.5864  1.9508  2.9141
19172TIP3    H278932   3.356   1.430   4.667 -2.3605 -1.7981  0.3522
19173TIP3   OH278933   4.026   6.722   5.526 -0.0010  0.1071 -0.1111
19173TIP3    H178934   3.939   6.750   5.552 -0.4530 -1.0280 -0.3414
19173TIP3    H278935   4.029   6.737   5.431 -0.5112 -1.2550 -0.3598
19174TIP3   OH278936   5.434   3.927  11.585  0.2764  0.3471 -0.3192
19174TIP3    H178937   5.468   3.982  11.515  1.3057  0.8593  0.5517
19174TIP3    H278938   5.450   3.977  11.665 -0.7989 -0.2548  0.2994
19175TIP3   OH278939   2.699   5.609   3.493  0.0908  0.2535 -0.2743
19175TIP3    H178940   2.697   5.522   3.454 -1.4373  1.0622 -2.1410
19175TIP3    H278941   2.772   5.654   3.450 -0.4235  0.5420 -0.8620
19176TIP3   OH278942   2.562   2.866   2.162 -0.4417  0.0081 -0.1378
19176TIP3    H178943   2.553   2.856   2.068  0.6647  0.5920 -0.3291
19176TIP3    H278944   2.584   2.779   2.194 -2.1569 -0.4796 -0.2228
19177TIP3   OH278945   1.605   5.142  11.697 -0.3225  0.1197  0.1230
19177TIP3    H178946   1.566   5.156  11.783 -0.8516  1.7711 -0.3504
19177TIP3    H278947   1.692   5.107  11.716 -0.3965  0.5467  1.3333
19178TIP3   OH278948   3.647   5.099   1.162 -0.4429 -0.3062 -0.3033
19178TIP3    H178949   3.736   5.065   1.149 -0.0524  1.4539 -3.1092
19178TIP3    H278950   3.654   5.154   1.241  0.7330 -0.8968  0.0306
19179TIP3   OH278951   1.712   2.376  15.323 -0.3257  0.0559  0.4303
19179TIP3    H178952   1.619   2.389  15.336 -0.1591  1.1490  0.5957
19179TIP3    H278953   1.748   2.464  15.315  0.6175 -0.3669 -0.1670
19180TIP3   OH278954   6.071   2.917   4.207  0.1270 -0.4882 -0.5613
19180TIP3    H178955   6.052   2.842   4.264  0.6735  0.7114  1.2631
19180TIP3    H278956   6.154   2.952   4.240  1.4754 -0.8488 -3.3211
19181TIP3   OH278957   3.312   4.174   4.933 -0.3880 -0.3872 -0.2007
19181TIP3    H178958   3.337   4.167   5.025  0.5036 -0.2033 -0.4098
19181TIP3    H278959   3.291   4.085   4.906  1.5965 -0.8538 -0.3975
19182TIP3   OH278960   5.587   3.490   4.869 -0.2160 -0.4581  0.0321
19182TIP3    H178961   5.516   3.495   4.933  0.9859 -2.6597  1.6506
19182TIP3    H278962   5.662   3.529   4.914  0.0261  0.4558 -1.1028
19183TIP3   OH278963   2.379   3.104  14.208 -0.0938  0.0883  0.3025
19183TIP3    H178964   2.366   3.168  14.278  0.3311  0.6231 -0.0979
19183TIP3    H278965   2.310   3.039  14.221  0.1175  0.0683  1.3465
19184TIP3   OH278966   4.298   5.976  10.812 -0.3363 -0.2965  0.1151
19184TIP3    H178967   4.225   5.992  10.752 -0.7315  1.1089  0.9253
19184TIP3    H278968   4.363   5.930  10.758 -2.0387 -2.1989 -0.4508
19185TIP3   OH278969   2.086   0.005   3.624 -0.6839  0.3740  0.0412
19185TIP3    H178970   2.126   0.089   3.646  0.6016  0.0704 -1.0393
19185TIP3    H278971   2.032  -0.016   3.701  1.0421  0.9104  1.4633
19186TIP3   OH278972   3.940   3.286  13.903  0.5526 -0.4798  0.3535
19186TIP3    H178973   4.030   3.265  13.930  0.7280 -0.3548 -0.1299
19186TIP3    H278974   3.911   3.352  13.966  0.7690 -0.5877  0.5666
19187TIP3   OH278975   6.758   6.462   6.154  0.1025 -0.4499  0.2316
19187TIP3    H178976   6.772   6.505   6.239 -0.2622 -1.4691  0.8332
19187TIP3    H278977   6.664   6.473   6.137  0.1419 -0.4009  0.0439
19188TIP3   OH278978   3.989   4.483  11.893  0.2737  0.3242 -0.5398
19188TIP3    H178979   3.895   4.483  11.911  0.0668 -1.2596 -1.4483
19188TIP3    H278980   4.011   4.391  11.881  2.4305  0.4013  1.9125
19189TIP3   OH278981   4.407   4.105   3.685  0.1495 -0.3624 -0.3142
19189TIP3    H178982   4.334   4.061   3.729  1.0322 -0.8809  0.6841
19189TIP3    H278983   4.484   4.054   3.710  0.7263 -0.5852 -2.3647
19190TIP3   OH278984   0.936   6.005   4.298  0.1414 -0.2809 -0.1607
19190TIP3    H178985   0.850   5.977   4.328  0.3116 -0.2014  0.4222
19190TIP3    H278986   0.921   6.090   4.257 -0.0472 -0.2397 -0.0037
19191TIP3   OH278987   2.499   1.683   0.245 -0.0179  0.4821  0.3568
19191TIP3    H178988   2.518   1.600   0.289  0.3479  0.5512  0.3294
19191TIP3    H278989   2.578   1.736   0.256  0.0774  0.5094 -0.3603
19192TIP3   OH278990   3.555   2.151  12.812  0.0004 -0.5360  0.3593
19192TIP3    H178991   3.645   2.133  12.842  0.0062 -1.4088 -0.1645
19192TIP3    H278992   3.501   2.135  12.889  0.5123  3.2427  1.7560
19193TIP3   OH278993   0.107   0.089   3.114 -0.4177  0.0149 -0.0353
19193TIP3    H178994   0.033   0.122   3.164 -1.0094 -0.1014 -0.8080
19193TIP3    H278995   0.182   0.098   3.173 -0.8744  1.0239  0.4196
19194TIP3   OH278996   2.427   3.243  15.865  0.1856 -0.3411  0.0159
19194TIP3    H178997   2.409   3.305  15.795 -1.7094 -0.9650 -0.0983
19194TIP3    H278998   2.385   3.281  15.942  0.2669 -0.7784  0.2809
19195TIP3   OH278999   1.487   0.463   0.256 -0.0534 -0.0328  0.2731
19195TIP3    H179000   1.465   0.441   0.165 -0.2509 -2.3544  0.8220
19195TIP3    H279001   1.408   0.443   0.305  0.9564 -1.7661  1.3255
19196TIP3   OH279002   2.873   5.743   3.276  0.3083 -0.3997  0.2944
19196TIP3    H179003   2.936   5.735   3.348  0.1966  0.0217  0.4447
19196TIP3    H279004   2.800   5.791   3.315  0.7112  0.8161 -0.3852
19197TIP3   OH279005   6.314   0.620  16.490  0.0193 -0.3867 -0.3909
19197TIP3    H179006   6.374   0.587  16.423  2.9685  0.2339  1.7169
19197TIP3    H279007   6.298   0.545  16.548 -0.8721 -0.4170 -0.6594
19198TIP3   OH279008   0.439   6.291   4.504  0.7152  0.1572  0.3851
19198TIP3    H179009   0.483   6.295   4.419  0.3624 -1.4214  0.0971
19198TIP3    H279010   0.509   6.271   4.566  0.9597  1.2283  0.4716
19199TIP3   OH279011   0.486   5.030  12.658  0.2165  0.3288 -0.1051
19199TIP3    H179012   0.555   4.963  12.661 -1.7687 -1.8325  2.5486
19199TIP3    H279013   0.418   4.990  12.604 -0.1379  1.1707 -0.2898
19200TIP3   OH279014   2.147   0.505   1.391 -0.1956 -0.1080 -0.4155
19200TIP3    H179015   2.237   0.472   1.387  0.5971  1.9567 -0.9541
19200TIP3    H279016   2.134   0.529   1.482 -0.2984 -0.6628 -0.2835
19201TIP3   OH279017   3.899   3.491   1.041 -0.7857  0.3037 -0.2056
19201TIP3    H179018   3.955   3.518   1.113 -0.4817  0.6049 -0.5529
19201TIP3    H279019   3.815   3.468   1.083 -1.0571  1.7682  0.1037
19202TIP3   OH279020   2.991   2.610   4.850  0.3064 -0.8780  0.0259
19202TIP3    H179021   3.070   2.559   4.835 -0.2070 -1.4533 -0.8263
19202TIP3    H279022   3.017   2.701   4.833  1.0984 -0.8991  1.0518
19203TIP3   OH279023   5.385   0.605   4.714 -0.0874  0.3783  0.0035
19203TIP3    H179024   5.378   0.698   4.693 -0.9963  0.1243 -0.9571
19203TIP3    H279025   5.315   0.589   4.778  0.8832  0.5897  1.1475
19204TIP3   OH279026   2.881   5.875  15.790 -0.6050  0.2956 -0.0919
19204TIP3    H179027   2.787   5.862  15.803 -0.7367  1.2216 -0.0787
19204TIP3    H279028   2.894   5.856  15.697 -0.6226 -0.8298  0.1258
19205TIP3   OH279029   1.919   3.486   1.620 -1.1809 -0.2815 -0.1578
19205TIP3    H179030   1.885   3.407   1.578 -0.1434 -0.6586 -0.3177
19205TIP3    H279031   1.844   3.523   1.666 -1.5692 -1.6440  0.3445
19206TIP3   OH279032   2.293   0.377  11.166 -0.1657  0.3083 -0.2468
19206TIP3    H179033   2.327   0.455  11.123 -0.9125  0.8674  0.1691
19206TIP3    H279034   2.327   0.304  11.113  0.5753  0.8992 -0.6064
19207TIP3   OH279035   3.670   5.517  14.793  0.2797 -0.1762 -0.1610
19207TIP3    H179036   3.605   5.447  14.795  0.9986 -0.8853  2.8213
19207TIP3    H279037   3.728   5.494  14.720 -1.7493 -0.4404 -1.7761
19208TIP3   OH279038   3.088   3.913   2.491 -0.0720 -0.8086 -0.1079
19208TIP3    H179039   3.123   3.976   2.428 -1.4751 -1.3826 -1.5278
19208TIP3    H279040   3.165   3.866   2.524  0.8128  0.3982 -0.3757
19209TIP3   OH279041   3.571   1.840  13.402  0.1407  0.4056  0.0069
19209TIP3    H179042   3.510   1.771  13.427  0.3027  0.3084  0.1433
19209TIP3    H279043   3.521   1.921  13.408  0.3152  0.4509  1.2098
19210TIP3   OH279044   3.696   0.606  15.118 -0.5797 -0.0668 -0.1494
19210TIP3    H179045   3.775   0.616  15.171  0.4438 -1.7545 -1.2767
19210TIP3    H279046   3.722   0.634  15.030 -1.1793 -0.8132 -0.5715
19211TIP3   OH279047   6.464   6.315   1.504 -0.4520  0.1164  0.1414
19211TIP3    H179048   6.535   6.363   1.461 -0.1553  0.2264  0.7546
19211TIP3    H279049   6.491   6.307   1.595  0.6677 -3.2452 -0.3233
19212TIP3   OH279050   2.967   0.653   5.012 -0.2260  0.1235  0.4816
19212TIP3    H179051   2.984   0.720   5.079  0.4295 -1.0510  1.5350
19212TIP3    H279052   3.052   0.611   4.998 -0.4335  0.1134 -0.8503
19213TIP3   OH279053   4.210   4.238  11.587  0.0370 -0.1021  0.1341
19213TIP3    H179054   4.234   4.188  11.509  0.1534 -0.9989  0.7397
19213TIP3    H279055   4.206   4.329  11.557 -0.8443 -0.5340 -1.1358
19214TIP3   OH279056   6.423   3.322  16.455  0.3923 -0.5651  0.1183
19214TIP3    H179057   6.425   3.379  16.531  0.4712  0.8121 -0.8694
19214TIP3    H279058   6.350   3.263  16.471 -0.2448  0.3718  0.8062
19215TIP3   OH279059   3.643   1.817  17.196  0.2376 -0.3578 -0.2124
19215TIP3    H179060   3.611   1.816  17.106 -2.0917 -1.7832  0.5137
19215TIP3    H279061   3.592   1.885  17.239  0.4361 -0.5217  0.2915
19216TIP3   OH279062   2.933   4.912   3.799  0.5347 -0.0862 -0.2218
19216TIP3    H179063   2.939   4.929   3.705 -0.5298 -0.0849 -0.2959
19216TIP3    H279064   2.870   4.976   3.831  0.7416 -0.2172  0.4674
19217TIP3   OH279065   5.959   5.017  16.387 -0.3683 -0.5632 -0.1160
19217TIP3    H179066   5.984   4.934  16.345 -1.1235 -1.3981  1.0304
19217TIP3    H279067   5.865   5.010  16.398 -0.3304  0.1265  0.6897
19218TIP3   OH279068   5.479   5.869  15.868 -0.6208  0.1772 -0.3998
19218TIP3    H179069   5.479   5.927  15.945  0.5547 -0.5479  0.1828
19218TIP3    H279070   5.490   5.927  15.794  0.3140  0.7454  0.1586
19219TIP3   OH279071   2.066   3.406   0.036 -0.0403  0.1203 -0.3587
19219TIP3    H179072   2.074   3.357  -0.046 -0.9961 -0.7474  0.0348
19219TIP3    H279073   2.145   3.459   0.041  0.7140 -0.9005 -1.1329
19220TIP3   OH279074   1.675   1.122   0.147  0.3988 -0.4232  0.5389
19220TIP3    H179075   1.606   1.111   0.212  1.1016 -0.1643  1.3464
19220TIP3    H279076   1.746   1.165   0.195  0.7704  0.1522 -0.5069
19221TIP3   OH279077   0.876   4.875  15.250  0.1788  0.6657  0.1382
19221TIP3    H179078   0.880   4.779  15.252  2.1589  0.6590 -0.9841
19221TIP3    H279079   0.784   4.896  15.238 -0.3094 -1.1000  0.6265
19222TIP3   OH279080   0.638   6.057  16.857  0.6280  0.1415 -0.4765
19222TIP3    H179081   0.683   5.975  16.879  0.2884 -0.0362 -0.4270
19222TIP3    H279082   0.708   6.121  16.848  0.9197 -0.2113 -0.7757
19223TIP3   OH279083   0.006   1.075   1.360 -1.2972 -0.3786 -0.1069
19223TIP3    H179084   0.065   1.083   1.285 -0.7253 -0.7462  0.3009
19223TIP3    H279085  -0.055   1.006   1.335 -0.1731 -1.5736  0.3659
19224TIP3   OH279086   4.348   5.540   2.715 -0.1723 -0.3828  0.5349
19224TIP3    H179087   4.287   5.531   2.641 -1.9995 -1.6421  2.1045
19224TIP3    H279088   4.336   5.631   2.744  0.8024  0.2312 -0.8442
19225TIP3   OH279089   4.282   2.236  13.089  0.2183 -0.0706 -0.6086
19225TIP3    H179090   4.317   2.149  13.069  2.1159  0.5455 -0.2034
19225TIP3    H279091   4.187   2.224  13.094  0.4407 -2.0952 -0.6277
19226TIP3   OH279092   1.075   1.166  13.285 -0.0015  0.5645 -0.0928
19226TIP3    H179093   1.091   1.219  13.363 -0.2120  0.3192  0.1180
19226TIP3    H279094   1.015   1.097  13.315  0.8748 -0.2502 -0.1737
19227TIP3   OH279095   6.086   2.069  17.196 -0.4058 -0.0205 -0.1643
19227TIP3    H179096   6.028   1.994  17.186 -1.2053  0.6860 -1.0081
19227TIP3    H279097   6.166   2.045  17.148 -1.5233  0.5280 -2.4371
19228TIP3   OH279098   2.041   6.459   6.258  0.5834 -0.4326 -0.0976
19228TIP3    H179099   1.962   6.447   6.312  0.1333 -0.1997 -0.7009
19228TIP3    H279100   2.044   6.381   6.203  1.0529 -0.6766  0.2599
19229TIP3   OH279101   0.507   5.259   5.945 -0.7812 -0.4833  0.2998
19229TIP3    H179102   0.441   5.196   5.975 -0.5035  0.0098  2.0740
19229TIP3    H279103   0.475   5.344   5.976 -0.3974  0.0696 -0.7476
19230TIP3   OH279104   0.623   5.537  17.106  0.1729  0.3055  0.1331
19230TIP3    H179105   0.716   5.517  17.092  0.1981  0.4162  0.1358
19230TIP3    H279106   0.577   5.457  17.083  0.1584  0.6995 -1.2919
19231TIP3   OH279107   1.259   4.613  11.139 -0.2912  0.3390  0.0853
19231TIP3    H179108   1.233   4.575  11.055  1.1599  0.1256 -0.2893
19231TIP3    H279109   1.267   4.707  11.122 -0.5497  0.3695  0.1315
19232TIP3   OH279110   6.216   0.538   5.142 -0.1498  0.9006 -0.1895
19232TIP3    H179111   6.212   0.615   5.198  0.6945  2.1998 -1.8370
19232TIP3    H279112   6.153   0.555   5.072  1.0673  0.7832 -1.3511
19233TIP3   OH279113   4.671   0.345  12.174 -0.8307 -0.4646 -0.0431
19233TIP3    H179114   4.729   0.274  12.202 -0.4929  0.3817  1.5398
19233TIP3    H279115   4.584   0.317  12.201 -0.7162 -0.3425  0.4616
19234TIP3   OH279116   4.408   5.557  13.031 -0.0128  0.0568 -0.3688
19234TIP3    H179117   4.382   5.613  13.104  3.2546  0.4023  0.6762
19234TIP3    H279118   4.341   5.489  13.028 -0.7556  0.5504  2.3619
19235TIP3   OH279119   0.324   3.250   5.980 -0.0153  0.1714 -0.8019
19235TIP3    H179120   0.242   3.204   5.994 -0.8270  1.5876 -0.6669
19235TIP3    H279121   0.386   3.209   6.041 -1.1689  0.4348  0.6041
19236TIP3   OH279122   6.371   3.786  15.265  0.3265  0.2990  0.3591
19236TIP3    H179123   6.422   3.745  15.334  2.4189  0.9109 -0.7554
19236TIP3    H279124   6.326   3.713  15.222  4.7076 -1.3010 -2.2124
19237TIP3   OH279125   2.146   5.041  13.494 -0.2185 -0.1461  0.6289
19237TIP3    H179126   2.190   5.124  13.474  1.4232 -0.9731  0.6345
19237TIP3    H279127   2.176   4.982  13.425 -2.7765 -0.3264 -0.4522
19238TIP3   OH279128   1.079   0.512   5.339  0.0062 -0.0955 -0.1020
19238TIP3    H179129   1.163   0.485   5.301  0.3756 -1.3445  1.4832
19238TIP3    H279130   1.096   0.600   5.374  0.6325 -0.2954  0.1167
19239TIP3   OH279131   5.463   1.282   4.192  0.4670  0.1402 -0.1808
19239TIP3    H179132   5.374   1.244   4.191  0.0506  1.0357  0.9023
19239TIP3    H279133   5.498   1.259   4.278  2.3750 -2.5253 -1.5315
19240TIP3   OH279134   2.642   3.287   4.205 -0.0732  0.5595 -0.6096
19240TIP3    H179135   2.690   3.277   4.123  0.2596 -1.5534 -0.2232
19240TIP3    H279136   2.597   3.203   4.217  1.1190  0.2012  2.0899
19241TIP3   OH279137   3.788   2.423   3.259  0.1052 -0.3327 -0.3819
19241TIP3    H179138   3.757   2.507   3.295 -0.5808 -0.4999 -0.5715
19241TIP3    H279139   3.835   2.448   3.179 -0.3230 -0.1385 -0.5815
19242TIP3   OH279140   5.484   4.228  16.494 -0.2541  0.0814 -0.8087
19242TIP3    H179141   5.494   4.133  16.487 -1.8849 -0.0949 -1.3073
19242TIP3    H279142   5.477   4.258  16.403  0.6968  0.7478 -0.6719
19243TIP3   OH279143   5.023   3.155  13.683  0.0199 -0.5646 -0.4207
19243TIP3    H179144   5.088   3.115  13.740  0.0611 -0.4269 -0.3702
19243TIP3    H279145   5.069   3.229  13.642 -0.8925  1.4433  1.8907
19244TIP3   OH279146   0.070   5.208  13.891 -0.8223 -0.0799 -0.1709
19244TIP3    H179147   0.064   5.112  13.889  2.0767 -0.3725  0.4971
19244TIP3    H279148   0.018   5.236  13.816 -1.6603 -2.1675 -0.4595
19245TIP3   OH279149   4.582   2.522  15.089 -0.5340 -0.3839  0.1052
19245TIP3    H179150   4.610   2.556  15.004 -0.7838 -0.0609  0.1494
19245TIP3    H279151   4.622   2.581  15.153 -0.1414 -0.7747  0.2235
19246TIP3   OH279152   6.475   2.910   4.539  0.2463  0.1228 -0.1818
19246TIP3    H179153   6.553   2.944   4.582  1.1656 -1.3984 -0.5551
19246TIP3    H279154   6.509   2.867   4.460 -1.1515  0.8573 -1.2083
19247TIP3   OH279155   6.611   1.391   4.427 -0.5941 -0.0170  0.2270
19247TIP3    H179156   6.528   1.386   4.380 -0.5847 -1.1338  0.3030
19247TIP3    H279157   6.587   1.416   4.516 -1.1366 -2.5355  0.8790
19248TIP3   OH279158   3.949   0.074   0.862 -0.3573 -0.2616  0.0299
19248TIP3    H179159   3.891   0.067   0.938  1.1240 -0.1941  1.2029
19248TIP3    H279160   3.889   0.083   0.788 -2.0216 -4.0222  0.6673
19249TIP3   OH279161   6.559   6.453  11.649 -0.0652 -0.0246 -0.2156
19249TIP3    H179162   6.556   6.496  11.734 -0.3920 -0.4666 -0.0038
19249TIP3    H279163   6.499   6.504  11.594 -0.8274 -0.4925  0.1704
19250TIP3   OH279164   1.910   2.207   4.961 -0.6327 -0.1999  0.0828
19250TIP3    H179165   1.960   2.232   4.883 -0.0874 -0.1742  0.4402
19250TIP3    H279166   1.819   2.228   4.938 -0.7277 -1.7740 -1.2143
19251TIP3   OH279167   6.553   0.433  16.448 -0.2023 -0.1802 -0.0496
19251TIP3    H179168   6.592   0.521  16.447  3.2382 -1.5107  0.9676
19251TIP3    H279169   6.569   0.401  16.536 -0.2212 -2.2797 -0.7564
19252TIP3   OH279170   2.493   5.865  16.524 -0.2004  0.2335  0.0409
19252TIP3    H179171   2.471   5.954  16.494 -2.4149 -0.4812 -0.6232
19252TIP3    H279172   2.504   5.874  16.618 -1.6334  1.0060  0.1544
19253TIP3   OH279173   6.424   5.590  16.325 -0.4867  0.3794 -0.0634
19253TIP3    H179174   6.413   5.615  16.417 -0.7609  1.7560 -0.4512
19253TIP3    H279175   6.351   5.632  16.280 -0.9558 -1.1410 -0.7792
19254TIP3   OH279176   5.670   3.239   0.596 -0.1816  0.4796  0.3845
19254TIP3    H179177   5.595   3.288   0.561  1.3883  1.2997 -2.0494
19254TIP3    H279178   5.744   3.298   0.587  1.3770 -1.4752 -0.4654
19255TIP3   OH279179   5.738   2.705   5.732 -0.2482  0.3145 -0.0081
19255TIP3    H179180   5.724   2.674   5.821  1.4495 -3.3659 -0.8124
19255TIP3    H279181   5.681   2.649   5.678  3.1543 -1.9683 -1.6100
19256TIP3   OH279182   2.485   1.354   4.849  0.1840 -0.0796 -0.6282
19256TIP3    H179183   2.481   1.428   4.788  0.1407 -0.9098 -1.6719
19256TIP3    H279184   2.463   1.278   4.795  0.3395 -0.8705  0.3949
19257TIP3   OH279185   3.112   0.152   6.130 -0.1320 -0.4444 -0.2531
19257TIP3    H179186   3.191   0.112   6.165  0.1589  0.4627  0.1603
19257TIP3    H279187   3.078   0.088   6.068  0.2491 -1.3718  0.4740
19258TIP3   OH279188   1.358   3.403  11.118 -0.2782  0.0333  0.7812
19258TIP3    H179189   1.345   3.339  11.189 -1.0547 -1.1845 -0.4212
19258TIP3    H279190   1.373   3.350  11.040  3.6107  1.2974  0.4237
19259TIP3   OH279191   5.805   5.990   3.468 -0.6611  0.3680 -0.0922
19259TIP3    H179192   5.785   5.992   3.374 -0.5940  0.1055 -0.1133
19259TIP3    H279193   5.725   6.023   3.510 -1.2566 -0.8892 -0.1666
19260TIP3   OH279194   3.935   0.447  13.834  0.1801  0.3104  0.3893
19260TIP3    H179195   3.880   0.373  13.811  0.3287 -0.0104  1.0247
19260TIP3    H279196   3.943   0.498  13.754  0.3213 -0.5188 -0.1276
19261TIP3   OH279197   1.910   3.641  11.123  0.8377  0.6406  0.2782
19261TIP3    H179198   1.838   3.592  11.164  0.4982 -1.1394 -2.1841
19261TIP3    H279199   1.965   3.573  11.084  1.3681  2.1294 -1.7093
19262TIP3   OH279200   4.275   2.268   3.793 -0.4260  0.2902 -0.2248
19262TIP3    H179201   4.290   2.248   3.700  0.5727 -0.5882  0.1053
19262TIP3    H279202   4.361   2.259   3.834 -1.0155 -0.2881  0.9532
19263TIP3   OH279203   1.734   4.603   1.916 -0.1969  0.1040  0.7224
19263TIP3    H179204   1.733   4.699   1.918 -0.5707  0.1142  0.1020
19263TIP3    H279205   1.825   4.580   1.895 -0.2374  0.3365  0.2883
19264TIP3   OH279206   3.437   4.496   0.438  0.2950  0.4015  0.6556
19264TIP3    H179207   3.500   4.424   0.445  2.3402  1.9166 -1.1321
19264TIP3    H279208   3.392   4.480   0.355 -1.2391 -0.2624  1.5728
19265TIP3   OH279209   5.946   2.120  13.098 -0.5973  0.0341 -0.2357
19265TIP3    H179210   5.987   2.155  13.177  0.5878  0.6890 -1.1195
19265TIP3    H279211   6.018   2.102  13.039 -1.3619 -1.7817 -0.6750
19266TIP3   OH279212   1.341   4.168   0.354 -0.2819  0.1463  0.0768
19266TIP3    H179213   1.322   4.177   0.447  0.4231 -1.6108  0.4331
19266TIP3    H279214   1.368   4.077   0.344  1.1783  0.7158 -1.5810
19267TIP3   OH279215   4.820   6.654  10.640  0.4431  0.2373  0.0846
19267TIP3    H179216   4.819   6.746  10.667  1.6107  0.7006 -1.3096
19267TIP3    H279217   4.733   6.622  10.663 -0.9245  2.3977 -1.6133
19268TIP3   OH279218   1.343   2.341   4.192  0.2947  0.0937  0.1102
19268TIP3    H179219   1.286   2.386   4.254 -0.2300 -1.3962  0.7571
19268TIP3    H279220   1.311   2.250   4.192  0.2267  0.0549 -2.3911
19269TIP3   OH279221   4.430   0.870  12.799 -0.0254  0.1580  0.0084
19269TIP3    H179222   4.485   0.860  12.722  2.3423  2.3458  1.2791
19269TIP3    H279223   4.356   0.812  12.783  0.3488  0.5123 -3.8590
19270TIP3   OH279224   5.677   6.550  13.104 -0.4912  0.5123 -0.5840
19270TIP3    H179225   5.761   6.520  13.138 -1.3522 -1.3964 -0.0068
19270TIP3    H279226   5.663   6.635  13.147  1.2987  1.0531 -1.0144
19271TIP3   OH279227   2.652   6.237   1.995 -0.4025 -0.0439 -0.3929
19271TIP3    H179228   2.727   6.231   1.936 -0.0715  0.7631 -0.0743
19271TIP3    H279229   2.687   6.215   2.081 -0.4682  0.5782 -0.2015
19272TIP3   OH279230   0.431   2.729   5.684 -0.0812 -0.2311  0.2060
19272TIP3    H179231   0.408   2.793   5.751  1.1353  0.7788 -0.2987
19272TIP3    H279232   0.381   2.651   5.706 -3.7192  1.6702 -0.6610
19273TIP3   OH279233   3.503   3.992   5.092  0.2134  0.0680  0.1766
19273TIP3    H179234   3.548   4.026   5.015  0.1199  0.2313  0.1951
19273TIP3    H279235   3.570   3.942   5.139  0.1275 -0.5155 -0.3072
19274TIP3   OH279236   4.982   5.803   0.561 -0.3197 -0.1941  0.2927
19274TIP3    H179237   4.964   5.734   0.625 -1.0240  0.8120  1.2078
19274TIP3    H279238   5.058   5.848   0.597 -1.0127  0.6769  0.6934
19275TIP3   OH279239   5.362   3.230   2.366 -0.2375 -0.4124  0.0367
19275TIP3    H179240   5.422   3.171   2.321 -1.1033 -2.0918  1.0264
19275TIP3    H279241   5.276   3.207   2.333 -0.4220  2.3006 -1.7437
19276TIP3   OH279242   3.284   5.564  16.949  0.4341  0.2383  1.1622
19276TIP3    H179243   3.337   5.643  16.947 -0.1387  0.6290  1.2194
19276TIP3    H279244   3.284   5.533  16.858  2.4412 -0.9193  1.5044
19277TIP3   OH279245   4.515   1.171  15.278 -0.1237 -1.1330 -0.7679
19277TIP3    H179246   4.588   1.114  15.253  1.4637  1.3870 -2.4093
19277TIP3    H279247   4.441   1.140  15.227  1.0972 -0.8879 -2.8243
19278TIP3   OH279248   1.862   3.167   1.297  0.0644  0.1642 -0.2094
19278TIP3    H179249   1.824   3.231   1.357 -0.0517  0.8921 -1.0364
19278TIP3    H279250   1.815   3.181   1.214  0.5613 -0.4793 -0.6103
19279TIP3   OH279251   6.311   3.523   4.316 -0.7528 -0.1048 -0.6160
19279TIP3    H179252   6.311   3.427   4.317 -1.1879 -0.1064  0.8525
19279TIP3    H279253   6.369   3.547   4.388 -2.2251  0.7127  0.3498
19280TIP3   OH279254   4.431   1.478   5.809  0.6943 -0.1449  0.0400
19280TIP3    H179255   4.390   1.395   5.834 -0.4698  0.9640  2.1137
19280TIP3    H279256   4.364   1.544   5.827  2.1445  1.4061  0.0085
19281TIP3   OH279257   5.301   5.689  15.865  0.1870 -0.2113  0.2090
19281TIP3    H179258   5.352   5.769  15.855 -1.3423  0.7462 -0.3152
19281TIP3    H279259   5.283   5.684  15.959  0.9643 -0.4062  0.3585
19282TIP3   OH279260   0.772   6.215   4.907 -0.3838 -0.5886  0.4404
19282TIP3    H179261   0.685   6.254   4.919  0.5102  1.9472 -0.5968
19282TIP3    H279262   0.780   6.203   4.812  1.5960  2.5562  0.0581
19283TIP3   OH279263   3.073   5.739  16.553  0.1929  0.0180  0.6778
19283TIP3    H179264   3.068   5.828  16.519  1.4745 -0.3627 -0.6670
19283TIP3    H279265   2.983   5.706  16.549 -0.0817  0.8250 -0.0691
19284TIP3   OH279266   4.025   2.362   5.494  0.2153  0.0832  0.2656
19284TIP3    H179267   3.981   2.410   5.423 -0.5054  1.7227  1.7397
19284TIP3    H279268   4.057   2.431   5.552  2.8428 -1.1525  0.3866
19285TIP3   OH279269   2.572   3.163  13.108 -0.0862  0.2704  0.1000
19285TIP3    H179270   2.492   3.189  13.063  0.0400  0.0595 -0.2512
19285TIP3    H279271   2.553   3.075  13.142  0.1438  0.0407 -0.3581
19286TIP3   OH279272   6.273   0.551  13.869 -0.0881  0.3449 -0.1206
19286TIP3    H179273   6.368   0.558  13.882 -0.0490 -1.0576  0.4927
19286TIP3    H279274   6.235   0.578  13.953 -0.0821 -2.0425  0.7275
19287TIP3   OH279275   3.907   5.203  16.383  0.3790  0.7723 -0.2323
19287TIP3    H179276   3.945   5.212  16.296  0.6481 -0.9716 -0.3266
19287TIP3    H279277   3.833   5.143  16.372  1.8723 -1.4613  1.0768
19288TIP3   OH279278   1.111   0.459   0.539  0.4973 -0.1833  0.1715
19288TIP3    H179279   1.030   0.505   0.518  0.0977 -1.5486 -1.4366
19288TIP3    H279280   1.172   0.529   0.565 -0.7191  1.0034 -0.0536
19289TIP3   OH279281   5.648   4.612   1.994 -0.4458 -0.0056  0.7337
19289TIP3    H179282   5.669   4.582   2.082  0.4336  2.2122  1.3434
19289TIP3    H279283   5.572   4.670   2.005 -0.7537 -0.2434 -0.0595
19290TIP3   OH279284   2.350   2.083  11.983 -0.1803  0.3010  0.4723
19290TIP3    H179285   2.316   1.995  12.002  0.4587  0.0054  0.2955
19290TIP3    H279286   2.309   2.107  11.900 -0.6006  0.2994  0.6795
19291TIP3   OH279287   0.853   4.474   0.481  0.3339  0.0802 -0.2927
19291TIP3    H179288   0.935   4.455   0.526  1.1595  1.6775 -1.0554
19291TIP3    H279289   0.795   4.403   0.508  2.1445 -1.4855 -0.2676
19292TIP3   OH279290   3.368   5.396   1.173  0.0806  0.2200  0.4564
19292TIP3    H179291   3.381   5.302   1.158 -0.1075 -0.2349  2.7789
19292TIP3    H279292   3.403   5.437   1.095  0.8852 -1.7444 -0.2924
19293TIP3   OH279293   2.511   4.826  11.559 -1.0016 -0.4549 -0.1291
19293TIP3    H179294   2.537   4.738  11.533 -0.2942 -0.9336  2.0303
19293TIP3    H279295   2.434   4.845  11.504 -1.5266 -2.6395 -0.2475
19294TIP3   OH279296   0.890   5.174  14.036  0.4065 -0.3083  0.1039
19294TIP3    H179297   0.869   5.267  14.034  0.9488 -0.1879 -1.2787
19294TIP3    H279298   0.806   5.130  14.021  0.4874  0.0570 -1.6789
19295TIP3   OH279299   5.154   4.360  16.320 -0.2888 -0.1747  0.4478
19295TIP3    H179300   5.130   4.438  16.370  1.6337  0.0087  1.1862
19295TIP3    H279301   5.119   4.287  16.372  0.5539  0.0784  1.4060
19296TIP3   OH279302   3.368   3.584   4.694  0.3817  0.2876 -0.3369
19296TIP3    H179303   3.320   3.665   4.712  0.1615  0.6069 -2.1472
19296TIP3    H279304   3.307   3.514   4.719 -0.2494  0.6870 -0.7311
19297TIP3   OH279305   3.691   2.471   0.083 -0.3403 -0.0053  0.1567
19297TIP3    H179306   3.707   2.382   0.115 -0.6189 -0.9158 -2.0664
19297TIP3    H279307   3.764   2.522   0.118  0.2718 -1.2772  0.8231
19298TIP3   OH279308   1.217   1.279  12.644 -0.6324 -0.3920  0.0234
19298TIP3    H179309   1.150   1.218  12.674 -1.9029 -0.0714 -1.9644
19298TIP3    H279310   1.193   1.298  12.553  1.0988  1.2088 -0.1579
19299TIP3   OH279311   5.618   6.438  15.473 -0.2245  0.1453 -0.5281
19299TIP3    H179312   5.676   6.419  15.547 -3.4090 -1.9563  1.7096
19299TIP3    H279313   5.631   6.364  15.414  0.4125  0.4629 -0.7974
19300TIP3   OH279314   4.739   3.156  16.674 -0.1809 -0.4355 -0.0401
19300TIP3    H179315   4.769   3.097  16.743 -2.6356  0.4010  1.8783
19300TIP3    H279316   4.670   3.107  16.629 -1.5660  0.5161  0.9506
19301TIP3   OH279317   5.700   0.754  11.308 -0.2650  0.3038  0.0193
19301TIP3    H179318   5.613   0.791  11.320 -1.6581 -3.0573  1.5232
19301TIP3    H279319   5.715   0.757  11.214 -2.3885  0.2245 -0.3544
19302TIP3   OH279320   1.937   5.970   0.487 -0.6630 -0.3197  0.1680
19302TIP3    H179321   2.021   5.977   0.441 -0.9335 -1.9746 -0.6945
19302TIP3    H279322   1.910   5.879   0.472 -2.6503  0.1962  0.3452
19303TIP3   OH279323   3.268   1.715   1.960 -0.0760  0.6397  0.5514
19303TIP3    H179324   3.260   1.776   1.886 -0.3344 -0.7232 -0.5978
19303TIP3    H279325   3.190   1.730   2.013 -0.3473  1.0097  0.0543
19304TIP3   OH279326   1.702   3.185  16.722  0.0927  0.5729  0.4473
19304TIP3    H179327   1.739   3.205  16.635 -0.2535 -1.4525 -0.2102
19304TIP3    H279328   1.750   3.108  16.751 -2.9271 -1.6581 -0.0696
19305TIP3   OH279329   5.950   1.728   5.210 -0.2326  0.3297  0.4822
19305TIP3    H179330   5.916   1.692   5.292 -0.2326  0.9454  0.7572
19305TIP3    H279331   6.045   1.722   5.219 -0.2405 -0.7580 -0.0018
19306TIP3   OH279332   1.514   6.634  12.240 -0.0878  0.6478 -0.3912
19306TIP3    H179333   1.595   6.670  12.276  0.7587 -0.0066 -1.5458
19306TIP3    H279334   1.485   6.700  12.177 -0.7579  1.1181  0.3914
19307TIP3   OH279335   4.289   5.934   2.462 -0.5147 -0.4141  0.6639
19307TIP3    H179336   4.284   5.841   2.485  0.0768 -1.1643 -1.8643
19307TIP3    H279337   4.202   5.955   2.426  0.7345 -1.6193 -3.7211
19308TIP3   OH279338   3.432   5.025  16.112 -0.4852 -0.4646  0.1080
19308TIP3    H179339   3.512   4.976  16.096 -0.0505  0.0988  0.5088
19308TIP3    H279340   3.461   5.106  16.154 -1.3043 -0.4773  0.7442
19309TIP3   OH279341   6.427   6.292  12.957  0.1869  0.2279  0.2266
19309TIP3    H179342   6.397   6.269  13.045  0.4262 -1.2964 -0.0681
19309TIP3    H279343   6.361   6.257  12.898 -0.1656  1.5701 -0.2173
19310TIP3   OH279344   4.908   1.809  16.209 -0.2744  0.0172  0.9094
19310TIP3    H179345   4.843   1.739  16.216 -0.9719  0.4658 -0.7131
19310TIP3    H279346   4.987   1.766  16.177  0.1284 -0.4505  2.4490
19311TIP3   OH279347   3.203   0.733   5.665  0.4919  0.0843  0.5709
19311TIP3    H179348   3.285   0.745   5.616 -0.7077  2.4849 -1.0107
19311TIP3    H279349   3.161   0.658   5.622  1.5854 -0.8555  1.0759
19312TIP3   OH279350   0.038   2.510   4.402 -0.0486  0.9909 -0.1106
19312TIP3    H179351  -0.026   2.491   4.471  1.3051  0.3605  1.0274
19312TIP3    H279352  -0.010   2.495   4.321 -1.0310 -0.6921  0.7067
19313TIP3   OH279353   5.750   1.780   5.894  0.4222 -0.3325 -0.2038
19313TIP3    H179354   5.801   1.848   5.938 -2.3761  1.3164  0.7398
19313TIP3    H279355   5.709   1.731   5.964  1.0260 -1.9460 -0.9286
19314TIP3   OH279356   2.060   5.788  11.485  0.0534  0.1649  0.1467
19314TIP3    H179357   2.026   5.825  11.404 -0.8318 -0.2251  0.3167
19314TIP3    H279358   2.017   5.702  11.491  0.9183 -0.2489  0.4982
19315TIP3   OH279359   5.893   1.568  13.356  0.4396 -0.2465  0.2942
19315TIP3    H179360   5.941   1.512  13.294 -1.9006 -1.0474 -0.9505
19315TIP3    H279361   5.866   1.644  13.304  0.6186  0.3404  1.0389
19316TIP3   OH279362   4.665   5.164  11.156  0.1541 -0.1491  0.4854
19316TIP3    H179363   4.648   5.215  11.235  2.7280  0.2686  0.8661
19316TIP3    H279364   4.761   5.159  11.151  0.1119  0.0920 -2.7584
19317TIP3   OH279365   4.836   6.054  14.841  0.1516  0.2035 -0.2489
19317TIP3    H179366   4.798   6.022  14.759 -2.1792  0.0859  0.8182
19317TIP3    H279367   4.803   6.143  14.849  2.0619  0.9755 -0.4017
19318TIP3   OH279368   0.429   6.464  16.495  0.1478 -0.2646  0.6089
19318TIP3    H179369   0.471   6.379  16.481 -0.5903 -0.3483 -1.3951
19318TIP3    H279370   0.501   6.527  16.495  0.4680 -0.6206 -0.5669
19319TIP3   OH279371   5.675   3.013   0.713  0.5010 -0.6832 -0.8045
19319TIP3    H179372   5.626   3.012   0.795  1.4593 -0.3048 -0.2067
19319TIP3    H279373   5.667   3.102   0.681 -0.4756 -1.0110 -1.5138
19320TIP3   OH279374   5.177   5.990   4.745  0.0139 -0.3852  0.4221
19320TIP3    H179375   5.161   5.968   4.653  1.8124 -0.9789  0.2121
19320TIP3    H279376   5.193   6.084   4.745  0.7998 -0.5161  0.0046
19321TIP3   OH279377   5.802   5.243  15.759  0.1453 -0.3600 -0.6731
19321TIP3    H179378   5.782   5.254  15.666  2.2190 -0.7742 -1.2158
19321TIP3    H279379   5.862   5.315  15.779 -0.9747  0.2586  0.6013
19322TIP3   OH279380   2.813   4.047   1.703 -0.2828 -0.0688  0.4350
19322TIP3    H179381   2.810   3.965   1.752 -0.9400  0.3801  1.1577
19322TIP3    H279382   2.896   4.087   1.727 -0.4626  0.0017  0.9354
19323TIP3   OH279383   6.227   4.985  13.356  0.0907 -0.2011  0.1648
19323TIP3    H179384   6.210   4.963  13.447  2.7016 -1.9088  0.3456
19323TIP3    H279385   6.160   5.049  13.334 -1.0642 -0.2725  3.0484
19324TIP3   OH279386   5.126   1.201   3.866  0.2892 -0.0757  0.2739
19324TIP3    H179387   5.044   1.239   3.899 -1.1542 -1.7567 -1.2103
19324TIP3    H279388   5.133   1.233   3.776  1.0974 -0.2301  0.2743
19325TIP3   OH279389   3.910   6.616   6.157 -0.0764 -0.1952 -0.5405
19325TIP3    H179390   3.959   6.539   6.186  0.2274  0.1782 -0.0420
19325TIP3    H279391   3.818   6.592   6.170  0.0562  0.3671  1.9073
19326TIP3   OH279392   1.094   3.929   3.190  0.0074  0.3281  0.0375
19326TIP3    H179393   1.008   3.953   3.222 -1.1432 -4.3136  1.1618
19326TIP3    H279394   1.147   3.917   3.269  0.9027  0.6296 -0.5034
19327TIP3   OH279395   4.103   2.679   6.090  0.1155  0.0838  0.1469
19327TIP3    H179396   4.046   2.697   6.165  0.7610 -0.5479  0.7997
19327TIP3    H279397   4.073   2.739   6.022 -1.0979  0.0108  0.5985
19328TIP3   OH279398   3.570   2.487   6.656 -0.6244 -0.3822  0.0203
19328TIP3    H179399   3.628   2.488   6.732 -0.0843  1.0773 -0.3887
19328TIP3    H279400   3.624   2.452   6.585 -0.1465  1.1322 -0.4004
19329TIP3   OH279401   4.566   3.186  12.935 -0.1912 -0.4227 -0.1916
19329TIP3    H179402   4.536   3.274  12.960  0.0273 -0.2381 -0.5710
19329TIP3    H279403   4.650   3.201  12.892  0.2379 -0.9000  0.4625
19330TIP3   OH279404   6.643   4.426   5.393 -0.0983 -0.3378 -0.0842
19330TIP3    H179405   6.633   4.383   5.308 -0.0263 -1.2283  0.3359
19330TIP3    H279406   6.731   4.401   5.421  0.8506  1.9319 -0.7961
19331TIP3   OH279407   3.425   1.459  17.159 -0.2030 -0.0948  0.1669
19331TIP3    H179408   3.418   1.366  17.137  0.8057  0.0697 -0.9371
19331TIP3    H279409   3.427   1.504  17.075  0.4878  0.8357  0.6592
19332TIP3   OH279410   4.930   3.964   6.105  0.0022 -0.0960 -0.4893
19332TIP3    H179411   4.961   4.017   6.178 -1.1509  1.0679 -0.8143
19332TIP3    H279412   4.982   3.883   6.110  0.9919  0.5867  0.6920
19333TIP3   OH279413   3.029   3.440  16.740  0.0232  0.2621  0.1387
19333TIP3    H179414   2.981   3.361  16.716 -0.4503  1.2863 -2.7094
19333TIP3    H279415   3.121   3.413  16.741 -0.2250 -0.5952  0.5729
19334TIP3   OH279416   2.701   4.052   4.549 -0.3242 -0.1224  0.2482
19334TIP3    H179417   2.793   4.028   4.561 -0.2900 -0.7790 -1.1311
19334TIP3    H279418   2.697   4.144   4.574  0.9824  0.2644 -0.8389
19335TIP3   OH279419   2.760   1.329   6.134  0.1549 -0.4581  0.1222
19335TIP3    H179420   2.666   1.325   6.149  0.0729 -1.2142 -0.4991
19335TIP3    H279421   2.787   1.238   6.123  0.8748 -0.2241 -0.1775
19336TIP3   OH279422   0.867   5.026  11.354  0.6719  0.5050  0.5335
19336TIP3    H179423   0.912   5.108  11.371 -1.5605  1.5471  1.9248
19336TIP3    H279424   0.838   5.033  11.262 -1.2222  2.2601  1.1859
19337TIP3   OH279425   1.198   2.297  16.468 -0.6014 -0.5136  0.1399
19337TIP3    H179426   1.144   2.264  16.396 -0.2940  0.3380 -0.4974
19337TIP3    H279427   1.136   2.317  16.538 -0.8620 -1.7394  0.2782
19338TIP3   OH279428   0.130   3.163   5.553  0.1495 -0.0365 -0.2728
19338TIP3    H179429   0.077   3.112   5.615  0.2930  0.3913  0.2061
19338TIP3    H279430   0.091   3.250   5.554 -0.9140 -0.4378 -2.0696
19339TIP3   OH279431   3.361   2.592   3.039 -0.2183  0.0205  0.2511
19339TIP3    H179432   3.456   2.589   3.047 -0.1749  0.0178 -0.2290
19339TIP3    H279433   3.338   2.511   2.994 -0.1677  1.2300 -2.0993
19340TIP3   OH279434   4.984   3.093   1.269  0.0471 -0.1436  0.0602
19340TIP3    H179435   5.064   3.121   1.313  0.4956  0.4999 -1.1190
19340TIP3    H279436   4.916   3.100   1.336  1.1654 -1.9845  1.4955
19341TIP3   OH279437   2.016   4.075   2.402  0.1842  0.3170 -0.2346
19341TIP3    H179438   2.104   4.036   2.406 -0.0964 -0.4174 -0.9549
19341TIP3    H279439   1.986   4.058   2.313  0.1791  2.5384 -0.7237
19342TIP3   OH279440   0.728   3.905  12.222 -0.4917 -0.0456  0.0415
19342TIP3    H179441   0.728   3.815  12.256  2.3734 -0.5177 -0.9637
19342TIP3    H279442   0.797   3.906  12.156  0.8875  3.3717  1.3128
19343TIP3   OH279443   3.824   2.447   5.774  0.3991 -0.1487  0.3168
19343TIP3    H179444   3.776   2.488   5.702 -1.1277  0.1478  1.4480
19343TIP3    H279445   3.842   2.518   5.836 -0.7812 -0.8260  1.5024
19344TIP3   OH279446   1.777   1.194  13.909  0.1165 -0.1351  0.0593
19344TIP3    H179447   1.697   1.225  13.865  0.0927  0.1958  0.3221
19344TIP3    H279448   1.749   1.181  14.000  0.4242  0.2554  0.2156
19345TIP3   OH279449   3.598   1.261  12.173  0.7012 -0.1044 -0.0568
19345TIP3    H179450   3.662   1.241  12.105  0.2118  1.3426 -0.9946
19345TIP3    H279451   3.591   1.357  12.171  1.8579  0.1594  3.1183
19346TIP3   OH279452   5.502   6.260  17.014 -0.8653  0.3231  0.2594
19346TIP3    H179453   5.422   6.298  16.977 -0.8260  0.7075  0.5649
19346TIP3    H279454   5.545   6.217  16.940 -1.9000 -0.8450  0.2970
19347TIP3   OH279455   1.899   2.596  15.836  0.3326 -0.4695  0.0792
19347TIP3    H179456   1.822   2.579  15.781  0.4280 -0.7616  0.0325
19347TIP3    H279457   1.963   2.531  15.808 -0.0463 -1.4504  1.3737
19348TIP3   OH279458   6.193   1.722   0.002  0.2797 -0.3298 -0.2114
19348TIP3    H179459   6.258   1.691  -0.060  0.1040 -0.2227 -0.4499
19348TIP3    H279460   6.235   1.798   0.044  0.1475 -0.0133 -0.6560
19349TIP3   OH279461   1.927   5.050  12.742  0.2027 -0.8267  0.7415
19349TIP3    H179462   1.866   5.019  12.675  0.3107 -1.4096  0.9052
19349TIP3    H279463   1.997   5.091  12.693 -0.0420 -0.6596  0.5261
19350TIP3   OH279464   1.358   5.842  15.853  0.7116  0.2662  0.3415
19350TIP3    H179465   1.414   5.827  15.929  1.6704  1.3850 -0.1101
19350TIP3    H279466   1.412   5.816  15.778  0.2893  0.4795 -0.0415
19351TIP3   OH279467   4.798   5.992  15.797 -0.1215 -0.1865 -0.4252
19351TIP3    H179468   4.892   6.002  15.810 -0.2888 -0.3311  1.0578
19351TIP3    H279469   4.789   5.964  15.706  1.2110  0.5159 -0.7983
19352TIP3   OH279470   1.893   6.050  14.800 -0.2818 -0.3578 -0.3065
19352TIP3    H179471   1.881   6.035  14.706  1.7045 -0.0356 -0.6559
19352TIP3    H279472   1.969   5.998  14.823  0.0619  0.6048  0.8294
19353TIP3   OH279473   4.385   1.847   5.399  0.4559  0.0368  0.2604
19353TIP3    H179474   4.417   1.935   5.379 -1.9727  1.3867  1.7917
19353TIP3    H279475   4.419   1.828   5.486 -1.1539  0.6819  1.0835
19354TIP3   OH279476   2.607   1.072   4.193  0.2558  0.4189 -0.6581
19354TIP3    H179477   2.661   0.998   4.164 -1.5465 -0.4429 -1.9779
19354TIP3    H279478   2.670   1.143   4.207  1.6893 -0.3242 -2.8225
19355TIP3   OH279479   2.002   6.773  16.244  0.1594  0.1486  0.1328
19355TIP3    H179480   2.097   6.787  16.242  0.2032 -0.0589  0.4924
19355TIP3    H279481   1.966   6.846  16.196  0.5895 -0.6886 -1.5416
19356TIP3   OH279482   1.147   2.781   5.724 -0.0938 -0.1660 -0.5153
19356TIP3    H179483   1.166   2.709   5.664 -1.6387 -1.3543  0.3589
19356TIP3    H279484   1.179   2.751   5.809 -0.7083  0.2104 -0.1446
19357TIP3   OH279485   1.878   2.048   5.233 -0.1530 -0.0766  0.7052
19357TIP3    H179486   1.873   2.127   5.286 -0.5780  0.0649  0.4542
19357TIP3    H279487   1.815   2.062   5.163 -0.8103 -0.9614  1.0938
19358TIP3   OH279488   1.703   4.081   1.011 -0.1136  0.4490 -0.2253
19358TIP3    H179489   1.663   4.167   1.001 -1.1616  0.1210  0.8554
19358TIP3    H279490   1.783   4.085   0.959 -0.1967  2.0349 -0.2674
19359TIP3   OH279491   2.974   1.287  16.616  0.3038 -0.0571  0.0837
19359TIP3    H179492   2.953   1.379  16.598  2.1383  0.2931 -0.5419
19359TIP3    H279493   3.010   1.254  16.533 -0.8172 -1.5128  0.1422
19360TIP3   OH279494   1.042   0.200  13.656  0.1017 -0.1667  0.3285
19360TIP3    H179495   1.082   0.251  13.727  1.3151 -0.4014 -0.1658
19360TIP3    H279496   1.080   0.236  13.576 -2.1853  0.9295 -0.3348
19361TIP3   OH279497   0.966   3.150   2.088 -0.1229 -0.2566  0.2194
19361TIP3    H179498   1.035   3.095   2.126 -0.2464 -0.1344  0.6297
19361TIP3    H279499   1.012   3.203   2.022 -0.0042 -0.8410 -0.1758
19362TIP3   OH279500   5.808   6.258   5.183 -0.1231  0.0892  0.1534
19362TIP3    H179501   5.772   6.215   5.260 -3.2977 -0.7152 -1.6017
19362TIP3    H279502   5.837   6.344   5.215 -0.2401 -0.6426  2.3997
19363TIP3   OH279503   3.362   3.356  12.892 -0.1099  0.1264 -0.1254
19363TIP3    H179504   3.356   3.416  12.818 -0.3931  0.7126  0.3633
19363TIP3    H279505   3.275   3.361  12.933  0.4563  0.8508  1.0363
19364TIP3   OH279506   0.990   2.224  12.053 -0.1213 -0.0875 -0.2973
19364TIP3    H179507   0.920   2.211  11.989 -0.9183 -0.3358  0.5987
19364TIP3    H279508   1.030   2.308  12.028  0.2084 -0.6320 -1.6708
19365TIP3   OH279509   5.475   6.373   4.242 -0.0521  0.3315  0.0718
19365TIP3    H179510   5.455   6.302   4.182  0.0003  1.2117 -1.0316
19365TIP3    H279511   5.421   6.446   4.211  0.5546  1.0284  0.6259
19366TIP3   OH279512   5.677   2.384  13.193 -0.0473  0.1797  0.1599
19366TIP3    H179513   5.742   2.429  13.246  1.1133 -1.7194  0.4595
19366TIP3    H279514   5.705   2.399  13.102 -0.2477  0.8635  0.2099
19367TIP3   OH279515   4.415   4.582  16.302  0.3541  0.1588  0.4488
19367TIP3    H179516   4.508   4.604  16.314  0.6414 -1.3455  1.2824
19367TIP3    H279517   4.413   4.528  16.223  0.0377  0.9467 -0.0947
19368TIP3   OH279518   6.081   4.504   5.691  0.0464 -0.3308  0.1898
19368TIP3    H179519   6.009   4.550   5.736 -0.4453 -0.6607 -0.2443
19368TIP3    H279520   6.063   4.411   5.705  1.3600 -0.4090  1.5611
19369TIP3   OH279521   1.720   1.146  14.189 -0.1480  0.2696 -0.2587
19369TIP3    H179522   1.639   1.142  14.240 -0.5433 -1.0951 -0.9485
19369TIP3    H279523   1.744   1.054  14.175  0.2152  0.6056 -2.0936
19370TIP3   OH279524   5.974   4.383   5.226 -0.3954  0.6726 -0.2160
19370TIP3    H179525   5.923   4.332   5.289 -1.0074  0.8788 -0.5364
19370TIP3    H279526   5.976   4.471   5.263  0.5158  0.4725  0.2508
19371TIP3   OH279527   3.857   0.166  12.505  1.0232 -0.1383  0.1690
19371TIP3    H179528   3.849   0.238  12.568 -1.5291 -0.8884  0.8149
19371TIP3    H279529   3.899   0.096  12.553 -0.9375 -0.7155  1.1657
19372TIP3   OH279530   6.720   5.396  12.619 -0.4999  0.2790 -0.0490
19372TIP3    H179531   6.633   5.358  12.631 -0.7240  1.0560  0.9078
19372TIP3    H279532   6.717   5.437  12.532 -0.2467 -1.8399 -1.1037
19373TIP3   OH279533   4.252   1.912  14.032 -0.1374  0.2868 -0.8591
19373TIP3    H179534   4.316   1.980  14.008  0.8783 -1.2938 -2.9954
19373TIP3    H279535   4.167   1.954  14.019  0.4501  1.8185  0.0400
19374TIP3   OH279536   2.577   4.017  14.610 -0.1675  0.0275  0.0345
19374TIP3    H179537   2.671   4.037  14.611 -0.2022  0.4926 -1.7896
19374TIP3    H279538   2.541   4.064  14.685  0.5618  2.7314 -1.1658
19375TIP3   OH279539   0.178   5.612  12.008  0.1324  0.6205  0.0987
19375TIP3    H179540   0.100   5.666  11.995  0.0254  0.1896 -1.1600
19375TIP3    H279541   0.194   5.617  12.102 -0.0973  2.5056  0.0759
19376TIP3   OH279542   2.882   0.728  12.755  0.3199  0.0669 -0.0168
19376TIP3    H179543   2.943   0.771  12.696 -0.2799  0.3718 -0.4178
19376TIP3    H279544   2.855   0.797  12.816  0.3079 -0.0449  0.1047
19377TIP3   OH279545   3.235   4.822  17.181  0.1099  0.0932 -0.0164
19377TIP3    H179546   3.259   4.821  17.273  1.1564  2.0419 -0.2048
19377TIP3    H279547   3.312   4.859  17.137 -0.4247 -0.6462 -1.6581
19378TIP3   OH279548   0.311   1.213  14.897 -0.0380  0.4176 -0.5386
19378TIP3    H179549   0.247   1.178  14.835 -1.3651  1.9484 -0.1212
19378TIP3    H279550   0.325   1.303  14.868  0.6920  0.6015  0.3339
19379TIP3   OH279551   3.468   0.833   4.582  0.6964 -0.4785 -0.0937
19379TIP3    H179552   3.506   0.757   4.539  1.6024  0.2337 -0.5944
19379TIP3    H279553   3.459   0.898   4.512  0.5863  0.1128  0.4547
19380TIP3   OH279554   5.294   1.977  15.202 -0.2091  0.2447 -0.8004
19380TIP3    H179555   5.283   2.041  15.132  2.3764  1.8532  0.1193
19380TIP3    H279556   5.314   2.029  15.280  0.0859 -1.6009  0.4321
19381TIP3   OH279557   0.736   1.739  12.448 -0.6120  0.2291  0.2999
19381TIP3    H179558   0.659   1.780  12.487 -0.7423  1.0511 -0.7855
19381TIP3    H279559   0.747   1.657  12.496 -0.6959  1.2415  2.1449
19382TIP3   OH279560   1.473   2.287  13.418 -0.2541  0.0213  0.0502
19382TIP3    H179561   1.539   2.219  13.428 -1.6160 -1.2307  0.9707
19382TIP3    H279562   1.522   2.369  13.421  1.3152 -0.8782  0.0021
19383TIP3   OH279563   6.783   1.852  11.524 -0.0247 -0.0283  0.0193
19383TIP3    H179564   6.749   1.763  11.537  1.2846 -0.4555  0.6797
19383TIP3    H279565   6.821   1.851  11.436 -0.3573  0.0032 -0.1262
19384TIP3   OH279566   4.648   3.925   5.260  0.2899  0.1122  0.3766
19384TIP3    H179567   4.614   4.012   5.282  0.3597 -0.1377  1.5036
19384TIP3    H279568   4.691   3.894   5.339 -0.4262 -1.2913  0.2606
19385TIP3   OH279569   0.044   5.894   5.407  0.4170  0.0714  0.0897
19385TIP3    H179570  -0.027   5.880   5.470 -0.4235 -0.7023 -0.9734
19385TIP3    H279571   0.017   5.971   5.358  1.5128  1.2191  1.2284
19386TIP3   OH279572   1.272   0.307   0.371  0.3052 -0.3646 -0.2664
19386TIP3    H179573   1.323   0.228   0.390  2.8034  0.9654 -0.9299
19386TIP3    H279574   1.260   0.349   0.457 -0.4977 -1.1530  0.0118
19387TIP3   OH279575   2.785   4.166  14.744  0.5485 -0.4082 -0.0012
19387TIP3    H179576   2.702   4.207  14.721  1.4113  0.5734 -1.5499
19387TIP3    H279577   2.852   4.226  14.711  2.0485  0.9854  4.6996
19388TIP3   OH279578   5.904   5.862   5.536  0.6533  0.1821  0.0428
19388TIP3    H179579   5.875   5.941   5.582  1.7503  0.2153  0.7116
19388TIP3    H279580   5.843   5.853   5.463  0.3250  1.4701  0.1345
19389TIP3   OH279581   2.189   0.460  12.161 -0.4624 -0.3507 -0.4687
19389TIP3    H179582   2.116   0.474  12.221  0.7220 -3.2865  1.9233
19389TIP3    H279583   2.256   0.521  12.189 -1.0270  0.4833 -0.9076
19390TIP3   OH279584   5.713   3.919   3.820 -0.7461  0.2481 -0.0830
19390TIP3    H179585   5.779   3.867   3.774 -0.2005  1.0340 -0.2138
19390TIP3    H279586   5.697   3.993   3.761  0.0809  1.3552  1.0259
19391TIP3   OH279587   4.442   4.122   4.966  0.2840 -0.3349 -0.6876
19391TIP3    H179588   4.487   4.039   4.984 -0.4082 -0.5605  0.0607
19391TIP3    H279589   4.501   4.189   5.000 -0.9094 -0.7375  2.5069
19392TIP3   OH279590   6.008   4.887   2.657 -0.7531 -0.4619 -0.1559
19392TIP3    H179591   5.920   4.921   2.672 -0.4879 -0.1608  0.7915
19392TIP3    H279592   6.056   4.907   2.737  0.2823 -0.3060 -0.7886
19393TIP3   OH279593   3.806   6.328   5.986 -0.7070 -0.5188  0.1637
19393TIP3    H179594   3.824   6.342   6.079 -1.0820  1.8031 -0.0559
19393TIP3    H279595   3.712   6.316   5.981 -0.7414 -0.2162  0.0497
19394TIP3   OH279596   6.073   1.563  15.193 -0.1614  0.2771 -0.1330
19394TIP3    H179597   6.146   1.594  15.246 -0.3952  2.3298 -0.8920
19394TIP3    H279598   6.107   1.563  15.103 -1.1800  1.7385 -0.5561
19395TIP3   OH279599   3.347   3.031   5.493  0.5340 -0.3032  0.7616
19395TIP3    H179600   3.433   3.038   5.534  1.1443 -0.1062 -0.5115
19395TIP3    H279601   3.295   2.981   5.556  2.0702 -1.9743  0.7880
19396TIP3   OH279602   0.585   5.881   5.283 -0.0112  0.1535  0.4954
19396TIP3    H179603   0.546   5.895   5.369 -0.1726  0.7603  0.3245
19396TIP3    H279604   0.575   5.964   5.237  1.4876  0.3327  0.4467
19397TIP3   OH279605   4.398   2.915  16.236  0.2582 -0.9422  0.3341
19397TIP3    H179606   4.332   2.865  16.284 -0.2342  1.2285  2.1467
19397TIP3    H279607   4.379   3.006  16.260  4.1187 -0.2243  1.2450
19398TIP3   OH279608   2.366   5.296   3.749  0.2177 -0.1164  0.2457
19398TIP3    H179609   2.372   5.319   3.841  1.1432 -1.3235  0.5071
19398TIP3    H279610   2.456   5.294   3.718 -0.0426 -0.3282 -0.5262
19399TIP3   OH279611   1.143   2.770   1.470  0.4587  0.1349 -0.6866
19399TIP3    H179612   1.107   2.834   1.408  0.0950  1.0210  0.4023
19399TIP3    H279613   1.077   2.700   1.473  0.1428  0.4240 -0.7761
19400TIP3   OH279614   3.993   5.856   3.613  0.0588 -0.0244  0.4248
19400TIP3    H179615   4.018   5.768   3.585  0.1938  0.1283  0.0616
19400TIP3    H279616   3.897   5.854   3.615  0.0746 -0.7704  2.3303
19401TIP3   OH279617   2.909   1.491   5.388  0.2141  0.2548  0.0996
19401TIP3    H179618   2.865   1.469   5.306  0.3510  0.6474 -0.0838
19401TIP3    H279619   2.921   1.586   5.384  0.3189  0.2606  0.5256
19402TIP3   OH279620   5.099   1.753  16.599  0.3716 -0.3472 -0.6336
19402TIP3    H179621   5.035   1.816  16.563 -1.7089 -1.3245  1.1235
19402TIP3    H279622   5.134   1.708  16.522 -0.2751  0.9317 -1.7269
19403TIP3   OH279623   3.126   3.675   2.309  0.3485 -0.4391 -0.6839
19403TIP3    H179624   3.045   3.706   2.349  0.9077  1.0931 -0.6461
19403TIP3    H279625   3.190   3.674   2.380  0.5273 -1.0080 -0.8440
19404TIP3   OH279626   1.807   2.524   3.562 -0.2224 -1.0207 -0.1333
19404TIP3    H179627   1.739   2.588   3.582 -1.3260 -2.2991  0.3400
19404TIP3    H279628   1.849   2.507   3.647  0.7021 -0.2638 -0.4155
19405TIP3   OH279629   5.856   6.299  14.218 -0.2494  0.2112 -0.0553
19405TIP3    H179630   5.897   6.225  14.262 -0.7137 -1.1508 -1.7910
19405TIP3    H279631   5.891   6.376  14.263  3.7965 -0.8379 -0.9462
19406TIP3   OH279632   0.002   1.976   1.630 -0.0622  0.3429  0.3661
19406TIP3    H179633   0.044   2.007   1.710  1.5091  1.4398 -0.8314
19406TIP3    H279634   0.071   1.930   1.583 -0.4173  1.3737 -1.2320
19407TIP3   OH279635   4.051   1.047   3.374 -0.3158  0.2655  0.3118
19407TIP3    H179636   3.969   1.089   3.402  0.5937  2.6469 -0.4027
19407TIP3    H279637   4.120   1.106   3.405  1.2299 -1.8978  1.2837
19408TIP3   OH279638   0.319   1.761  11.541  0.0951  1.1892  0.0432
19408TIP3    H179639   0.343   1.842  11.496  0.9232  0.3153 -1.1109
19408TIP3    H279640   0.265   1.713  11.478 -1.2437  1.2453  1.0778
19409TIP3   OH279641   5.693   2.960   5.862 -0.1790 -0.1335  0.1997
19409TIP3    H179642   5.686   2.865   5.851  2.9091 -0.4383 -0.1174
19409TIP3    H279643   5.786   2.975   5.877 -0.6276  2.8505  0.5986
19410TIP3   OH279644   1.737   5.226  12.839 -0.3460  0.1325 -0.0273
19410TIP3    H179645   1.817   5.182  12.809  0.2993  2.1042 -1.4313
19410TIP3    H279646   1.672   5.156  12.845  1.0069 -1.2406 -0.6060
19411TIP3   OH279647   5.715   0.346   0.516  0.3936 -0.0997 -0.3744
19411TIP3    H179648   5.754   0.269   0.474  0.0546 -0.4244 -0.1002
19411TIP3    H279649   5.686   0.401   0.442 -1.4968 -1.3169 -0.6294
19412TIP3   OH279650   3.436   5.782  14.209  0.8648  0.1332  0.3004
19412TIP3    H179651   3.476   5.859  14.168  0.1756 -0.3805 -1.4172
19412TIP3    H279652   3.405   5.814  14.294  3.4948  0.9036  1.0591
19413TIP3   OH279653   1.387   1.677   6.505 -0.2365 -0.0294 -0.2794
19413TIP3    H179654   1.430   1.658   6.422  3.1282 -2.1064  1.6756
19413TIP3    H279655   1.301   1.637   6.497 -0.3080  0.4925 -2.9712
19414TIP3   OH279656   6.589   3.415   0.039  0.5895  0.6001 -0.4771
19414TIP3    H179657   6.683   3.432   0.049  0.8372  0.0603 -1.7191
19414TIP3    H279658   6.581   3.369  -0.044 -0.7996  0.7398 -0.4522
19415TIP3   OH279659   3.158   5.751  15.858  0.1011  0.3322 -0.1808
19415TIP3    H179660   3.156   5.677  15.918 -0.3017 -0.0986 -0.7130
19415TIP3    H279661   3.074   5.747  15.812  0.8756 -0.0818 -1.6208
19416TIP3   OH279662   6.534   1.846  15.602 -0.5273  0.7429 -0.2347
19416TIP3    H179663   6.621   1.806  15.604 -0.0504  1.6962  2.8060
19416TIP3    H279664   6.473   1.772  15.612 -0.2222 -0.0305 -3.2409
19417TIP3   OH279665   4.518   5.647  11.261  0.2254  0.5070  0.4696
19417TIP3    H179666   4.485   5.732  11.235  0.6700  0.2593 -1.0049
19417TIP3    H279667   4.463   5.584  11.215  0.1851 -0.0013  1.1902
19418TIP3   OH279668   3.854   3.383   0.256  0.0638 -0.2179  0.2675
19418TIP3    H179669   3.850   3.312   0.319 -0.9152  0.7254  1.3274
19418TIP3    H279670   3.878   3.342   0.173 -0.5965 -1.7819  0.8271
19419TIP3   OH279671   5.360   5.836  14.014  0.4008 -0.5513  0.2787
19419TIP3    H179672   5.265   5.848  14.006 -0.0789 -2.6636  1.6390
19419TIP3    H279673   5.395   5.856  13.928 -1.1465  1.1700 -0.0157
19420TIP3   OH279674   6.068   3.622   2.016  0.5656  0.2418  0.3889
19420TIP3    H179675   6.113   3.604   2.099  1.1454  0.0705  0.0365
19420TIP3    H279676   5.982   3.581   2.027  0.1317  1.3499  1.4158
19421TIP3   OH279677   1.341   1.747  15.557 -0.3071 -0.2956 -0.5284
19421TIP3    H179678   1.325   1.692  15.633 -1.5663 -1.5226 -1.6234
19421TIP3    H279679   1.278   1.717  15.492  0.9846  0.4428 -2.1989
19422TIP3   OH279680   6.181   2.614  13.688 -0.1043 -0.4229 -0.6679
19422TIP3    H179681   6.206   2.537  13.738  1.2132 -0.3436 -1.1656
19422TIP3    H279682   6.259   2.669  13.688 -1.3878  1.5199  0.7391
19423TIP3   OH279683   0.934   3.755  15.040 -0.2321 -0.6477 -0.5671
19423TIP3    H179684   0.997   3.826  15.026 -1.4286  0.7368  0.6507
19423TIP3    H279685   0.964   3.711  15.119 -0.3600 -0.4856 -0.4284
19424TIP3   OH279686   5.498   3.880   3.974  0.2062  0.2653 -0.5142
19424TIP3    H179687   5.530   3.809   4.029 -0.6767  0.5376  0.3764
19424TIP3    H279688   5.573   3.902   3.919  0.4895 -1.3480 -0.8263
19425TIP3   OH279689   0.895   5.403   3.934  0.3613  0.7733  0.1217
19425TIP3    H179690   0.855   5.352   4.005 -3.6693  1.4747 -1.3373
19425TIP3    H279691   0.971   5.352   3.908 -1.7031 -3.0138  0.7361
19426TIP3   OH279692   2.943   2.562   0.603 -0.3451 -0.0135  0.0256
19426TIP3    H179693   3.023   2.539   0.556  0.8236  1.1812  1.3394
19426TIP3    H279694   2.944   2.657   0.608 -1.0211 -0.0461  1.4217
19427TIP3   OH279695   1.202   2.351  12.975 -0.3003  0.2354  0.2513
19427TIP3    H179696   1.252   2.278  12.939  0.9387  1.3804 -0.4740
19427TIP3    H279697   1.245   2.372  13.057 -0.5035  0.3071  0.3410
19428TIP3   OH279698   4.066   5.318   4.580 -0.5212 -0.4585 -0.2548
19428TIP3    H179699   4.133   5.384   4.597 -1.2089  0.1687  0.0562
19428TIP3    H279700   4.087   5.246   4.640 -1.0903  0.4317  1.0450
19429TIP3   OH279701   0.520   5.301   1.251 -0.3411 -0.5382  0.1646
19429TIP3    H179702   0.524   5.211   1.218  0.0191 -0.2232 -0.6919
19429TIP3    H279703   0.494   5.352   1.174  0.2086  0.1810  0.4550
19430TIP3   OH279704   5.697   0.940  12.112  0.0863 -0.1454  0.0785
19430TIP3    H179705   5.639   0.936  12.036  1.1275  0.1466 -0.7677
19430TIP3    H279706   5.675   1.023  12.154 -0.7848 -0.5008  0.3451
19431TIP3   OH279707   5.468   0.749  16.913 -0.2713 -0.2484 -0.3989
19431TIP3    H179708   5.466   0.804  16.834 -0.6850 -0.9927 -0.9187
19431TIP3    H279709   5.526   0.796  16.973 -0.0140  0.3750 -1.1155
19432TIP3   OH279710   1.013   1.726  12.590 -0.0814  0.5176 -0.7530
19432TIP3    H179711   1.038   1.695  12.677  0.4578  2.6003 -0.1262
19432TIP3    H279712   0.936   1.780  12.605  0.7625  1.9473 -1.3447
19433TIP3   OH279713   3.091   4.920   2.458  0.0175 -0.4746  0.4599
19433TIP3    H179714   3.029   4.917   2.385 -1.8046  2.7548  1.6728
19433TIP3    H279715   3.054   4.860   2.524  0.3328 -1.4848 -0.2497
19434TIP3   OH279716   3.888   0.948   2.087 -0.5200  0.1164  0.1571
19434TIP3    H179717   3.982   0.961   2.102 -0.2823  0.2397 -1.2839
19434TIP3    H279718   3.845   1.015   2.140  0.2906  1.1278 -0.4414
19435TIP3   OH279719   5.300   5.193   0.343 -0.0450  0.3911 -0.7468
19435TIP3    H179720   5.309   5.128   0.413  0.7050  0.4570 -0.7782
19435TIP3    H279721   5.243   5.151   0.279 -0.3437  0.1382 -0.3252
19436TIP3   OH279722   6.568   4.246  13.359  0.0282 -0.2399  0.5517
19436TIP3    H179723   6.542   4.317  13.300  2.5784 -1.6041 -2.5251
19436TIP3    H279724   6.614   4.290  13.431  0.7472  1.3190 -0.7986
19437TIP3   OH279725   3.482   4.043   3.007 -0.1332  0.2729 -0.2170
19437TIP3    H179726   3.434   4.103   2.950  0.1237  0.5037 -0.1910
19437TIP3    H279727   3.455   3.955   2.979 -0.5238  0.4002 -0.2428
19438TIP3   OH279728   3.582   4.641  13.210 -0.0008  0.6085 -0.9005
19438TIP3    H179729   3.670   4.645  13.174  0.0875  2.7669 -0.5987
19438TIP3    H279730   3.527   4.610  13.138  0.9874 -0.9486 -1.0317
19439TIP3   OH279731   0.771   0.729  11.079 -0.5655 -0.1641 -0.0371
19439TIP3    H179732   0.769   0.792  11.151 -1.6389 -1.8364  1.4782
19439TIP3    H279733   0.858   0.739  11.040 -0.1647  1.1527  1.1179
19440TIP3   OH279734   2.056   2.371  14.583 -0.0234  0.0597 -0.1620
19440TIP3    H179735   2.142   2.380  14.623  0.5759  0.9774 -1.5630
19440TIP3    H279736   2.046   2.451  14.531 -1.3747 -0.4156 -0.6727
19441TIP3   OH279737   0.761   1.732   6.087  0.1962 -0.2441  0.7691
19441TIP3    H179738   0.697   1.673   6.127  0.4016 -2.9188 -2.3690
19441TIP3    H279739   0.709   1.786   6.027  0.4958 -0.2786  0.4746
19442TIP3   OH279740   4.363   3.969  12.162 -0.0522  0.6464 -0.2339
19442TIP3    H179741   4.299   3.995  12.096 -0.1133  0.2433 -0.3327
19442TIP3    H279742   4.441   4.020  12.140  0.8362 -1.3994 -2.2751
19443TIP3   OH279743   2.932   6.546   5.455  0.5248  0.3049  0.2082
19443TIP3    H179744   2.853   6.571   5.408  0.4135 -1.0020 -0.3507
19443TIP3    H279745   3.004   6.574   5.399  0.5222  2.3252  1.1397
19444TIP3   OH279746   1.148   4.300   5.271 -0.2698  0.0425 -0.0153
19444TIP3    H179747   1.101   4.364   5.325  2.4536  1.4767  0.8690
19444TIP3    H279748   1.215   4.264   5.329 -0.6755 -2.4887 -0.9854
19445TIP3   OH279749   0.927   3.844   6.097  0.2228  0.4654  0.2378
19445TIP3    H179750   0.989   3.914   6.081 -0.1187  1.3159  2.2823
19445TIP3    H279751   0.967   3.766   6.059  0.9993  1.5903 -1.3237
19446TIP3   OH279752   2.923   6.784  11.902 -0.1765 -0.0755 -0.6035
19446TIP3    H179753   2.891   6.875  11.898  1.2989  0.5759  1.1309
19446TIP3    H279754   2.848   6.735  11.936 -0.0078  1.0872  1.5985
19447TIP3   OH279755   3.657   3.385  11.690  0.2638  1.1090 -0.2979
19447TIP3    H179756   3.733   3.344  11.732 -0.5176 -0.9797 -0.8204
19447TIP3    H279757   3.686   3.474  11.671  2.1850  0.7151  0.5467
19448TIP3   OH279758   3.094   1.040  13.874 -0.2017 -0.5783  0.3374
19448TIP3    H179759   3.031   1.060  13.944 -0.8769 -0.7220 -0.2167
19448TIP3    H279760   3.158   0.983  13.915  0.1835  0.4435  1.2061
19449TIP3   OH279761   2.219   5.756  16.345  0.2205 -0.2012 -0.1245
19449TIP3    H179762   2.189   5.741  16.434 -1.8023  1.4801 -0.4467
19449TIP3    H279763   2.300   5.705  16.338 -0.1961 -1.3308  2.2582
19450TIP3   OH279764   4.717   5.612  10.074  0.1038 -0.2716  0.0119
19450TIP3    H179765   4.623   5.596  10.079  0.4764 -2.5061  2.0270
19450TIP3    H279766   4.753   5.533  10.032  1.1726 -0.1335  0.6194
19451TIP3   OH279767   1.010   6.231  13.073  0.5274 -0.5191 -0.1293
19451TIP3    H179768   1.076   6.216  13.141  1.3978 -1.8760 -1.2268
19451TIP3    H279769   1.059   6.232  12.991 -0.6658 -0.2326 -0.8648
19452TIP3   OH279770   6.486   3.908   1.814  0.2146 -0.0569 -0.5108
19452TIP3    H179771   6.537   3.858   1.878  0.3612  1.2683  0.4552
19452TIP3    H279772   6.438   3.842   1.764  0.4519 -1.1449  0.6605
19453TIP3   OH279773   3.551   2.744   4.942 -0.0863 -0.3913  0.0192
19453TIP3    H179774   3.508   2.664   4.913 -0.8135 -0.3865  1.0076
19453TIP3    H279775   3.514   2.813   4.886  0.8603 -0.7741 -1.1228
19454TIP3   OH279776   2.244   2.453   1.183  0.3684 -0.4631  0.0909
19454TIP3    H179777   2.214   2.433   1.094 -1.6524 -0.4117  0.6958
19454TIP3    H279778   2.166   2.438   1.237  0.7635  2.1590  1.5066
19455TIP3   OH279779   6.479   2.504   0.874  0.2604 -0.0394 -0.0324
19455TIP3    H179780   6.568   2.470   0.869  0.9524  1.6624 -0.1344
19455TIP3    H279781   6.442   2.492   0.787  0.8521  0.3735 -0.3463
19456TIP3   OH279782   0.930   1.943   4.033  0.3551 -0.3959  0.3380
19456TIP3    H179783   0.885   1.946   4.118  0.1470 -1.2195  0.2717
19456TIP3    H279784   1.014   1.901   4.052  0.9379  0.7758  0.3897
19457TIP3   OH279785   6.324   1.901   0.216 -1.1924  0.3595  0.6416
19457TIP3    H179786   6.250   1.905   0.277 -1.8130 -1.7489  0.1197
19457TIP3    H279787   6.356   1.811   0.224  1.0356  1.0720  0.4814
19458TIP3   OH279788   6.320   2.516   5.032  0.0016  0.1847  0.0925
19458TIP3    H179789   6.257   2.571   4.984  1.2880  0.3197 -1.5107
19458TIP3    H279790   6.338   2.443   4.973  2.2326  0.7550 -0.0043
19459TIP3   OH279791   2.886   4.572   2.810 -0.0590 -0.0602 -0.1854
19459TIP3    H179792   2.863   4.651   2.859  1.0920  0.2381 -0.0783
19459TIP3    H279793   2.952   4.530   2.864  0.8970  0.0281 -1.2411
19460TIP3   OH279794   1.350   2.932  14.016 -0.4311  0.6896  0.3948
19460TIP3    H179795   1.437   2.972  14.009 -0.3206  1.0820  3.1845
19460TIP3    H279796   1.300   2.972  13.944  1.3092  1.3867 -0.4967
19461TIP3   OH279797   1.567   0.295   4.101  0.1392  0.0453 -0.3611
19461TIP3    H179798   1.512   0.274   4.177  1.6185  0.4897  0.8748
19461TIP3    H279799   1.656   0.300   4.136  1.0140 -0.7195 -2.3191
19462TIP3   OH279800   3.675   0.041   2.200 -0.2142  0.2279  0.4000
19462TIP3    H179801   3.649   0.053   2.292  0.0751 -0.1492  0.5324
19462TIP3    H279802   3.763   0.076   2.195 -0.0670 -0.1395  0.3667
19463TIP3   OH279803   6.567   6.294   2.439 -0.3875  0.5834 -0.6757
19463TIP3    H179804   6.628   6.293   2.513 -0.8502 -0.1175 -0.2954
19463TIP3    H279805   6.482   6.314   2.478 -0.8725 -1.0709 -0.8149
19464TIP3   OH279806   0.584   2.297   1.577 -0.4160  0.4971 -0.2269
19464TIP3    H179807   0.639   2.232   1.533 -0.7503  0.2081 -0.2175
19464TIP3    H279808   0.527   2.245   1.634  0.2098  0.8779  0.7725
19465TIP3   OH279809   1.369   2.496   5.033  0.0033  0.2473 -0.3686
19465TIP3    H179810   1.287   2.470   5.074  0.0154  1.2065  0.3144
19465TIP3    H279811   1.404   2.415   4.995 -0.9981 -0.2671 -0.2287
19466TIP3   OH279812   1.933   3.085  11.447 -0.3672 -0.3682  0.3930
19466TIP3    H179813   1.919   3.069  11.540  0.6328  0.2933  0.6727
19466TIP3    H279814   2.028   3.098  11.439 -0.5734  0.7404 -0.5313
19467TIP3   OH279815   6.481   0.083  16.877  0.5808 -0.2726 -0.2702
19467TIP3    H179816   6.542   0.044  16.815  1.6018  0.6107  0.1461
19467TIP3    H279817   6.528   0.081  16.961  0.1521  0.6799  0.0027
19468TIP3   OH279818   0.118   2.940  12.650 -0.5337 -0.3418  0.2085
19468TIP3    H179819   0.208   2.939  12.619 -1.2660  0.6634 -2.1635
19468TIP3    H279820   0.111   3.020  12.702  0.0465 -0.7083  0.8747
19469TIP3   OH279821   2.290   3.161  17.062 -0.9697 -0.3748 -0.3337
19469TIP3    H179822   2.345   3.186  16.988 -1.6252  3.5668  0.2985
19469TIP3    H279823   2.338   3.193  17.139 -2.6325  0.2179  0.4926
19470TIP3   OH279824   4.589   3.567  13.471 -0.2823 -0.7563 -0.2270
19470TIP3    H179825   4.511   3.513  13.488 -0.7983 -0.0373 -0.2890
19470TIP3    H279826   4.574   3.603  13.384 -0.5346  0.4850  0.3089
19471TIP3   OH279827   1.965   2.103   0.077 -0.4279 -0.2280  0.1330
19471TIP3    H179828   2.019   2.048   0.019 -1.2227 -1.2842  0.3671
19471TIP3    H279829   2.016   2.183   0.087  1.1752 -1.2342  0.4514
19472TIP3   OH279830   0.089   6.359   1.160 -0.3328  0.3697 -0.0581
19472TIP3    H179831   0.046   6.400   1.085 -2.4779  0.0191  0.9261
19472TIP3    H279832   0.161   6.418   1.181  0.4565  0.3755 -2.4792
19473TIP3   OH279833   3.474   4.309   5.409 -0.3444 -0.0363  0.1733
19473TIP3    H179834   3.386   4.298   5.373  0.0803  3.2970 -2.3742
19473TIP3    H279835   3.532   4.279   5.339  0.5555 -0.1652  0.9615
19474TIP3   OH279836   5.502   1.877   1.998 -0.7547  0.0049  0.7650
19474TIP3    H179837   5.428   1.853   1.944 -0.7270  1.7084 -0.0990
19474TIP3    H279838   5.578   1.870   1.939 -0.5446  0.5438  0.9683
19475TIP3   OH279839   0.981   5.770   2.145  0.4357  0.2296  0.4643
19475TIP3    H179840   0.897   5.803   2.176  0.4739 -0.4717  1.3544
19475TIP3    H279841   0.991   5.685   2.188  0.9907 -0.2995 -0.6707
19476TIP3   OH279842   0.233   0.412   4.707 -0.2751 -0.4171  0.3242
19476TIP3    H179843   0.254   0.335   4.654  0.1680 -0.4911  0.6038
19476TIP3    H279844   0.278   0.484   4.663  1.0242 -0.6544  1.1980
19477TIP3   OH279845   3.937   5.021   2.638 -0.8552  1.0675  0.3996
19477TIP3    H179846   3.919   5.049   2.548 -3.0485  0.6546  0.6545
19477TIP3    H279847   3.880   5.077   2.692 -1.3080 -0.2323  1.3218
19478TIP3   OH279848   2.732   3.697  15.626  0.3787  0.0929  0.2783
19478TIP3    H179849   2.717   3.604  15.607 -1.5093  0.7054 -1.7362
19478TIP3    H279850   2.789   3.727  15.555 -2.3298  1.2409 -1.6164
19479TIP3   OH279851   1.563   5.345  15.438  0.0485 -0.0292  0.0488
19479TIP3    H179852   1.480   5.298  15.425  0.5298 -0.7366 -0.5128
19479TIP3    H279853   1.561   5.414  15.371 -1.1209  1.4642  1.5219
19480TIP3   OH279854   4.566   0.239  14.137 -0.0032  0.0797 -0.3494
19480TIP3    H179855   4.522   0.320  14.111  1.0994  1.2871  1.3325
19480TIP3    H279856   4.648   0.268  14.177  0.4235 -1.8697  0.3021
19481TIP3   OH279857   2.111   3.735  11.297  0.3565 -0.5205 -0.0862
19481TIP3    H179858   2.019   3.730  11.271  0.4606 -1.5863 -0.3137
19481TIP3    H279859   2.142   3.819  11.264 -0.8748  0.4439  1.1315
19482TIP3   OH279860   0.587   2.813  17.218  0.0273 -0.0932 -0.4377
19482TIP3    H179861   0.597   2.740  17.280  1.3513  0.6090  0.2125
19482TIP3    H279862   0.546   2.883  17.269 -1.2576 -0.3597 -1.0664
19483TIP3   OH279863   3.203   1.192  12.458  0.1493 -0.4009  0.0851
19483TIP3    H179864   3.287   1.146  12.458 -0.1914 -1.0576  1.5734
19483TIP3    H279865   3.142   1.131  12.415 -0.7497 -2.3452  3.7283
19484TIP3   OH279866   6.403   1.060  12.888  0.0847  0.1414  0.3726
19484TIP3    H179867   6.478   1.069  12.831 -0.5228 -1.1931 -0.7056
19484TIP3    H279868   6.402   0.967  12.912 -1.0460  0.1960  0.6108
19485TIP3   OH279869   6.100   2.753  14.219  0.3279  0.0544  0.0069
19485TIP3    H179870   6.093   2.733  14.125 -4.0487  0.5487  0.0135
19485TIP3    H279871   6.038   2.694  14.261  1.8225  0.1940  2.5894
19486TIP3   OH279872   0.258   0.308   4.230 -0.0338 -0.0426  0.7474
19486TIP3    H179873   0.308   0.227   4.231 -0.0580 -0.0695  0.0110
19486TIP3    H279874   0.301   0.363   4.297  2.0965  0.5814 -1.0161
19487TIP3   OH279875   3.885   4.310  10.727 -0.0545  0.2143  0.6701
19487TIP3    H179876   3.918   4.394  10.693 -1.2385  0.1435 -0.7581
19487TIP3    H279877   3.963   4.255  10.735  0.7305  1.3999  1.5413
19488TIP3   OH279878   0.016   0.851   2.586 -0.0117 -0.2124  0.1390
19488TIP3    H179879   0.055   0.818   2.505 -0.4850  2.6582 -1.3899
19488TIP3    H279880   0.091   0.868   2.643  0.4439 -0.8762 -0.2425
19489TIP3   OH279881   4.899   3.612  10.642 -0.4075 -0.5274 -0.1237
19489TIP3    H179882   4.906   3.654  10.727  1.0884  1.1999 -1.0228
19489TIP3    H279883   4.805   3.599  10.629 -0.7284  0.1505  1.3177
19490TIP3   OH279884   1.084   0.389  16.675 -0.3722 -0.8984  0.4297
19490TIP3    H179885   1.059   0.364  16.586  1.9411  0.4348 -0.6984
19490TIP3    H279886   1.043   0.474  16.689  1.3071  0.1364 -0.4761
19491TIP3   OH279887   2.871   5.175  16.682  0.5278 -0.2544 -0.5299
19491TIP3    H179888   2.820   5.256  16.678 -0.0939 -0.6075  0.0872
19491TIP3    H279889   2.926   5.185  16.759  0.4979 -0.3925 -0.4902
19492TIP3   OH279890   6.427   3.943   4.451  0.4012 -0.1077 -0.2054
19492TIP3    H179891   6.346   3.907   4.415 -0.4190  2.8930 -1.6996
19492TIP3    H279892   6.398   3.999   4.523  1.1948  0.2937 -0.1868
19493TIP3   OH279893   1.303   3.131  12.212 -0.4330  0.3783 -0.0638
19493TIP3    H179894   1.295   3.049  12.261 -1.2043  0.4699 -0.0234
19493TIP3    H279895   1.340   3.193  12.274  1.5204 -0.2798 -0.4939
19494TIP3   OH279896   0.223   0.469   2.368  0.5604 -0.0205  0.7464
19494TIP3    H179897   0.160   0.518   2.313  2.0227  2.0896  0.8265
19494TIP3    H279898   0.214   0.509   2.455  0.5700 -1.1404  1.2815
19495TIP3   OH279899   6.093   0.775   1.923  0.0455  0.0856  0.4791
19495TIP3    H179900   6.130   0.847   1.872 -0.6673 -0.8184 -1.4139
19495TIP3    H279901   6.159   0.757   1.990  1.3044  0.9591 -0.4771
19496TIP3   OH279902   6.733   1.143  14.327  0.2665  0.4208 -0.6040
19496TIP3    H179903   6.677   1.201  14.379  0.6903 -0.3442  0.7853
19496TIP3    H279904   6.676   1.109  14.258 -0.8993 -0.0540  0.5518
19497TIP3   OH279905   3.164   0.967  11.233 -0.1224  0.0390  0.1197
19497TIP3    H179906   3.201   1.009  11.310  0.1915  2.2885 -1.1625
19497TIP3    H279907   3.240   0.927  11.189 -0.4382 -2.1362  1.4024
19498TIP3   OH279908   1.119   4.940   1.802 -0.4120  0.3810 -0.6919
19498TIP3    H179909   1.104   4.904   1.714 -1.1364  0.9791 -0.8218
19498TIP3    H279910   1.177   5.015   1.787  0.1655 -0.0332 -0.5537
19499TIP3   OH279911   3.385   5.853   0.739  0.6267 -0.6215  0.2731
19499TIP3    H179912   3.332   5.838   0.818  1.5454 -0.5650  0.9176
19499TIP3    H279913   3.452   5.915   0.767  0.9064 -0.5272 -0.5899
19500TIP3   OH279914   1.364   0.465  16.646 -0.1298 -0.3192 -0.1263
19500TIP3    H179915   1.393   0.380  16.614  0.8710 -0.9923  2.3426
19500TIP3    H279916   1.277   0.448  16.684 -0.3527 -0.0188 -0.4977
19501TIP3   OH279917   5.373   0.709  12.010 -0.8137  0.2024 -0.1686
19501TIP3    H179918   5.332   0.743  11.930  0.3641 -0.8000 -1.2339
19501TIP3    H279919   5.466   0.732  12.000 -1.0855  3.2724  2.6161
19502TIP3   OH279920   5.503   3.774   4.947  0.5156 -0.1123  0.0445
19502TIP3    H179921   5.571   3.720   4.905  1.2288  1.2432 -0.5916
19502TIP3    H279922   5.518   3.862   4.913  0.9068  1.0281  2.8651
19503TIP3   OH279923   5.346   2.005   0.187  0.1607  0.0248 -0.2435
19503TIP3    H179924   5.346   1.997   0.283 -1.2709  0.4115 -0.1963
19503TIP3    H279925   5.294   2.084   0.170 -0.2510 -0.4837 -1.3709
19504TIP3   OH279926   3.307   0.035   1.409 -0.5885  0.3521  0.0563
19504TIP3    H179927   3.270  -0.039   1.361 -3.0931  0.9422  0.9263
19504TIP3    H279928   3.316   0.104   1.343 -0.8806  0.1416 -0.2031
19505TIP3   OH279929   0.442   1.928  16.299  1.1185 -0.2311  0.3985
19505TIP3    H179930   0.468   1.948  16.210 -3.3702 -0.7087 -1.2831
19505TIP3    H279931   0.433   2.014  16.341  0.2053  0.2412 -0.6998
19506TIP3   OH279932   4.556   6.538  16.395 -0.1279 -0.5873 -0.2447
19506TIP3    H179933   4.522   6.598  16.329 -1.0207 -1.1272 -0.2939
19506TIP3    H279934   4.650   6.533  16.377 -0.3713 -0.8380 -1.5661
19507TIP3   OH279935   6.276   2.143  15.529  0.5082 -0.2165  0.8082
19507TIP3    H179936   6.344   2.131  15.596 -0.8207  0.7604  2.4069
19507TIP3    H279937   6.263   2.238  15.526  1.6037 -0.0703 -2.0119
19508TIP3   OH279938   1.184   5.588   1.164  0.6849 -0.1838 -0.3178
19508TIP3    H179939   1.261   5.586   1.108  2.5530 -0.4999  2.0790
19508TIP3    H279940   1.197   5.514   1.224  0.6922  2.1572  2.7950
19509TIP3   OH279941   1.837   2.931  14.042 -0.0508  0.1101 -0.2894
19509TIP3    H179942   1.765   2.909  14.100  0.9689 -0.9896  0.6122
19509TIP3    H279943   1.908   2.959  14.101  0.7310 -0.2286 -1.0446
19510TIP3   OH279944   3.079   3.098   1.790  0.1170  0.1170 -0.1657
19510TIP3    H179945   3.075   3.110   1.695 -0.7408  0.4489 -0.0930
19510TIP3    H279946   3.015   3.029   1.808  1.4825 -1.1784 -0.0022
19511TIP3   OH279947   1.165   5.016   6.484 -0.5115  0.6393  0.4242
19511TIP3    H179948   1.148   4.948   6.549  0.1569 -0.7094 -0.7559
19511TIP3    H279949   1.080   5.030   6.442 -0.7495  0.8659  0.9653
19512TIP3   OH279950   6.236   2.163  11.739  0.4603 -0.7165 -0.1680
19512TIP3    H179951   6.319   2.206  11.760  1.0034 -2.4866  1.5942
19512TIP3    H279952   6.215   2.193  11.651  1.5936  1.8495  0.3517
19513TIP3   OH279953   0.833   1.958  13.396 -0.5526 -0.0171  0.3387
19513TIP3    H179954   0.745   1.922  13.384 -0.1437 -0.3448 -2.4689
19513TIP3    H279955   0.823   2.051  13.377 -0.1361 -0.2903 -1.4883
19514TIP3   OH279956   6.287   3.212   4.013 -0.0517  0.2482  0.7421
19514TIP3    H179957   6.230   3.283   4.043 -0.0953  0.7162 -0.4004
19514TIP3    H279958   6.227   3.149   3.972  0.3095  1.4024 -1.7506
19515TIP3   OH279959   0.697   5.760   3.514  0.1905 -0.3982 -0.4654
19515TIP3    H179960   0.775   5.720   3.552  1.5246  1.2393 -1.3414
19515TIP3    H279961   0.632   5.756   3.585  1.9570  0.7325  1.3410
19516TIP3   OH279962   5.727   2.892   3.322 -0.1930  0.1958 -0.2811
19516TIP3    H179963   5.790   2.964   3.315  3.0179 -2.3016  0.6244
19516TIP3    H279964   5.733   2.846   3.239  0.8707 -1.3023  0.5936
19517TIP3   OH279965   2.660   2.664   0.860 -0.5698 -0.0453 -0.4541
19517TIP3    H179966   2.656   2.578   0.819  0.0413 -0.0232 -0.5723
19517TIP3    H279967   2.714   2.650   0.938 -2.2471 -0.2308  0.7216
19518TIP3   OH279968   6.429   0.051  12.190 -0.0479 -0.5291  0.1638
19518TIP3    H179969   6.500   0.031  12.250  1.4551 -1.0277 -1.6864
19518TIP3    H279970   6.364  -0.017  12.206 -0.7591  0.6234  2.7196
19519TIP3   OH279971   3.541   2.303   3.782 -0.1398  0.1381 -0.0576
19519TIP3    H179972   3.450   2.323   3.801 -0.2700  2.5297 -2.5290
19519TIP3    H279973   3.548   2.208   3.795 -3.8229 -0.7392 -2.5933
19520TIP3   OH279974   5.083   6.622  17.083 -0.2819 -0.0663  0.2037
19520TIP3    H179975   5.000   6.577  17.068 -1.1218  1.3479  0.4519
19520TIP3    H279976   5.066   6.680  17.157  1.7869 -1.8495  2.2296
19521TIP3   OH279977   4.998   3.606   5.560 -0.2328 -0.0281 -0.3640
19521TIP3    H179978   4.961   3.692   5.582 -0.0197 -0.3448  1.3824
19521TIP3    H279979   4.947   3.544   5.612 -0.2200 -0.9441 -1.4171
19522TIP3   OH279980   2.266   4.568  15.202 -0.8365  0.4638  0.3292
19522TIP3    H179981   2.293   4.496  15.258  0.0810  1.2529  0.9464
19522TIP3    H279982   2.330   4.637  15.220 -2.2654  1.7902  0.5000
19523TIP3   OH279983   5.342   4.090   3.742  0.4074 -0.2606  0.2406
19523TIP3    H179984   5.322   4.100   3.835  0.6540 -1.3810  0.4320
19523TIP3    H279985   5.280   4.024   3.711  0.0347  0.4197 -0.5055
19524TIP3   OH279986   5.223   5.792  10.145  0.0544 -0.0258  0.0099
19524TIP3    H179987   5.264   5.763  10.227  1.6951 -1.5762 -1.2736
19524TIP3    H279988   5.252   5.883  10.135  0.5572 -0.0916  0.7263
19525TIP3   OH279989   2.068   2.581  15.284  0.3557 -0.6219  0.1426
19525TIP3    H179990   2.053   2.537  15.200 -1.6686  0.5772 -0.1914
19525TIP3    H279991   2.070   2.511  15.349 -0.2964 -1.4050 -0.6636
19526TIP3   OH279992   4.303   5.972   3.321 -0.2455  0.0122  0.0529
19526TIP3    H179993   4.389   5.988   3.361  1.1526 -1.8602 -1.9855
19526TIP3    H279994   4.285   6.052   3.271  0.2486  0.4600  0.5736
19527TIP3   OH279995   6.321   4.902  15.784  0.1741  0.2290  0.0952
19527TIP3    H179996   6.372   4.919  15.705  1.3501  0.3119  0.8402
19527TIP3    H279997   6.285   4.987  15.808  0.4371  0.3531  0.0582
19528TIP3   OH279998   2.629   0.799  11.294  0.2523 -0.1842 -0.1551
19528TIP3    H179999   2.722   0.815  11.281  0.3290 -1.2433 -1.1085
19528TIP3    H280000   2.621   0.772  11.386  0.9404 -0.4361 -0.1679
19529TIP3   OH280001   5.021   6.146   1.346 -0.3513  0.1695  0.5936
19529TIP3    H180002   4.980   6.103   1.421 -0.5045 -0.0558  0.3820
19529TIP3    H280003   5.108   6.107   1.339 -0.1706  0.5093  0.9248
19530TIP3   OH280004   5.765   1.126  16.454  0.3153  0.2837 -0.1064
19530TIP3    H180005   5.843   1.098  16.408  0.9808 -1.3164  1.8427
19530TIP3    H280006   5.792   1.133  16.546 -1.7908 -0.3194  0.6323
19531TIP3   OH280007   6.587   2.748  15.477 -0.6072  0.2870  0.3139
19531TIP3    H180008   6.634   2.739  15.560 -0.6662  1.3427  0.4724
19531TIP3    H280009   6.495   2.733  15.501 -0.6982  1.1900  0.5633
19532TIP3   OH280010   3.740   2.188   0.157  0.6722 -0.2039 -1.0613
19532TIP3    H180011   3.826   2.208   0.195  0.8524 -2.9682  0.2087
19532TIP3    H280012   3.759   2.124   0.088 -0.3311 -0.6972 -0.8940
19533TIP3   OH280013   5.463   5.923   0.089 -0.4301 -0.2371 -0.4662
19533TIP3    H180014   5.446   5.867   0.014 -0.4902 -0.3859 -0.3426
19533TIP3    H280015   5.503   5.865   0.154 -1.6038 -0.4132  0.1202
19534TIP3   OH280016   0.804   3.039   6.188 -0.3410  0.2166 -0.0193
19534TIP3    H180017   0.721   2.992   6.178  0.1909 -0.8788  0.5892
19534TIP3    H280018   0.844   3.002   6.266  1.3734 -0.2728 -1.0694
19535TIP3   OH280019   0.128   2.484   6.025 -0.1079  0.2003 -0.0269
19535TIP3    H180020   0.064   2.429   6.072  0.8962 -1.8754 -0.9725
19535TIP3    H280021   0.167   2.538   6.093 -0.4856 -0.9423  1.1467
19536TIP3   OH280022   1.381   4.789  12.867  0.4584  0.0793 -0.3260
19536TIP3    H180023   1.441   4.861  12.889  1.4901 -0.9357  0.2999
19536TIP3    H280024   1.332   4.774  12.948 -0.3633  0.6025 -0.7026
19537TIP3   OH280025   3.280   6.336   4.137  0.3984  0.3532 -0.0734
19537TIP3    H180026   3.222   6.261   4.128  0.4426  0.2605  0.3579
19537TIP3    H280027   3.251   6.398   4.070  1.8149 -0.9532 -1.9974
19538TIP3   OH280028   0.934   4.436  14.411 -0.4973 -0.3749  0.4583
19538TIP3    H180029   0.920   4.356  14.463 -1.8036  0.4678  1.4688
19538TIP3    H280030   0.849   4.452  14.369 -0.5295  0.9563  0.9916
19539TIP3   OH280031   2.560   2.114   2.322  0.1536 -0.2473 -0.1212
19539TIP3    H180032   2.582   2.125   2.229  0.9381 -0.3385  0.0479
19539TIP3    H280033   2.552   2.203   2.356 -3.0540 -0.0859 -0.8979
19540TIP3   OH280034   0.281   6.741  16.671  0.2079  0.0082 -0.5122
19540TIP3    H180035   0.319   6.788  16.597  2.4224  0.4650  0.8124
19540TIP3    H280036   0.354   6.730  16.732 -1.4807 -0.5335  1.5194
19541TIP3   OH280037   3.983   0.336  11.719 -0.3100  0.0646 -0.1627
19541TIP3    H180038   4.017   0.348  11.808 -1.0362 -0.5609  0.2157
19541TIP3    H280039   4.051   0.285  11.675  1.5647  3.0822 -0.9963
19542TIP3   OH280040   4.946   3.910  12.735  0.0295 -0.0037  0.3101
19542TIP3    H180041   4.911   3.978  12.792 -0.4033  0.3713 -0.4013
19542TIP3    H280042   4.877   3.892  12.672 -0.3039 -1.8836  1.1258
19543TIP3   OH280043   1.855   4.043   0.520  0.0902  0.1325  0.2346
19543TIP3    H180044   1.834   4.135   0.538  0.6199 -0.1049  2.3181
19543TIP3    H280045   1.770   3.998   0.521  0.0350  0.2408  1.6681
19544TIP3   OH280046   2.318   3.476  16.276 -0.0358  0.5197  0.1524
19544TIP3    H180047   2.258   3.411  16.313 -0.2147  0.8089  0.3717
19544TIP3    H280048   2.371   3.426  16.213 -2.3443  0.8067 -2.1535
19545TIP3   OH280049   3.660   1.066   5.913 -0.0803  0.4218  0.0869
19545TIP3    H180050   3.701   1.023   5.987  1.4581  2.2780  0.3878
19545TIP3    H280051   3.645   1.156   5.942 -2.8936  0.2683 -0.6076
19546TIP3   OH280052   6.001   2.967   4.796 -0.2658  0.0357  1.0588
19546TIP3    H180053   6.065   3.014   4.743 -1.9074 -1.0386 -2.1455
19546TIP3    H280054   6.045   2.885   4.819  0.0728  0.0042  0.3200
19547TIP3   OH280055   1.798   5.916  15.183 -0.1731  0.1433  0.3721
19547TIP3    H180056   1.880   5.868  15.172 -0.0868  0.7233 -1.8631
19547TIP3    H280057   1.762   5.883  15.266  1.8577 -0.7584  0.9519
19548TIP3   OH280058   5.313   3.664   0.060  0.0926 -0.2913 -0.0156
19548TIP3    H180059   5.261   3.741   0.085  0.8908 -0.3444  2.0054
19548TIP3    H280060   5.283   3.642  -0.028 -0.9014  1.6950 -0.2175
19549TIP3   OH280061   1.690   3.133  15.563  0.6384  0.6374 -0.5218
19549TIP3    H180062   1.713   3.058  15.508 -3.2028 -0.2857 -1.1589
19549TIP3    H280063   1.679   3.097  15.651  0.3435  0.7996 -0.4910
19550TIP3   OH280064   5.945   4.248   2.483 -0.9382 -0.2618  0.2951
19550TIP3    H180065   5.922   4.273   2.573 -2.0831  1.5776 -0.4465
19550TIP3    H280066   5.889   4.173   2.464 -2.4202  0.7833  0.3757
19551TIP3   OH280067   4.670   3.491  12.407 -0.3630  0.1868 -0.6410
19551TIP3    H180068   4.610   3.446  12.348 -2.0755 -0.2131  1.2815
19551TIP3    H280069   4.615   3.553  12.454  1.4033  2.2535 -1.1429
19552TIP3   OH280070   6.235   6.400  16.676  0.7091 -0.0998  0.4359
19552TIP3    H180071   6.162   6.456  16.647 -1.4377 -1.0938  3.3838
19552TIP3    H280072   6.302   6.462  16.705  0.1643  0.8724 -0.3132
19553TIP3   OH280073   3.381   1.435  12.606 -0.5711 -0.0323 -0.1011
19553TIP3    H180074   3.306   1.465  12.553  0.0752 -0.1410 -1.1041
19553TIP3    H280075   3.451   1.422  12.542  0.4183  0.4167  0.8746
19554TIP3   OH280076   5.471   1.207  14.575  0.9508 -0.1954  0.1954
19554TIP3    H180077   5.490   1.114  14.581 -0.8581 -0.5048  1.9391
19554TIP3    H280078   5.380   1.215  14.602  0.3851  1.8581 -1.9750
19555TIP3   OH280079   5.573   3.408   3.623  0.2541  0.2229  0.2336
19555TIP3    H180080   5.482   3.392   3.598 -0.4153  2.2487  1.1426
19555TIP3    H280081   5.625   3.364   3.556 -1.3833 -0.4633 -0.6414
19556TIP3   OH280082   4.398   4.495   4.048  0.0991  0.3399  0.3839
19556TIP3    H180083   4.397   4.433   3.975  0.8987  2.9660 -2.0707
19556TIP3    H280084   4.491   4.515   4.061 -0.1152  0.7433  1.3564
19557TIP3   OH280085   3.243   0.211  17.005 -0.6365 -0.0274  0.2139
19557TIP3    H180086   3.274   0.301  17.000  3.4594 -1.3134 -0.7842
19557TIP3    H280087   3.279   0.178  17.088  0.9314 -1.6625 -1.0569
19558TIP3   OH280088   2.508   6.468   5.402 -0.8457  0.0736 -0.6505
19558TIP3    H180089   2.531   6.393   5.347 -2.7605  0.0358 -1.5082
19558TIP3    H280090   2.584   6.526   5.398  1.2137 -2.3111  1.0441
19559TIP3   OH280091   3.184   0.531  15.044  0.6396  0.4460 -0.2831
19559TIP3    H180092   3.224   0.468  14.985  0.6246  0.0159  0.1614
19559TIP3    H280093   3.215   0.506  15.131  0.2470  0.7547 -0.0514
19560TIP3   OH280094   2.518   2.648   4.426  0.6178 -0.4266 -0.1432
19560TIP3    H180095   2.531   2.735   4.463 -1.3296 -0.5064  0.8746
19560TIP3    H280096   2.540   2.588   4.497 -2.0010 -0.6068  0.6328
19561TIP3   OH280097   2.064   6.092   4.255 -0.0474  0.6529 -0.4430
19561TIP3    H180098   2.156   6.070   4.270 -0.6931 -0.4123  2.6612
19561TIP3    H280099   2.066   6.171   4.201  2.5988 -0.2285 -1.7976
19562TIP3   OH280100   5.752   0.086   3.580 -0.8672  0.5040  0.2682
19562TIP3    H180101   5.710   0.002   3.562 -1.1764  0.9373 -1.1909
19562TIP3    H280102   5.763   0.088   3.675  0.0324 -1.6043  0.2528
19563TIP3   OH280103   2.322   6.028   4.293 -0.3612  0.5101  0.0443
19563TIP3    H180104   2.409   6.067   4.283 -0.4158  0.4877 -0.5479
19563TIP3    H280105   2.339   5.936   4.312 -0.2533  0.2849 -1.0518
19564TIP3   OH280106   0.333   6.579   0.189 -0.0912 -0.2709 -0.2350
19564TIP3    H180107   0.411   6.556   0.139 -0.0073  0.4859 -0.4708
19564TIP3    H280108   0.277   6.624   0.126  0.2981  1.2827  0.4891
19565TIP3   OH280109   0.152   5.059  14.322  0.0364  0.2978  0.4052
19565TIP3    H180110   0.148   5.142  14.273  0.7519  0.3164  0.3712
19565TIP3    H280111   0.193   5.083  14.405  0.7848 -0.1314  0.1629
19566TIP3   OH280112   2.347   4.683  15.727 -0.1929  0.2164  0.3356
19566TIP3    H180113   2.435   4.694  15.692 -1.2806 -0.9127 -3.1888
19566TIP3    H280114   2.311   4.771  15.731  0.8948  0.6443  1.3943
19567TIP3   OH280115   5.624   2.357   5.636  0.3323 -0.1461 -0.2700
19567TIP3    H180116   5.645   2.277   5.684 -2.4681 -0.3266  0.8112
19567TIP3    H280117   5.565   2.329   5.566 -0.0627  0.8567 -0.3596
19568TIP3   OH280118   2.954   3.711  15.004  0.4993  0.1197  0.4245
19568TIP3    H180119   2.948   3.736  14.911  0.9662 -1.0695  0.0593
19568TIP3    H280120   3.019   3.772  15.040  0.1959  0.6977  0.0138
19569TIP3   OH280121   4.422   0.813   6.226  0.0976  0.2421 -0.1344
19569TIP3    H180122   4.392   0.750   6.293  0.3670 -0.1654 -0.3933
19569TIP3    H280123   4.360   0.886   6.232 -1.4866 -0.9486 -1.2309
19570TIP3   OH280124   6.338   0.354   0.005  0.5065 -0.4134  0.4249
19570TIP3    H180125   6.360   0.420  -0.061 -0.1446 -0.7341 -0.1237
19570TIP3    H280126   6.277   0.399   0.064  3.2000  0.7822  2.5077
19571TIP3   OH280127   3.629   0.516   0.057  0.0417 -0.6430  0.0524
19571TIP3    H180128   3.573   0.470  -0.006  0.1880  0.9604 -1.3308
19571TIP3    H280129   3.641   0.603   0.019  1.4231 -0.1188  1.5661
19572TIP3   OH280130   4.579   0.099  11.468 -0.6475 -0.3920 -0.2780
19572TIP3    H180131   4.653   0.108  11.409 -1.3348 -1.1597 -1.2920
19572TIP3    H280132   4.509   0.151  11.428 -0.9555 -0.4820  0.1360
19573TIP3   OH280133   5.147   0.780   2.227 -0.2659  0.1712  0.3067
19573TIP3    H180134   5.198   0.857   2.250 -1.8139  0.6549  2.4014
19573TIP3    H280135   5.094   0.807   2.152  1.1711  0.2218 -0.7335
19574TIP3   OH280136   4.069   3.907  13.566 -0.0964 -0.0719 -0.2683
19574TIP3    H180137   4.155   3.893  13.606  0.5355  1.6151 -0.9383
19574TIP3    H280138   4.082   3.886  13.473 -0.7044 -0.8299 -0.1930
19575TIP3   OH280139   0.556   4.485   2.345  0.0951 -0.2823  0.3978
19575TIP3    H180140   0.615   4.516   2.276 -0.2810 -0.1322  0.1371
19575TIP3    H280141   0.529   4.398   2.316  0.8115 -0.6871  0.9151
19576TIP3   OH280142   6.677   5.557  16.195  0.1349  0.3441  0.3808
19576TIP3    H180143   6.593   5.590  16.227 -0.7575  1.8249 -2.9849
19576TIP3    H280144   6.742   5.590  16.258 -1.5320  1.8353  1.4063
19577TIP3   OH280145   0.054   4.929  11.225 -0.1966 -0.0252 -0.3089
19577TIP3    H180146   0.092   4.854  11.273  0.9142  0.6722 -0.0554
19577TIP3    H280147   0.019   4.986  11.294  2.9059  1.8097 -0.0598
19578TIP3   OH280148   1.728   1.118   5.973 -0.1417  0.2211 -0.5530
19578TIP3    H180149   1.762   1.138   6.060 -0.7919 -1.2232  0.0582
19578TIP3    H280150   1.639   1.154   5.973 -0.1254  0.2607 -0.6340
19579TIP3   OH280151   3.584   3.471   5.714  0.1366  0.2285 -0.0495
19579TIP3    H180152   3.623   3.453   5.629  0.0183  0.4162 -0.1453
19579TIP3    H280153   3.644   3.432   5.778 -0.0193 -0.3338 -0.2419
19580TIP3   OH280154   3.294   2.878   4.277  0.4321 -0.3822 -0.0388
19580TIP3    H180155   3.267   2.792   4.310 -0.3861 -0.4360 -0.8110
19580TIP3    H280156   3.389   2.870   4.266  0.4743 -0.9192  0.6493
19581TIP3   OH280157   0.726   4.134  16.763 -0.2033 -0.1363 -0.1779
19581TIP3    H180158   0.725   4.051  16.716  0.2646  0.0752 -0.5781
19581TIP3    H280159   0.654   4.128  16.825  0.0594 -0.9832  0.0499
19582TIP3   OH280160   5.244   5.597   2.434  0.4778 -0.2598 -0.3892
19582TIP3    H180161   5.326   5.629   2.396  1.0477 -1.5870 -0.3322
19582TIP3    H280162   5.261   5.595   2.528  0.0345  0.3613 -0.2886
19583TIP3   OH280163   3.971   1.605   1.037 -0.2493  0.7376  0.0924
19583TIP3    H180164   3.953   1.514   1.062  1.0507  0.5272  0.3664
19583TIP3    H280165   3.979   1.603   0.942 -0.7358  0.6576  0.0555
19584TIP3   OH280166   2.395   6.720  16.998 -0.0876 -0.3209  0.6731
19584TIP3    H180167   2.461   6.662  17.037  1.0329 -0.2972 -1.0844
19584TIP3    H280168   2.360   6.670  16.924  1.4509  1.4367 -1.3752
19585TIP3   OH280169   4.327   6.092  16.176 -0.0025 -0.0075  0.4013
19585TIP3    H180170   4.372   6.019  16.132  0.0880 -0.1278  0.6951
19585TIP3    H280171   4.395   6.158  16.188  0.7510 -1.1568  3.1157
19586TIP3   OH280172   4.179   4.538  14.803 -0.1516  0.5116 -0.1492
19586TIP3    H180173   4.252   4.599  14.793  0.8545 -0.1437  2.6146
19586TIP3    H280174   4.120   4.581  14.864 -0.7967 -0.1246 -0.3053
19587TIP3   OH280175   2.947   3.123   0.748 -0.4941 -0.1774  0.2455
19587TIP3    H180176   2.924   3.097   0.659 -1.0101 -2.4362  0.9546
19587TIP3    H280177   2.872   3.094   0.801 -0.5870  1.8794  1.3468
19588TIP3   OH280178   6.737   4.394  13.539  0.4467 -0.3954 -0.1353
19588TIP3    H180179   6.792   4.435  13.473  2.5736 -0.6845  1.3391
19588TIP3    H280180   6.776   4.421  13.623 -1.1255 -1.3609  0.9707
19589TIP3   OH280181   3.296   2.397  12.291 -0.5738 -0.4498 -0.1504
19589TIP3    H180182   3.348   2.321  12.266 -2.6682 -1.7830 -0.6880
19589TIP3    H280183   3.270   2.437  12.208  0.2049  0.6944  0.1199
19590TIP3   OH280184   3.594   6.714   3.786  0.1501  0.1142  0.1968
19590TIP3    H180185   3.683   6.751   3.787  0.2180 -0.0519  0.2658
19590TIP3    H280186   3.546   6.770   3.725  1.2901 -2.0615 -2.9341
19591TIP3   OH280187   2.758   3.130  14.268 -0.1299 -0.4056 -0.3400
19591TIP3    H180188   2.852   3.151  14.267  0.0728 -0.2812  3.8970
19591TIP3    H280189   2.753   3.041  14.234  1.7446 -0.9475  0.6777
19592TIP3   OH280190   6.347   0.636   6.016 -0.3173 -0.2786  0.6574
19592TIP3    H180191   6.411   0.565   6.024 -0.7490 -0.6185  1.1634
19592TIP3    H280192   6.267   0.601   6.056 -0.7741  0.1998  0.1797
19593TIP3   OH280193   0.464   4.555  16.150  0.5177 -0.4112 -0.7263
19593TIP3    H180194   0.392   4.618  16.152 -0.9734 -1.9848 -1.8629
19593TIP3    H280195   0.463   4.514  16.237  0.5716  0.1333 -0.4673
19594TIP3   OH280196   2.737   5.574   3.126  0.1386  0.2695  0.3808
19594TIP3    H180197   2.800   5.506   3.150  0.0448 -0.0301 -0.1976
19594TIP3    H280198   2.763   5.651   3.177  1.1386  0.2277 -0.0548
19595TIP3   OH280199   6.222   2.567   6.532 -0.1535  0.3378 -0.0730
19595TIP3    H180200   6.220   2.662   6.542 -1.4891  0.3245 -0.0718
19595TIP3    H280201   6.131   2.542   6.516  0.4377 -0.7179 -2.2131
19596TIP3   OH280202   6.646   0.878  14.536  0.0429 -0.7753 -0.6861
19596TIP3    H180203   6.693   0.832  14.467 -0.5868 -3.4683  0.5450
19596TIP3    H280204   6.635   0.813  14.605 -0.1202  1.5451  1.6282
19597TIP3   OH280205   0.338   0.055   6.270 -0.0387  0.6122 -0.4669
19597TIP3    H180206   0.290   0.136   6.256  0.2935  0.9285  0.1893
19597TIP3    H280207   0.428   0.083   6.288  0.9608 -0.0145 -3.7589
19598TIP3   OH280208   5.804   1.766  11.457  0.0255 -0.4155  0.1475
19598TIP3    H180209   5.783   1.838  11.516  2.6166  0.1640  0.4758
19598TIP3    H280210   5.730   1.762  11.396 -2.3853 -0.5143  2.8460
19599TIP3   OH280211   4.948   3.789  14.339 -0.3940  0.0627 -0.2157
19599TIP3    H180212   4.928   3.769  14.248 -0.0091  0.3443 -0.3668
19599TIP3    H280213   4.945   3.704  14.383  0.9637 -0.3240 -0.8031
19600TIP3   OH280214   2.093   2.208  15.860  0.4060 -0.6134 -0.3010
19600TIP3    H180215   2.152   2.148  15.906 -0.3414 -0.7377  0.5296
19600TIP3    H280216   2.047   2.254  15.931  1.1325  1.1151 -0.9016
19601TIP3   OH280217   1.843   2.239   0.783  0.2846  0.3812 -0.6008
19601TIP3    H180218   1.928   2.222   0.742  0.5229 -1.4228  0.5518
19601TIP3    H280219   1.839   2.179   0.857 -1.2569  1.6730  0.4531
19602TIP3   OH280220   5.635   3.490  15.771 -0.1037  0.0984  0.3886
19602TIP3    H180221   5.644   3.536  15.854  3.6138  2.2842 -0.9699
19602TIP3    H280222   5.689   3.411  15.781 -0.9269 -0.4680  0.4939
19603TIP3   OH280223   3.695   5.187   1.490  0.4288  0.6939  0.2224
19603TIP3    H180224   3.746   5.252   1.538  1.0956 -1.3738  2.5869
19603TIP3    H280225   3.736   5.103   1.514 -1.6227 -0.7549 -1.0226
19604TIP3   OH280226   4.299   6.082  17.135  0.6583 -0.1046 -0.3856
19604TIP3    H180227   4.317   6.045  17.222 -1.1613 -0.5116 -0.1428
19604TIP3    H280228   4.300   6.177  17.149  1.3214 -0.1417 -0.1339
19605TIP3   OH280229   0.020   1.456  11.343 -0.1291  0.3481  0.2662
19605TIP3    H180230   0.029   1.430  11.434 -1.9815 -0.2447  0.3241
19605TIP3    H280231  -0.074   1.468  11.330 -0.0214 -0.5143 -1.7926
19606TIP3   OH280232   5.817   2.681  15.393 -0.3164 -0.1731  0.4746
19606TIP3    H180233   5.827   2.701  15.486  1.2349 -0.6065  0.4325
19606TIP3    H280234   5.859   2.754  15.348 -2.1323  0.6646  0.0291
19607TIP3   OH280235   0.171   2.050   2.367  0.3482 -0.7182  0.9189
19607TIP3    H180236   0.231   1.991   2.414  2.9722  0.8079 -0.2545
19607TIP3    H280237   0.209   2.056   2.279 -1.6946  0.2311  0.0602
19608TIP3   OH280238   5.794   0.746   4.131  0.1510 -0.1006 -0.1742
19608TIP3    H180239   5.702   0.728   4.115 -0.1802  0.5790  0.8549
19608TIP3    H280240   5.794   0.803   4.208  1.4668 -0.7071  0.2954
19609TIP3   OH280241   2.347   5.814  12.449  0.0145  0.0540 -0.0948
19609TIP3    H180242   2.383   5.752  12.385 -0.7088  0.8738 -1.3549
19609TIP3    H280243   2.258   5.782  12.465 -0.2477  0.5718 -0.4988
19610TIP3   OH280244   3.094   2.100  14.463 -0.0638 -0.7191  0.0596
19610TIP3    H180245   3.143   2.021  14.438 -0.2189 -1.6853  2.5827
19610TIP3    H280246   3.149   2.143  14.528 -0.2047  1.0765 -0.9425
19611TIP3   OH280247   5.046   3.204   4.158 -0.2560 -0.2385  0.1517
19611TIP3    H180248   5.050   3.137   4.227 -1.8889  1.9026  2.5015
19611TIP3    H280249   5.133   3.243   4.157 -0.1307 -0.4731  0.8454
19612TIP3   OH280250   5.926   6.146  11.857  0.7338 -0.0352  0.5047
19612TIP3    H180251   5.916   6.109  11.770  2.8573 -0.1310  0.2520
19612TIP3    H280252   6.016   6.179  11.859 -0.6823  4.6232  0.8944
19613TIP3   OH280253   0.905   0.920  14.755  0.1433  0.0902  0.2915
19613TIP3    H180254   0.846   0.878  14.692  1.2063 -1.0548 -0.0046
19613TIP3    H280255   0.978   0.951  14.701 -0.6377  2.4605  0.5046
19614TIP3   OH280256   2.622   4.854  12.925  0.1981 -0.2738  0.0308
19614TIP3    H180257   2.580   4.932  12.887 -0.1966 -0.9554 -0.9527
19614TIP3    H280258   2.688   4.890  12.985 -0.2029  0.8193 -0.1513
19615TIP3   OH280259   6.092   3.123  13.960 -0.3548  0.0092 -0.0532
19615TIP3    H180260   6.110   3.164  14.044  1.6010 -0.1062 -0.3572
19615TIP3    H280261   6.099   3.194  13.896  0.0622 -0.2413 -0.2924
19616TIP3   OH280262   2.467   5.656   2.158 -0.1844  0.1045 -0.2326
19616TIP3    H180263   2.394   5.604   2.126 -0.7452  0.7568 -0.0375
19616TIP3    H280264   2.469   5.733   2.101 -0.1721  0.4812  0.2648
19617TIP3   OH280265   2.537   2.560   5.287  0.5296 -0.4526 -0.1378
19617TIP3    H180266   2.557   2.471   5.256 -0.3803 -0.7506  0.0926
19617TIP3    H280267   2.600   2.576   5.356  0.1665 -1.2618  0.3928
19618TIP3   OH280268   3.278   5.851  12.925 -0.3088 -0.2579 -0.1148
19618TIP3    H180269   3.281   5.774  12.868 -3.6439  0.0913 -1.0088
19618TIP3    H280270   3.239   5.818  13.006  1.4372 -0.1078  0.8375
19619TIP3   OH280271   3.114   5.619   1.366  0.0082 -0.0851 -0.3101
19619TIP3    H180272   3.151   5.533   1.345  2.5150  1.3685 -2.4112
19619TIP3    H280273   3.039   5.628   1.308  1.5089  0.2332 -2.3232
19620TIP3   OH280274   2.742   5.276   1.444 -0.2176 -0.0713  0.4521
19620TIP3    H180275   2.723   5.368   1.429 -0.6102 -0.4266 -1.4695
19620TIP3    H280276   2.830   5.276   1.484  0.9140  1.0607 -1.8631
19621TIP3   OH280277   6.435   3.572   2.625 -0.7196  0.3944 -0.2088
19621TIP3    H180278   6.491   3.558   2.702  0.0392  1.6393 -0.4978
19621TIP3    H280279   6.454   3.498   2.568  0.2349  0.4954 -0.0530
19622TIP3   OH280280   3.796   5.875  13.887  0.2882  0.2085 -0.0926
19622TIP3    H180281   3.825   5.957  13.847  0.4632  0.2857  0.1934
19622TIP3    H280282   3.876   5.834  13.918  0.0043  0.9017  1.6309
19623TIP3   OH280283   4.260   1.696  13.672  0.5353  0.0205  0.9428
19623TIP3    H180284   4.224   1.766  13.726  0.8901  0.7040  0.3111
19623TIP3    H280285   4.237   1.721  13.582  2.4181  0.4168  0.5230
19624TIP3   OH280286   5.278   6.475   4.526 -0.0671  0.0810  0.2095
19624TIP3    H180287   5.323   6.512   4.450 -0.1405 -0.0741  0.0896
19624TIP3    H280288   5.316   6.388   4.536 -0.9505 -0.3963 -0.4273
19625TIP3   OH280289   1.537   1.184  13.766 -0.0905 -0.3242  0.2436
19625TIP3    H180290   1.484   1.131  13.706 -1.1168  1.6751 -0.7227
19625TIP3    H280291   1.503   1.163  13.853 -1.0052 -0.6447 -0.1792
19626TIP3   OH280292   2.080   4.360   1.941 -0.2042  0.4361  0.0527
19626TIP3    H180293   2.088   4.341   1.847 -1.2631  0.0833  0.0166
19626TIP3    H280294   2.167   4.344   1.976 -0.2922 -1.6740 -0.5091
19627TIP3   OH280295   1.546   3.660   2.816 -0.2142 -0.6517  0.1396
19627TIP3    H180296   1.587   3.673   2.902 -1.0242  0.2273  0.4062
19627TIP3    H280297   1.486   3.586   2.829 -1.0942  0.1237  0.6257
19628TIP3   OH280298   4.157   3.566  12.647 -0.1869  0.4423 -0.5184
19628TIP3    H180299   4.075   3.525  12.676 -0.3189  0.1179 -1.3048
19628TIP3    H280300   4.189   3.508  12.578  0.9353  0.3352  0.0689
19629TIP3   OH280301   4.694   0.922  13.946  0.3308 -0.2185 -0.1367
19629TIP3    H180302   4.671   0.987  14.012 -0.7163 -2.2943  1.6523
19629TIP3    H280303   4.694   0.971  13.863 -1.5578  1.8085  0.9612
19630TIP3   OH280304   2.645   2.110  15.107  0.6315 -0.3745  0.1027
19630TIP3    H180305   2.617   2.044  15.043 -0.5430 -0.6553  0.8581
19630TIP3    H280306   2.626   2.194  15.065 -0.0726 -0.5550  0.0357
19631TIP3   OH280307   0.786   6.303   6.460  0.2068 -0.0207  0.0735
19631TIP3    H180308   0.858   6.301   6.397  0.7758 -1.8184  0.7264
19631TIP3    H280309   0.707   6.307   6.407  0.7113 -0.6666 -0.7392
19632TIP3   OH280310   3.498   1.391  15.908 -0.2065 -0.1224  0.1182
19632TIP3    H180311   3.555   1.399  15.984 -1.2013 -0.5215  0.9443
19632TIP3    H280312   3.549   1.341  15.844 -0.1573 -1.8334  1.4192
19633TIP3   OH280313   6.771   4.362   1.419 -0.6066 -0.8145 -0.2594
19633TIP3    H180314   6.811   4.282   1.386  1.3899  0.2177 -0.4705
19633TIP3    H280315   6.806   4.371   1.508 -0.8435 -0.1918 -0.2264
19634TIP3   OH280316   6.162   5.148  12.778  0.2971  0.1105 -0.0565
19634TIP3    H180317   6.106   5.147  12.855 -0.6684 -2.3296 -0.6915
19634TIP3    H280318   6.102   5.139  12.704  1.2894  1.2566 -1.0377
19635TIP3   OH280319   5.003   3.347   1.982  0.1409 -0.0022  0.1961
19635TIP3    H180320   4.999   3.265   1.934 -0.4284  0.3745 -0.4259
19635TIP3    H280321   5.096   3.363   1.995  0.2423 -1.3474  1.4183
19636TIP3   OH280322   2.939   4.111  11.421  0.0515  0.3381  0.8552
19636TIP3    H180323   2.992   4.082  11.495  1.2750  1.9874  0.6793
19636TIP3    H280324   2.966   4.202  11.407 -2.9533  1.3202  0.8426
19637TIP3   OH280325   6.549   4.862  11.342 -0.6686 -0.0614 -0.4785
19637TIP3    H180326   6.559   4.955  11.325 -4.1593  0.2231 -1.7868
19637TIP3    H280327   6.630   4.837  11.387  0.6887  3.3960 -0.6848
19638TIP3   OH280328   3.852   6.624   4.435  0.1095 -0.3422  0.5381
19638TIP3    H180329   3.906   6.671   4.371  1.1546 -2.1744 -0.0066
19638TIP3    H280330   3.774   6.597   4.385  0.5257 -1.0317  0.2469
19639TIP3   OH280331   0.917   5.310   0.335 -0.5511  0.5832  0.0929
19639TIP3    H180332   0.969   5.390   0.336  1.7883 -0.8445 -0.5818
19639TIP3    H280333   0.932   5.270   0.420 -0.9193  0.3884  0.0681
19640TIP3   OH280334   0.445   4.315   1.166  0.0557  0.4695 -0.3168
19640TIP3    H180335   0.462   4.223   1.186  0.9465  0.9608  1.4047
19640TIP3    H280336   0.411   4.315   1.076 -0.3423 -1.5598 -0.1959
19641TIP3   OH280337   6.013   6.522   2.467  0.0300  0.0557 -0.0018
19641TIP3    H180338   5.929   6.550   2.505  0.0266  0.9394 -0.6313
19641TIP3    H280339   6.038   6.594   2.409  0.6612 -0.7164 -0.7036
19642TIP3   OH280340   4.319   5.885   0.931 -0.1120  0.1769 -0.2567
19642TIP3    H180341   4.410   5.871   0.959 -0.0653  0.1488 -0.4231
19642TIP3    H280342   4.322   5.880   0.836 -0.2867  0.1893 -0.2632
19643TIP3   OH280343   6.732   1.744  10.447 -0.0568  0.0688 -0.7875
19643TIP3    H180344   6.752   1.662  10.493 -0.1250  0.7685  0.5129
19643TIP3    H280345   6.813   1.767  10.402  0.3839  0.0161 -0.0238
19644TIP3   OH280346   1.595   3.378  16.507  0.8398  0.0552 -0.1098
19644TIP3    H180347   1.676   3.362  16.457  0.7935 -0.5479  0.0022
19644TIP3    H280348   1.583   3.473  16.503  0.2652 -0.0402 -2.1681
19645TIP3   OH280349   3.131   1.364   5.152  0.2510 -0.5370 -0.3224
19645TIP3    H180350   3.213   1.333   5.188  0.2142  0.0212  0.2652
19645TIP3    H280351   3.110   1.442   5.204 -1.3045 -1.3949  0.4027
19646TIP3   OH280352   3.575   6.405  16.423 -0.6460  0.0913 -0.0367
19646TIP3    H180353   3.519   6.329  16.409 -0.8517  0.2894 -0.2913
19646TIP3    H280354   3.515   6.476  16.444 -0.3834 -0.0683  1.3323
19647TIP3   OH280355   6.034   1.895   4.890 -0.2933 -0.6128 -0.0931
19647TIP3    H180356   6.066   1.812   4.853 -1.1386 -0.8022 -0.4095
19647TIP3    H280357   5.954   1.914   4.841 -0.1983  0.3030  0.1039
19648TIP3   OH280358   4.080   5.854  12.474 -0.0285 -0.3350  0.0421
19648TIP3    H180359   4.104   5.796  12.546 -1.2935 -1.1356 -0.1575
19648TIP3    H280360   4.068   5.795  12.399  0.7796  0.4296 -0.7118
19649TIP3   OH280361   5.524   4.678   5.220 -0.2801  0.7787 -0.0432
19649TIP3    H180362   5.573   4.757   5.242 -1.3549  1.1030  1.3173
19649TIP3    H280363   5.537   4.620   5.295 -1.1102  0.4543 -0.1398
19650TIP3   OH280364   4.655   0.235  15.393  0.4740  0.3724 -0.2713
19650TIP3    H180365   4.668   0.309  15.333 -0.6824  1.8503  1.2249
19650TIP3    H280366   4.589   0.181  15.351 -1.0048  1.8704  0.0189
19651TIP3   OH280367   5.027   0.677   5.563  0.5119 -0.7259  0.1493
19651TIP3    H180368   5.091   0.647   5.499 -0.3325 -0.5042 -0.8182
19651TIP3    H280369   4.962   0.725   5.512 -0.6952 -1.3650  1.0165
19652TIP3   OH280370   6.627   3.620   1.121 -0.1137 -0.1621 -0.4560
19652TIP3    H180371   6.540   3.659   1.136  0.1143  0.1604  0.0732
19652TIP3    H280372   6.628   3.600   1.028 -1.0138 -0.7953 -0.3513
19653TIP3   OH280373   1.342   6.320  13.470 -0.0320 -0.3766  0.4769
19653TIP3    H180374   1.416   6.271  13.507 -0.3831 -0.8956  0.5035
19653TIP3    H280375   1.331   6.395  13.528  1.0625  0.2259 -0.0459
19654TIP3   OH280376   6.130   4.341  14.516  0.3333 -0.5830  0.2013
19654TIP3    H180377   6.124   4.246  14.502  0.5435 -0.8251  1.5871
19654TIP3    H280378   6.112   4.352  14.609 -2.8509  1.0588 -0.4891
19655TIP3   OH280379   5.929   5.157   1.028 -0.2347  0.5422  0.1048
19655TIP3    H180380   5.986   5.153   1.105  0.3821 -1.3239 -0.3929
19655TIP3    H280381   5.962   5.088   0.970 -0.9587  1.6036 -1.6509
19656TIP3   OH280382   5.853   2.020  13.707 -0.2843  0.6290 -0.3882
19656TIP3    H180383   5.864   1.931  13.674 -0.9554 -0.1589  1.3720
19656TIP3    H280384   5.836   2.073  13.629 -0.5535 -0.8995 -1.4053
19657TIP3   OH280385   5.695   5.420   0.411  0.1821 -0.1756  0.2649
19657TIP3    H180386   5.764   5.463   0.462 -0.1439 -1.1194  1.5606
19657TIP3    H280387   5.617   5.473   0.427  0.4695  0.5998 -0.7922
19658TIP3   OH280388   1.424   1.355   4.194 -0.4516  0.2984 -0.0389
19658TIP3    H180389   1.396   1.379   4.106  1.8032  0.4562 -0.7610
19658TIP3    H280390   1.488   1.422   4.218  0.5368 -0.9354  0.8638
19659TIP3   OH280391   6.452   1.432   4.011  0.4215 -0.0462 -0.0069
19659TIP3    H180392   6.516   1.389   3.954  0.0565 -1.8108  0.8338
19659TIP3    H280393   6.490   1.424   4.099  0.1385  1.0196  0.2215
19660TIP3   OH280394   5.242   0.746  14.463  0.1286  0.2060 -0.8602
19660TIP3    H180395   5.303   0.810  14.426  2.5431 -0.2269  1.9794
19660TIP3    H280396   5.281   0.661  14.446 -0.4182 -0.1911 -0.2157
19661TIP3   OH280397   4.953   1.414   5.518 -0.1339  0.6289  0.3795
19661TIP3    H180398   4.913   1.328   5.529 -0.4995  0.7726  0.1976
19661TIP3    H280399   4.879   1.474   5.509  0.1169  0.8092 -0.5948
19662TIP3   OH280400   0.323   1.855   4.603  0.3917  0.2277  0.1357
19662TIP3    H180401   0.412   1.883   4.579 -0.3342  3.5607  0.9448
19662TIP3    H280402   0.299   1.911   4.677 -1.5829 -2.1874  1.4568
19663TIP3   OH280403   2.617   6.697  17.172  0.0284  0.2771 -0.0390
19663TIP3    H180404   2.660   6.621  17.213  0.7515  0.9861  0.5595
19663TIP3    H280405   2.547   6.720  17.233  1.7504  1.9758  1.4452
19664TIP3   OH280406   5.325   5.498  12.191  0.6478  0.0810 -0.2562
19664TIP3    H180407   5.324   5.426  12.255  1.4545 -0.7528 -1.1332
19664TIP3    H280408   5.234   5.509  12.167  0.4264 -0.1545  0.4304
19665TIP3   OH280409   0.725   0.369   6.281 -0.3910  0.0560  0.3352
19665TIP3    H180410   0.806   0.336   6.240  0.6203  0.1292  2.1739
19665TIP3    H280411   0.669   0.292   6.287  0.1379 -0.3291  0.4161
19666TIP3   OH280412   3.911   1.473   2.465 -0.1420  0.1123 -0.1076
19666TIP3    H180413   3.866   1.390   2.483  0.1215 -0.0821 -0.3422
19666TIP3    H280414   3.990   1.469   2.519  0.4120 -0.2627 -0.9383
19667TIP3   OH280415   2.550   0.162  16.510  0.2380 -0.4612 -0.1269
19667TIP3    H180416   2.535   0.152  16.604  1.1304  1.0720  0.2153
19667TIP3    H280417   2.584   0.251  16.501  1.8142 -1.1679 -1.6944
19668TIP3   OH280418   0.903   0.267  17.214  0.3578  0.4193  0.5250
19668TIP3    H180419   0.954   0.295  17.290  0.3152 -0.2290  0.7963
19668TIP3    H280420   0.851   0.343  17.191 -1.4958 -0.1036  2.6881
19669TIP3   OH280421   5.829   5.367  12.006 -0.1568 -0.1611 -0.5642
19669TIP3    H180422   5.911   5.400  12.044 -1.2669  1.0434  0.8948
19669TIP3    H280423   5.766   5.373  12.077 -1.2899 -2.1380 -1.3275
19670TIP3   OH280424   1.351   4.075  15.494 -0.1628  0.1988 -0.6996
19670TIP3    H180425   1.397   4.012  15.438 -0.8753  0.7880 -2.0144
19670TIP3    H280426   1.410   4.150  15.499  0.9462 -0.7397  1.3519
19671TIP3   OH280427   4.280   4.382  14.257 -0.3587 -0.8032  0.0665
19671TIP3    H180428   4.209   4.444  14.241  0.8420  0.1848 -1.6781
19671TIP3    H280429   4.357   4.437  14.271  0.2813 -1.8823  0.9610
19672TIP3   OH280430   0.927   6.491   0.488  0.2719 -0.5314  0.6541
19672TIP3    H180431   0.927   6.395   0.490 -2.0671 -0.6175 -0.3798
19672TIP3    H280432   1.011   6.513   0.447  0.3551 -2.1994 -0.1877
19673TIP3   OH280433   5.739   2.881   1.482 -0.3172  0.3582 -0.4089
19673TIP3    H180434   5.660   2.891   1.535  0.5158 -1.5187  1.3365
19673TIP3    H280435   5.803   2.938   1.524 -0.0019 -0.2117 -0.0926
19674TIP3   OH280436   6.008   2.594   2.998 -0.0757  0.2720 -0.4414
19674TIP3    H180437   6.010   2.500   3.011  1.0625  0.2063 -0.9508
19674TIP3    H280438   5.987   2.605   2.905  0.1739  0.4986 -0.4738
19675TIP3   OH280439   3.091   5.547   5.082 -0.0640 -0.1881  0.1456
19675TIP3    H180440   3.036   5.546   5.161  0.6761  0.9313  0.6975
19675TIP3    H280441   3.131   5.460   5.080 -0.1421 -0.2501  0.9783
19676TIP3   OH280442   4.755   6.020   5.598  0.1762  0.0540 -0.4331
19676TIP3    H180443   4.665   5.993   5.617 -0.3433  2.0568  0.2014
19676TIP3    H280444   4.776   6.082   5.668  1.5370  0.7169 -1.3965
19677TIP3   OH280445   3.838   4.786  13.155  0.3188 -0.3064  0.5502
19677TIP3    H180446   3.913   4.768  13.212  0.1432 -0.8472  0.6154
19677TIP3    H280447   3.850   4.877  13.129 -1.4713  1.2250  4.3133
19678TIP3   OH280448   5.736   6.055   5.374 -0.3992  0.4126  0.2126
19678TIP3    H180449   5.752   6.032   5.282  2.2248  1.9606  0.1788
19678TIP3    H280450   5.644   6.035   5.388 -1.3894  1.8227 -3.3144
19679TIP3   OH280451   3.486   3.785  12.276  0.2645 -0.3594  0.1785
19679TIP3    H180452   3.573   3.804  12.242 -0.6088 -0.1496 -2.0625
19679TIP3    H280453   3.434   3.760  12.200 -2.2002  1.5724  1.0451
19680TIP3   OH280454   2.683   3.738  13.483 -0.7699  0.3408  0.0357
19680TIP3    H180455   2.763   3.733  13.535  1.0796  0.0477 -2.6417
19680TIP3    H280456   2.684   3.827  13.447 -1.0414 -0.0292 -0.9044
19681TIP3   OH280457   4.367   5.204   4.779 -0.3312  0.2120 -0.1381
19681TIP3    H180458   4.278   5.191   4.745  0.2752 -1.2759 -1.2419
19681TIP3    H280459   4.354   5.228   4.871 -1.8526 -0.5677 -0.1137
19682TIP3   OH280460   5.960   4.691   1.511  0.3147 -0.0168 -0.0289
19682TIP3    H180461   5.991   4.720   1.425 -0.3192 -0.1416 -0.3061
19682TIP3    H280462   5.896   4.757   1.536  0.9596  0.3715  0.6481
19683TIP3   OH280463   3.984   5.366  12.921 -0.1901 -0.6725  0.0513
19683TIP3    H180464   3.922   5.332  12.856 -1.1220  1.2169 -0.1282
19683TIP3    H280465   3.932   5.377  13.000 -0.1688  1.0120 -0.1258
19684TIP3   OH280466   3.237   5.932   3.697 -0.0817  0.1173 -0.0562
19684TIP3    H180467   3.150   5.946   3.734 -0.3223  0.5849 -0.7765
19684TIP3    H280468   3.268   5.852   3.739 -0.7368  0.1093  0.4276
19685TIP3   OH280469   0.024   2.230  16.381 -0.1628 -0.2096  0.0013
19685TIP3    H180470   0.082   2.190  16.316 -0.0584 -0.1507  0.0582
19685TIP3    H280471  -0.016   2.304  16.334  2.8664  2.3452  1.0774
19686TIP3   OH280472   5.931   1.411   5.831 -0.4371 -0.3421  0.0795
19686TIP3    H180473   5.982   1.373   5.759 -0.5825  0.2854 -0.3686
19686TIP3    H280474   5.874   1.340   5.860  0.8625 -1.1435  0.7713
19687TIP3   OH280475   5.172   1.262  16.056  0.2386  0.3575  0.0274
19687TIP3    H180476   5.205   1.313  15.982  1.5810  3.2601  2.3881
19687TIP3    H280477   5.098   1.314  16.089 -1.4629 -1.7724 -0.1842
19688TIP3   OH280478   5.650   5.586  13.625  0.3431  0.1405 -0.0815
19688TIP3    H180479   5.707   5.663  13.623  1.0246 -0.3449  0.1884
19688TIP3    H280480   5.697   5.520  13.573 -1.1168  0.4776 -1.9134
19689TIP3   OH280481   0.044   0.090   6.005  0.2622  0.3745  0.1561
19689TIP3    H180482   0.024   0.184   5.998  1.4110  0.5504 -1.5666
19689TIP3    H280483   0.021   0.055   5.919 -0.7482 -1.0719  0.9863
19690TIP3   OH280484   3.325   0.189   1.180  0.2227  0.2128 -0.1865
19690TIP3    H180485   3.395   0.223   1.124 -0.4292  1.8619 -0.0556
19690TIP3    H280486   3.245   0.202   1.129 -0.2584  0.7214  0.6616
19691TIP3   OH280487   1.050   2.752   2.242 -0.0062 -0.0203 -0.0738
19691TIP3    H180488   1.142   2.759   2.268 -0.4592  1.1193  1.3788
19691TIP3    H280489   1.049   2.777   2.150  1.0404  0.8372  0.1294
19692TIP3   OH280490   4.298   6.376   3.152 -0.0487  0.2084  0.4726
19692TIP3    H180491   4.269   6.438   3.219  0.9589 -0.4530  1.5772
19692TIP3    H280492   4.309   6.429   3.073  0.4300  1.3832  1.2847
19693TIP3   OH280493   2.173   0.665   0.705 -0.3746 -0.1386  0.2199
19693TIP3    H180494   2.131   0.664   0.791  0.6757  1.9389  0.8236
19693TIP3    H280495   2.104   0.692   0.645 -0.5363  0.7423  0.7934
19694TIP3   OH280496   4.624   1.900   2.595  0.2697  0.5787  0.1796
19694TIP3    H180497   4.556   1.853   2.547  0.7660 -0.4249  0.4154
19694TIP3    H280498   4.578   1.965   2.647 -0.5619 -0.4360  0.7380
19695TIP3   OH280499   1.141   3.245   6.315 -0.5430  0.0488  0.2082
19695TIP3    H180500   1.205   3.312   6.339  0.8950 -0.7023 -1.3214
19695TIP3    H280501   1.080   3.243   6.389  0.0324  2.1912  0.8321
19696TIP3   OH280502   1.352   2.304  13.717  0.1320  0.1290 -0.0008
19696TIP3    H180503   1.330   2.359  13.642  0.7321  0.6697  0.2099
19696TIP3    H280504   1.382   2.365  13.784 -0.9735 -0.2880  0.9088
19697TIP3   OH280505   5.057   2.917  16.018 -0.0953 -0.1832 -0.1336
19697TIP3    H180506   5.090   2.943  15.932 -0.0334 -0.6968 -0.2700
19697TIP3    H280507   4.984   2.977  16.035  0.7503  0.8104  0.0667
19698TIP3   OH280508   2.287   2.812   4.172 -0.1463 -0.2152  0.1894
19698TIP3    H180509   2.204   2.783   4.211 -0.1378 -0.3731  0.0919
19698TIP3    H280510   2.280   2.907   4.167 -0.4022 -0.2445 -0.0027
19699TIP3   OH280511   1.030   1.013   4.565  0.0219 -0.2777  0.0770
19699TIP3    H180512   0.973   0.963   4.506 -1.1466 -0.9252  1.6623
19699TIP3    H280513   1.052   0.951   4.635  3.8845 -0.4876 -1.1179
19700TIP3   OH280514   5.987   6.489   2.917  0.2845 -0.5014  0.5030
19700TIP3    H180515   6.022   6.419   2.971  1.1531 -0.5730 -0.1347
19700TIP3    H280516   6.023   6.569   2.956 -0.6208 -0.3932  1.1655
19701TIP3   OH280517   3.803   2.558   0.658 -1.0060 -0.0309  0.2664
19701TIP3    H180518   3.862   2.612   0.711  0.1312 -1.3203  0.3985
19701TIP3    H280519   3.738   2.526   0.720  0.6367 -1.9832  1.1202
19702TIP3   OH280520   2.042   1.459   6.415  0.5149 -0.2311  0.2441
19702TIP3    H180521   2.132   1.429   6.398  0.2992 -1.2055  0.7720
19702TIP3    H280522   1.995   1.380   6.440 -0.4028  0.3464  0.3700
19703TIP3   OH280523   0.889   0.061  15.501  0.1249 -0.2856 -0.1564
19703TIP3    H180524   0.885   0.144  15.453 -0.9419 -0.8753 -1.1343
19703TIP3    H280525   0.902  -0.005  15.433  0.8979 -0.9408  0.6085
19704TIP3   OH280526   1.248   3.983   5.465  0.4098 -0.1003 -0.3443
19704TIP3    H180527   1.275   3.909   5.410  2.2571 -0.2212  0.6390
19704TIP3    H280528   1.281   4.060   5.420  0.4794 -0.0617 -0.2273
19705TIP3   OH280529   6.722   4.819   6.049  0.3151 -0.2304  0.2803
19705TIP3    H180530   6.660   4.871   6.100  0.3388 -0.4590  0.5450
19705TIP3    H280531   6.724   4.861   5.963  0.9103  0.6620  0.7147
19706TIP3   OH280532   1.056   1.010   4.860  0.0465  0.1061  0.6436
19706TIP3    H180533   1.086   1.078   4.799  0.7140  0.5170  1.3999
19706TIP3    H280534   1.134   0.990   4.913 -0.2522 -0.9675  0.7005
19707TIP3   OH280535   4.107   0.715  12.050  0.1917  0.2972 -0.6733
19707TIP3    H180536   4.198   0.733  12.028 -0.5686  0.1843 -4.6360
19707TIP3    H280537   4.108   0.628  12.090  1.7459 -0.0002 -1.3054
19708TIP3   OH280538   2.879   2.276   3.510 -0.3552 -0.6375  0.5503
19708TIP3    H180539   2.893   2.195   3.461 -1.3736 -0.1518 -0.6001
19708TIP3    H280540   2.797   2.311   3.476  0.0999  0.9235  0.9602
19709TIP3   OH280541   5.438   6.700  12.875  0.2938  0.9458 -0.0180
19709TIP3    H180542   5.471   6.680  12.962  2.1649 -1.1072 -1.0932
19709TIP3    H280543   5.509   6.674  12.816 -1.5118  0.7486 -2.2505
19710TIP3   OH280544   2.001   4.469  11.804 -0.5723 -0.1128 -0.1828
19710TIP3    H180545   2.062   4.523  11.755 -1.4022 -1.3476 -2.7832
19710TIP3    H280546   2.028   4.379  11.784 -1.4256 -0.6676  1.0447
19711TIP3   OH280547   3.286   5.580  16.670  0.4797  0.2855 -0.4125
19711TIP3    H180548   3.219   5.638  16.636  0.5551  0.4451 -0.2909
19711TIP3    H280549   3.354   5.579  16.603  0.8666  1.0105 -0.0434
19712TIP3   OH280550   3.416   5.329  10.716 -0.1074 -0.2549 -0.1989
19712TIP3    H180551   3.387   5.258  10.659 -1.5382 -0.9974  1.3818
19712TIP3    H280552   3.383   5.408  10.675 -1.3823 -0.8080 -0.2799
19713TIP3   OH280553   0.036   3.052   1.462 -0.6829  0.5987 -0.0843
19713TIP3    H180554  -0.028   3.068   1.392  0.7816  0.9485 -1.3839
19713TIP3    H280555  -0.015   3.061   1.543 -2.7961 -1.4327 -1.0727
19714TIP3   OH280556   1.324   2.431  12.599  0.0084 -0.4521  0.3004
19714TIP3    H180557   1.368   2.475  12.526 -2.0752 -0.1809 -0.8643
19714TIP3    H280558   1.292   2.502  12.654 -0.8110 -0.5872 -0.0011
19715TIP3   OH280559   1.547   5.735   0.286 -0.2311 -0.5578  0.0188
19715TIP3    H180560   1.615   5.668   0.298  0.2701 -0.0536  0.0159
19715TIP3    H280561   1.548   5.755   0.193  1.2568  1.1396  0.3502
19716TIP3   OH280562   6.432   5.913  15.766  0.1526  0.3085  0.3748
19716TIP3    H180563   6.439   5.819  15.778 -0.1313  0.1719 -0.4673
19716TIP3    H280564   6.497   5.934  15.700 -0.6242  0.5108 -0.3410
19717TIP3   OH280565   3.513   2.444   2.718  0.2391 -0.0823 -0.1581
19717TIP3    H180566   3.558   2.409   2.641  0.4436  0.2207 -0.1788
19717TIP3    H280567   3.569   2.419   2.792  0.6304  0.6024 -0.2178
19718TIP3   OH280568   4.303   5.680  14.935 -0.5763 -0.3290  0.8519
19718TIP3    H180569   4.283   5.685  15.028  1.7142  2.4843  1.3197
19718TIP3    H280570   4.374   5.743  14.922 -1.1919 -0.1957 -2.9121
19719TIP3   OH280571   1.350   0.437  17.116  0.2138 -0.3238  0.3021
19719TIP3    H180572   1.345   0.353  17.162 -1.2912 -0.2698  0.2712
19719TIP3    H280573   1.264   0.448  17.076  0.4732  1.1160  0.0907
19720TIP3   OH280574   1.769   2.397  13.910 -0.0624  0.0842 -0.0720
19720TIP3    H180575   1.742   2.486  13.930 -1.4954  0.2159 -2.2765
19720TIP3    H280576   1.700   2.342  13.947 -0.3230  0.0368 -0.6248
19721TIP3   OH280577   6.262   5.342   5.209  0.2523  0.2312 -0.3454
19721TIP3    H180578   6.251   5.248   5.223  1.6049 -0.0050 -0.7949
19721TIP3    H280579   6.235   5.382   5.292  0.1137 -0.5746  0.0062
19722TIP3   OH280580   0.682   6.096   4.039 -0.8526  0.1333  0.4169
19722TIP3    H180581   0.589   6.098   4.015 -0.2267 -0.6763 -2.3926
19722TIP3    H280582   0.711   6.186   4.034 -1.6270  0.5476  2.2821
19723TIP3   OH280583   0.130   6.089   1.881 -0.4701 -0.1343 -0.7293
19723TIP3    H180584   0.190   6.060   1.811 -1.0125 -0.3251 -1.1190
19723TIP3    H280585   0.062   6.022   1.883 -2.3264  1.5599 -2.3452
19724TIP3   OH280586   0.495   3.251   5.333  0.1169  0.3290  0.1820
19724TIP3    H180587   0.442   3.238   5.255 -0.7733  0.5705  0.7296
19724TIP3    H280588   0.585   3.258   5.301 -0.1179 -0.6271 -0.7116
19725TIP3   OH280589   6.407   3.405  12.455  0.1052  0.1742  0.0062
19725TIP3    H180590   6.384   3.479  12.398  1.2544  0.0028 -0.7107
19725TIP3    H280591   6.403   3.329  12.397  0.2161 -0.1536  0.4309
19726TIP3   OH280592   2.280   4.144  13.553  0.1382  0.6083 -0.0905
19726TIP3    H180593   2.250   4.065  13.597  0.0988  1.3981  1.3565
19726TIP3    H280594   2.338   4.112  13.484 -0.7963 -0.7256 -0.3031
19727TIP3   OH280595   1.447   1.027  15.335 -0.2537  1.0702 -0.3214
19727TIP3    H180596   1.537   0.994  15.340 -0.6479  0.0366  0.5235
19727TIP3    H280597   1.441   1.069  15.249  1.0552  1.2360 -0.3482
19728TIP3   OH280598   6.117   3.991   3.145  0.3051 -0.0367  0.2314
19728TIP3    H180599   6.212   3.988   3.128  0.4540  0.0835  1.0165
19728TIP3    H280600   6.102   4.079   3.178 -0.5785  0.9935 -2.6122
19729TIP3   OH280601   5.535   3.497  16.180  0.0968 -0.2054 -0.3168
19729TIP3    H180602   5.460   3.474  16.236  1.2636  0.5469  1.6843
19729TIP3    H280603   5.605   3.437  16.209  0.5850 -0.1522 -1.3648
19730TIP3   OH280604   6.559   4.328  15.083  0.1061  0.4932  0.4770
19730TIP3    H180605   6.557   4.358  14.992 -3.4695  0.6179  0.4472
19730TIP3    H280606   6.489   4.262  15.087  0.5604  0.0915  3.0041
19731TIP3   OH280607   5.967   0.022  14.444  0.2696 -0.2372 -0.4311
19731TIP3    H180608   5.911  -0.042  14.487 -0.3995 -0.2783 -1.3345
19731TIP3    H280609   6.056  -0.012  14.455  0.0060 -0.8384 -0.1033
19732TIP3   OH280610   6.216   4.276  11.948 -0.1867  0.9807 -0.4643
19732TIP3    H180611   6.261   4.339  12.005 -0.5014  1.8076 -1.1104
19732TIP3    H280612   6.242   4.190  11.982  1.0317  1.4476 -0.1828
19733TIP3   OH280613   3.111   1.026   5.013 -0.4680  0.2917 -0.7172
19733TIP3    H180614   3.125   1.071   5.096 -2.0995 -0.2007 -0.1266
19733TIP3    H280615   3.016   1.027   5.001 -0.2720  0.3403 -2.5893
19734TIP3   OH280616   4.772   2.499   3.978 -0.0536 -0.2854  0.2530
19734TIP3    H180617   4.779   2.505   3.883 -2.2118 -2.1370 -0.1121
19734TIP3    H280618   4.680   2.522   3.996 -0.2443 -1.9709  1.6299
19735TIP3   OH280619   3.582   5.993  14.079  0.5425 -0.1436  0.1423
19735TIP3    H180620   3.660   5.957  14.037 -0.1223  0.1672 -1.4079
19735TIP3    H280621   3.563   6.073  14.031 -0.3737  0.1102  0.9003
19736TIP3   OH280622   3.289   6.230   2.698 -0.3210  0.0334  0.1904
19736TIP3    H180623   3.355   6.198   2.758 -1.4732  0.1429  1.5603
19736TIP3    H280624   3.218   6.261   2.754 -0.1838  3.0162 -1.1031
19737TIP3   OH280625   2.556   5.840   6.073 -0.5379  0.1322 -0.0166
19737TIP3    H180626   2.532   5.769   6.133  1.2125 -1.1463 -0.7316
19737TIP3    H280627   2.646   5.863   6.097 -0.6019  1.1657 -0.7006
19738TIP3   OH280628   1.208   6.668   1.500 -0.3072 -0.1884 -0.4023
19738TIP3    H180629   1.160   6.750   1.499  0.6957  0.4197 -1.6884
19738TIP3    H280630   1.251   6.665   1.415  0.3987 -1.6218 -0.0198
19739TIP3   OH280631   6.051   2.704   1.531 -0.3847  0.1448 -0.2697
19739TIP3    H180632   6.087   2.698   1.620 -1.9191  1.3935  0.4897
19739TIP3    H280633   6.075   2.792   1.502  0.6609 -0.4843 -1.3784
19740TIP3   OH280634   6.220   4.435  16.090  0.3685 -0.1972 -0.0878
19740TIP3    H180635   6.242   4.372  16.020  0.2635 -1.2450  0.7972
19740TIP3    H280636   6.204   4.517  16.043 -2.3155 -1.4543 -1.6458
19741TIP3   OH280637   5.099   0.638  17.171 -0.2853 -0.1414 -0.1482
19741TIP3    H180638   5.124   0.556  17.214 -0.5531 -1.4025 -2.2509
19741TIP3    H280639   5.052   0.687  17.239 -2.4736 -2.8719  0.4888
19742TIP3   OH280640   1.902   3.210   4.675 -0.2789  0.1213  0.0558
19742TIP3    H180641   1.962   3.186   4.605  2.6700  1.3486  1.9810
19742TIP3    H280642   1.865   3.126   4.704  2.8110 -1.1621  0.6875
19743TIP3   OH280643   3.838   5.862   5.705 -0.2787  0.9188 -0.5598
19743TIP3    H180644   3.883   5.785   5.741  0.0305  1.6184  0.5924
19743TIP3    H280645   3.745   5.845   5.720 -0.1570  1.1729  0.5465
19744TIP3   OH280646   6.522   5.090   5.614  0.6181  0.4580 -0.9417
19744TIP3    H180647   6.587   5.123   5.675  0.4340  1.5109 -1.3001
19744TIP3    H280648   6.573   5.056   5.541  0.8048  0.0564 -0.6279
19745TIP3   OH280649   2.094   2.277   5.971 -0.0558  0.2631  0.0535
19745TIP3    H180650   2.171   2.291   6.028 -0.2035  0.5739  0.1774
19745TIP3    H280651   2.129   2.228   5.897 -0.1102 -1.3852  1.0538
19746TIP3   OH280652   5.610   0.412  12.037 -0.0878  0.6573  0.0806
19746TIP3    H180653   5.565   0.447  11.959 -0.6942  1.6431  0.8547
19746TIP3    H280654   5.605   0.317  12.026 -1.7558  0.7489 -0.2255
19747TIP3   OH280655   0.016   6.179  14.150 -0.4338 -0.1686  0.5663
19747TIP3    H180656  -0.005   6.119  14.222  0.8901  0.9704  1.9896
19747TIP3    H280657   0.068   6.127  14.090 -2.9424 -1.6158 -0.5049
19748TIP3   OH280658   2.893   5.079  12.622 -0.0288  0.0080  0.2289
19748TIP3    H180659   2.864   5.072  12.713 -0.5956 -2.5849 -0.0559
19748TIP3    H280660   2.837   5.146  12.583 -0.2997  0.6081  1.5845
19749TIP3   OH280661   5.872   4.319   2.736  0.4583  0.0420 -0.1392
19749TIP3    H180662   5.911   4.307   2.822  1.5538  1.9939 -0.2869
19749TIP3    H280663   5.883   4.413   2.718 -1.9105  0.1537 -1.3868
19750TIP3   OH280664   0.513   2.734   4.526  0.0619 -0.2864 -0.0136
19750TIP3    H180665   0.597   2.768   4.495 -0.4186  1.4058  0.3832
19750TIP3    H280666   0.456   2.811   4.527 -2.4441 -1.8449 -3.2339
19751TIP3   OH280667   6.700   3.035  10.337  0.1590  0.0131  0.3035
19751TIP3    H180668   6.667   3.054  10.425  0.3241 -1.1852  0.6418
19751TIP3    H280669   6.736   3.118  10.306  0.6997  0.2920  1.6379
19752TIP3   OH280670   6.757   1.350  11.907  0.1294 -0.6742 -0.5790
19752TIP3    H180671   6.695   1.280  11.885 -1.5731  0.2278  1.0490
19752TIP3    H280672   6.821   1.308  11.964 -0.4982 -1.0511 -0.1439
19753TIP3   OH280673   4.783   3.791   5.849  0.3075 -0.8608  0.7236
19753TIP3    H180674   4.730   3.851   5.902  1.1755 -0.6786  1.4121
19753TIP3    H280675   4.729   3.772   5.773 -0.2830  0.2193  0.8514
19754TIP3   OH280676   2.127   5.175   2.728 -0.4474 -0.3079  0.3430
19754TIP3    H180677   2.216   5.174   2.764 -0.2095  1.5760 -0.0999
19754TIP3    H280678   2.076   5.223   2.793 -1.6588 -2.9639  1.5432
19755TIP3   OH280679   2.446   1.012  15.635  0.2634  0.2348  0.2163
19755TIP3    H180680   2.535   1.023  15.670  0.2952 -2.2577  1.1040
19755TIP3    H280681   2.459   0.981  15.546  0.2969 -0.1380  0.3489
19756TIP3   OH280682   5.938   2.997  13.744 -0.6293  0.0208  0.3561
19756TIP3    H180683   5.994   3.022  13.817  0.4548 -1.0978 -0.0650
19756TIP3    H280684   5.870   3.065  13.742  0.0324  0.7583  1.6028
19757TIP3   OH280685   5.702   2.252   6.245 -0.3849 -0.4671 -0.4609
19757TIP3    H180686   5.767   2.322   6.248 -1.2259  0.3136 -0.3327
19757TIP3    H280687   5.678   2.237   6.336  0.1216 -1.2450 -0.4463
19758TIP3   OH280688   6.508   6.246   4.569 -1.0254  0.4475 -0.0279
19758TIP3    H180689   6.442   6.305   4.606  0.4841  1.9051  0.4706
19758TIP3    H280690   6.531   6.286   4.485 -0.1374  0.4742  0.2172
19759TIP3   OH280691   4.153   0.514  14.729  0.1923  0.2803  0.2404
19759TIP3    H180692   4.091   0.450  14.763  0.3264  0.4112  0.7478
19759TIP3    H280693   4.232   0.463  14.709  0.7359  0.4450  1.8072
19760TIP3   OH280694   6.603   1.560  15.842  0.2328  0.2219  0.4148
19760TIP3    H180695   6.512   1.568  15.811  0.3670 -0.2182 -0.1062
19760TIP3    H280696   6.656   1.574  15.764  0.5795 -0.8870  0.4278
19761TIP3   OH280697   1.527   5.261   4.776 -0.0948 -0.1220  0.3587
19761TIP3    H180698   1.438   5.257   4.741  0.1555 -2.2103 -0.1897
19761TIP3    H280699   1.548   5.355   4.778 -1.8027  0.3336 -0.7750
19762TIP3   OH280700   1.098   3.322   2.437 -0.0678 -0.0428 -0.1040
19762TIP3    H180701   1.119   3.255   2.371  1.4468 -1.6820  1.8694
19762TIP3    H280702   1.017   3.291   2.477 -1.5067  1.4418 -1.6770
19763TIP3   OH280703   3.422   4.136   0.149  0.5952 -0.3497 -0.0853
19763TIP3    H180704   3.403   4.220   0.108 -0.1439 -0.2432  0.4488
19763TIP3    H280705   3.434   4.075   0.076  0.9099  0.1699 -0.4708
19764TIP3   OH280706   1.484   2.641   6.681 -0.1508  0.2627 -0.2236
19764TIP3    H180707   1.391   2.645   6.701 -0.1472 -0.2617 -0.0638
19764TIP3    H280708   1.500   2.713   6.620 -0.5178  0.8045  0.3071
19765TIP3   OH280709   3.445   4.507   3.295  0.0275 -0.1594 -0.4754
19765TIP3    H180710   3.514   4.537   3.353 -1.8335  1.9836  0.8249
19765TIP3    H280711   3.463   4.551   3.212  0.3182  0.2731 -0.1849
19766TIP3   OH280712   2.626   4.582  11.622 -0.0186 -0.1521 -0.5152
19766TIP3    H180713   2.594   4.618  11.705  1.2127 -0.1422 -0.0318
19766TIP3    H280714   2.717   4.557  11.639 -0.4023 -2.2417 -1.2205
19767TIP3   OH280715   4.859   2.000  14.146 -0.1188  0.5684  0.5643
19767TIP3    H180716   4.767   1.996  14.118  0.3215  0.4334 -0.9392
19767TIP3    H280717   4.879   1.912  14.175 -0.2592  0.4171  0.2064
19768TIP3   OH280718   1.249   4.318   1.876  0.3736 -0.5517 -1.1214
19768TIP3    H180719   1.164   4.299   1.835 -0.6674 -0.2946  0.7577
19768TIP3    H280720   1.235   4.298   1.969  1.8934  1.0387 -0.4946
19769TIP3   OH280721   3.424   2.033  15.727  0.1460 -0.0555 -0.3318
19769TIP3    H180722   3.399   2.057  15.638 -1.5714 -0.4014  0.0180
19769TIP3    H280723   3.515   2.004  15.719  2.0604  5.0783 -1.0050
19770TIP3   OH280724   6.684   0.022   5.745  0.0812  0.1814  0.3938
19770TIP3    H180725   6.761   0.049   5.695  0.1565 -0.2525  0.2706
19770TIP3    H280726   6.643  -0.046   5.691 -0.5061  0.5561  0.3572
19771TIP3   OH280727   0.743   5.054  11.106  0.5509  0.2128  0.2603
19771TIP3    H180728   0.660   5.039  11.060 -0.9448  1.9611  2.1781
19771TIP3    H280729   0.805   5.075  11.037 -1.4127  2.0518 -1.0778
19772TIP3   OH280730   4.059   1.283  13.089  0.1402  0.0282  0.3440
19772TIP3    H180731   3.980   1.337  13.096  0.7775  0.8826  1.4513
19772TIP3    H280732   4.037   1.203  13.136 -0.0541  0.3053  0.7425
19773TIP3   OH280733   1.924   1.869   6.126 -0.2982 -0.1613 -0.0065
19773TIP3    H180734   2.017   1.879   6.104 -0.0610 -2.7447 -0.5008
19773TIP3    H280735   1.882   1.947   6.089  1.2103 -0.6089 -3.0242
19774TIP3   OH280736   1.866   1.366  16.350 -0.0044 -0.3438  0.6153
19774TIP3    H180737   1.794   1.314  16.313  0.6218 -0.0350 -1.1019
19774TIP3    H280738   1.826   1.413  16.424 -1.5535 -0.2283 -0.2644
19775TIP3   OH280739   3.435   4.499  12.476  0.0315 -0.1145  0.4791
19775TIP3    H180740   3.476   4.586  12.474 -0.6946  0.2287 -0.1826
19775TIP3    H280741   3.508   4.438  12.472  0.4691  0.4717 -1.5804
19776TIP3   OH280742   4.056   0.736  12.455 -0.3936 -0.7603 -0.2833
19776TIP3    H180743   4.061   0.828  12.428 -1.3477 -0.8241 -0.7107
19776TIP3    H280744   4.109   0.689  12.391 -0.7828 -0.6316 -0.7066
19777TIP3   OH280745   2.476   1.792  16.675  0.4431 -0.0810  0.6879
19777TIP3    H180746   2.436   1.773  16.590  0.8534  3.1440 -0.3771
19777TIP3    H280747   2.445   1.880  16.696  2.6224  0.3243  2.4964
19778TIP3   OH280748   2.863   3.114   1.130 -0.0740  0.5856 -0.6991
19778TIP3    H180749   2.912   3.032   1.130 -0.9249  0.0653 -1.6861
19778TIP3    H280750   2.930   3.181   1.144  0.4812 -0.3105  1.4084
19779TIP3   OH280751   4.884   1.265   5.795 -0.0536 -0.2706  0.6207
19779TIP3    H180752   4.931   1.213   5.860  1.8719  1.3693  0.6196
19779TIP3    H280753   4.833   1.327   5.846  0.9815  0.6129  0.6096
19780TIP3   OH280754   1.604   0.552   4.546  0.3882  0.3849  0.7153
19780TIP3    H180755   1.648   0.472   4.515  2.1142  0.6733  2.2520
19780TIP3    H280756   1.550   0.579   4.472  0.4895 -1.6778 -0.1861
19781TIP3   OH280757   1.301   6.495   3.249  0.3098 -0.4191  0.2830
19781TIP3    H180758   1.328   6.580   3.215  0.6982  0.1358  1.9037
19781TIP3    H280759   1.383   6.448   3.266  0.2099 -0.0545  1.9458
19782TIP3   OH280760   1.680   3.383   3.447 -0.6115 -0.0649 -0.0740
19782TIP3    H180761   1.671   3.356   3.355 -0.5989 -1.2742  0.2679
19782TIP3    H280762   1.613   3.451   3.458  0.4392  1.2623 -1.3852
19783TIP3   OH280763   4.701   5.676  12.681  0.0551 -0.5467  0.3299
19783TIP3    H180764   4.756   5.716  12.748 -0.0766 -1.1242  0.7911
19783TIP3    H280765   4.741   5.590  12.664  0.3358 -0.2338 -0.6458
19784TIP3   OH280766   1.036   2.411   3.476 -0.1269  0.4136  0.6722
19784TIP3    H180767   0.975   2.417   3.549 -2.7135 -2.1169 -1.0518
19784TIP3    H280768   1.117   2.378   3.515 -0.8355  0.8807  2.6356
19785TIP3   OH280769   5.210   2.177  11.580 -0.4606  0.4113 -0.3895
19785TIP3    H180770   5.211   2.131  11.663  1.4597 -3.0929 -2.1384
19785TIP3    H280771   5.296   2.220  11.575  0.6783 -1.8325 -1.6431
19786TIP3   OH280772   5.588   0.508   1.189  0.3166 -0.6525  0.1800
19786TIP3    H180773   5.675   0.547   1.188  0.2136 -0.3048  1.8466
19786TIP3    H280774   5.532   0.571   1.144  0.8415 -0.7114 -0.5760
19787TIP3   OH280775   6.499   1.277  12.198  0.4842  0.1077  0.0942
19787TIP3    H180776   6.571   1.338  12.212 -0.1318  0.6785  0.8298
19787TIP3    H280777   6.461   1.304  12.114 -0.0914  1.0638  0.6506
19788TIP3   OH280778   0.913   0.026   4.661 -0.9485  0.2291 -0.0634
19788TIP3    H180779   0.908   0.116   4.627 -0.5819 -0.0822 -0.9939
19788TIP3    H280780   0.825  -0.009   4.649 -0.8917  0.2123 -0.4438
19789TIP3   OH280781   6.211   2.050   5.374  0.2351 -0.2390 -0.0076
19789TIP3    H180782   6.152   2.125   5.378 -1.2035 -1.3231 -0.1073
19789TIP3    H280783   6.273   2.065   5.445 -3.0594 -1.3787  3.4760
19790TIP3   OH280784   4.984   1.839   5.695 -0.2294  0.7633 -0.4319
19790TIP3    H180785   4.966   1.921   5.649 -1.0538  1.1736  0.5959
19790TIP3    H280786   4.898   1.802   5.714 -0.0486  1.5948  2.5080
19791TIP3   OH280787   0.830   3.262  15.843 -0.0161 -0.3158  0.3868
19791TIP3    H180788   0.737   3.285  15.841  0.2942  1.1338 -2.1981
19791TIP3    H280789   0.875   3.345  15.860  0.8591 -0.4707 -0.9927
19792TIP3   OH280790   4.443   6.291   1.643  0.2034 -0.1021  0.5511
19792TIP3    H180791   4.457   6.283   1.737 -0.5989 -0.6604  0.6316
19792TIP3    H280792   4.353   6.323   1.635  0.0860 -0.5558 -0.0285
19793TIP3   OH280793   0.134   6.068   3.896  0.6355  0.0629 -0.1587
19793TIP3    H180794   0.215   6.098   3.937  0.0720  1.0313  0.2817
19793TIP3    H280795   0.067   6.080   3.963  0.0407 -0.2864 -0.6762
19794TIP3   OH280796   1.129   4.493  14.616 -0.2260 -0.0450 -0.1884
19794TIP3    H180797   1.097   4.466  14.530 -1.7345 -3.3695  1.2612
19794TIP3    H280798   1.052   4.527  14.661  0.4287  1.1336  0.0907
19795TIP3   OH280799   2.509   5.443  13.073 -0.3592  0.0982  0.1663
19795TIP3    H180800   2.496   5.442  12.979  1.2174 -0.7011 -0.0738
19795TIP3    H280801   2.604   5.434  13.084 -0.6812 -1.8532  1.8570
19796TIP3   OH280802   5.061   4.199  11.294 -0.2027  0.7729 -0.5702
19796TIP3    H180803   5.112   4.139  11.239 -1.8195 -0.6313 -0.5916
19796TIP3    H280804   5.002   4.243  11.233 -1.1372  0.1270 -0.1412
19797TIP3   OH280805   3.050   4.695   3.063  0.3516 -0.2100 -0.5517
19797TIP3    H180806   2.978   4.736   3.015  1.2635 -0.9521 -2.6914
19797TIP3    H280807   3.118   4.763   3.068 -0.2852  0.3469  1.0756
19798TIP3   OH280808   2.679   1.202   5.381 -0.4308 -0.3363 -0.1309
19798TIP3    H180809   2.659   1.283   5.429  1.2033 -0.2493  0.4694
19798TIP3    H280810   2.743   1.229   5.315  0.3622 -1.1770  0.2703
19799TIP3   OH280811   1.197   1.815   0.711 -0.5327  0.2467 -0.1344
19799TIP3    H180812   1.243   1.881   0.660  2.6625 -2.6042 -1.3727
19799TIP3    H280813   1.243   1.812   0.795 -0.6718 -0.3258 -0.0710
19800TIP3   OH280814   5.666   0.771   4.779  0.1533 -0.3256 -0.3209
19800TIP3    H180815   5.619   0.703   4.827  0.6844  0.0618  0.7801
19800TIP3    H280816   5.736   0.725   4.733  0.7614 -0.4794  0.7492
19801TIP3   OH280817   1.112   6.468   3.008  0.3892 -0.3816 -0.4310
19801TIP3    H180818   1.158   6.532   3.063  2.9696 -0.5650 -2.1769
19801TIP3    H280819   1.070   6.521   2.940  0.1610 -0.3701 -0.2809
19802TIP3   OH280820   4.476   0.122  17.056  0.3428 -0.3190  0.1793
19802TIP3    H180821   4.485   0.172  17.137 -0.9326 -0.6980  0.5757
19802TIP3    H280822   4.384   0.131  17.033  0.7402  0.0190 -1.3970
19803TIP3   OH280823   4.665   5.125   2.809 -0.2099 -0.0556  0.1579
19803TIP3    H180824   4.632   5.173   2.733  2.5315  0.5681 -0.7511
19803TIP3    H280825   4.733   5.068   2.774  1.5525  0.6714  2.1680
19804TIP3   OH280826   5.743   3.989   4.663 -0.5491  0.1468  0.8709
19804TIP3    H180827   5.765   4.057   4.600 -0.9249  0.1865  0.7791
19804TIP3    H280828   5.655   3.960   4.637  0.3832 -1.8061 -0.3708
19805TIP3   OH280829   2.601   1.217   1.025  0.6418  0.8256  0.4396
19805TIP3    H180830   2.594   1.285   1.092  0.6706  2.2294 -0.9135
19805TIP3    H280831   2.528   1.158   1.042  0.5257  1.2687  1.5504
19806TIP3   OH280832   5.012   0.880   1.793 -0.3386 -0.0010  0.0680
19806TIP3    H180833   4.925   0.848   1.767 -0.0149 -0.9472  0.1104
19806TIP3    H280834   5.036   0.943   1.726 -0.1797 -1.2608 -1.1058
19807TIP3   OH280835   6.516   3.536  11.875 -0.0390 -0.2692  0.0193
19807TIP3    H180836   6.424   3.521  11.896  0.1739  0.0150  1.2258
19807TIP3    H280837   6.562   3.464  11.918  0.4187  0.3547  0.5922
19808TIP3   OH280838   2.918   4.798  13.806  0.3308 -0.4274 -0.3245
19808TIP3    H180839   2.977   4.822  13.734  0.7616  1.0064  0.4682
19808TIP3    H280840   2.830   4.816  13.773  0.5951  1.5593 -0.0600
19809TIP3   OH280841   6.387   3.946   5.568  0.3510  0.2051 -0.0911
19809TIP3    H180842   6.390   3.995   5.650 -0.7312  2.0582 -1.1025
19809TIP3    H280843   6.318   3.881   5.581  0.8913 -0.2087  0.7999
19810TIP3   OH280844   5.933   0.985   3.432 -0.5968 -0.3929 -0.1589
19810TIP3    H180845   5.864   1.011   3.372  0.0410  0.6366 -0.4809
19810TIP3    H280846   5.977   0.912   3.389 -0.0424  0.4386 -1.0413
19811TIP3   OH280847   4.326   3.388  11.611  0.1888  0.4931  0.4465
19811TIP3    H180848   4.318   3.456  11.677  1.7246  1.1959 -0.0382
19811TIP3    H280849   4.419   3.389  11.586  0.1286 -1.3588 -0.0234
19812TIP3   OH280850   5.758   3.864  16.465 -0.9018  0.3659  0.0118
19812TIP3    H180851   5.801   3.903  16.389 -0.0895 -0.7568 -0.1268
19812TIP3    H280852   5.798   3.777  16.474 -3.6840 -1.1178 -0.6157
19813TIP3   OH280853   4.271   6.706  14.574  0.8336 -0.5587  0.0699
19813TIP3    H180854   4.342   6.753  14.618  0.2809 -0.2771  0.6852
19813TIP3    H280855   4.231   6.771  14.516 -0.0039 -0.2116  1.0051
19814TIP3   OH280856   5.169   3.963  13.538 -0.2491 -0.3973  0.2066
19814TIP3    H180857   5.264   3.968  13.529 -0.0526 -2.1636  0.8824
19814TIP3    H280858   5.140   3.911  13.463 -0.5063 -0.9692  0.6853
19815TIP3   OH280859   2.518   3.121   2.192 -0.1564 -0.0349 -0.2327
19815TIP3    H180860   2.511   3.026   2.199 -2.4104  0.1459  0.9528
19815TIP3    H280861   2.583   3.136   2.124  1.0413 -2.3998  0.2899
19816TIP3   OH280862   0.970   2.921   1.196 -0.9522  0.2832 -0.2193
19816TIP3    H180863   0.889   2.873   1.178 -1.4277  0.9080  0.1924
19816TIP3    H280864   1.019   2.916   1.114 -0.9506 -0.9560 -0.1627
19817TIP3   OH280865   2.246   2.338  12.075 -0.2852  0.3871 -0.4582
19817TIP3    H180866   2.151   2.339  12.063 -0.3766 -0.5553  0.0688
19817TIP3    H280867   2.271   2.247  12.059  0.4301  0.4723  0.1179
19818TIP3   OH280868   4.676   0.540   4.951  0.1504 -0.3921 -0.4080
19818TIP3    H180869   4.702   0.592   4.875  1.1991 -0.2999 -0.0055
19818TIP3    H280870   4.730   0.573   5.023 -0.5545 -0.7322  0.3002
19819TIP3   OH280871   2.363   4.244  12.947 -0.1486  0.0273  0.7368
19819TIP3    H180872   2.384   4.301  12.872 -1.5029  1.3634  1.3235
19819TIP3    H280873   2.411   4.283  13.020 -0.9431  0.3331  1.1043
19820TIP3   OH280874   5.358   3.598  13.389 -0.3915  0.0201  0.2214
19820TIP3    H180875   5.390   3.542  13.460  0.2206 -0.5207 -0.4579
19820TIP3    H280876   5.324   3.536  13.324 -2.4042  0.5709  0.7084
19821TIP3   OH280877   1.398   4.039   0.632  0.2345  0.6578 -0.3908
19821TIP3    H180878   1.385   4.110   0.695 -1.5985 -0.2322  0.3335
19821TIP3    H280879   1.417   3.962   0.686  1.9103  0.4951 -1.1457
19822TIP3   OH280880   0.561   4.219  10.739 -0.2337 -0.7584  0.0029
19822TIP3    H180881   0.500   4.170  10.684 -1.6769 -1.1519  1.8634
19822TIP3    H280882   0.511   4.296  10.767  0.5725 -0.4189  0.5421
19823TIP3   OH280883   1.603   1.788  12.743  0.8210  0.2815 -0.0884
19823TIP3    H180884   1.614   1.705  12.789  2.2302 -0.3896 -1.5476
19823TIP3    H280885   1.534   1.770  12.679 -1.0358  1.1748  1.5195
19824TIP3   OH280886   0.831   2.616  12.357  0.4047 -0.5419  0.5032
19824TIP3    H180887   0.787   2.682  12.304  4.3251  0.6956 -1.6251
19824TIP3    H280888   0.862   2.551  12.293 -0.5772 -2.8409  2.1998
19825TIP3   OH280889   1.025   6.682   5.390  0.6261 -0.3491 -0.6095
19825TIP3    H180890   1.117   6.672   5.415  1.0612  2.5916 -0.7119
19825TIP3    H280891   1.028   6.710   5.298 -0.2055  1.6722 -0.0637
19826TIP3   OH280892   1.065   0.825   2.203  0.1508  0.1673 -0.1037
19826TIP3    H180893   0.971   0.809   2.208  0.0691  0.7475  0.2867
19826TIP3    H280894   1.073   0.909   2.157  0.3680  1.1924  1.7083
19827TIP3   OH280895   2.782   4.786   2.950 -0.1403  1.0311  0.4165
19827TIP3    H180896   2.795   4.858   3.012  0.6520  1.4090 -0.1754
19827TIP3    H280897   2.731   4.824   2.878  1.7998  1.5057 -0.7551
19828TIP3   OH280898   1.880   1.045   3.262  0.3987  0.1067  0.0153
19828TIP3    H180899   1.825   1.043   3.340  0.8168  1.2089  0.3670
19828TIP3    H280900   1.920   1.132   3.264  0.0580  0.3232 -1.6869
19829TIP3   OH280901   3.423   5.915   5.636  0.4254  0.5291  0.5445
19829TIP3    H180902   3.442   5.835   5.685 -0.3869  0.4075  0.6867
19829TIP3    H280903   3.352   5.957   5.686  0.4952  1.0750  0.1927
19830TIP3   OH280904   3.128   6.194  13.210 -0.0972  0.6910 -0.0102
19830TIP3    H180905   3.093   6.169  13.125 -0.5512 -0.0680  0.3952
19830TIP3    H280906   3.212   6.237  13.190 -0.1174  0.3578 -0.8200
19831TIP3   OH280907   2.540   2.858  17.193 -0.2499  0.3279  0.5971
19831TIP3    H180908   2.615   2.892  17.243  0.3008  2.3170 -1.3938
19831TIP3    H280909   2.476   2.833  17.260  1.9391 -1.0008  2.3712
19832TIP3   OH280910   2.828   0.191  13.079 -0.0393  0.0698 -0.2156
19832TIP3    H180911   2.872   0.135  13.143  0.9345  1.8305  0.7304
19832TIP3    H280912   2.899   0.236  13.034 -0.7964  0.6456 -0.8599
19833TIP3   OH280913   0.183   4.363   3.535 -0.3229 -0.2635  0.2927
19833TIP3    H180914   0.182   4.321   3.621  0.3696  0.0292  0.4474
19833TIP3    H280915   0.202   4.455   3.552 -0.9563 -0.0427 -0.1197
19834TIP3   OH280916   2.552   4.166  17.102 -0.0221 -0.3919 -0.1343
19834TIP3    H180917   2.643   4.167  17.073  0.3271  2.2845  0.7541
19834TIP3    H280918   2.517   4.084  17.067  1.7019  0.1444 -3.6245
19835TIP3   OH280919   5.617   6.611  12.113 -0.0262  0.1660  0.1189
19835TIP3    H180920   5.665   6.687  12.144  1.8268 -1.0952  0.5195
19835TIP3    H280921   5.609   6.554  12.189 -1.6676  0.0471 -0.0930
19836TIP3   OH280922   5.955   1.090   0.138 -0.4953  0.0047  0.1578
19836TIP3    H180923   5.926   1.178   0.114  1.9336  0.7795 -0.2167
19836TIP3    H280924   6.008   1.103   0.216 -0.9099 -1.2906  0.6818
19837TIP3   OH280925   4.235   2.598  11.397  0.7030 -0.0743 -0.2092
19837TIP3    H180926   4.205   2.547  11.471 -0.1721 -0.2839 -0.6922
19837TIP3    H280927   4.330   2.608  11.410  0.8650 -1.6952 -0.0452
19838TIP3   OH280928   3.730   3.360   6.259 -0.2853  0.6799  0.2595
19838TIP3    H180929   3.687   3.432   6.304 -2.2232  0.6761 -1.4304
19838TIP3    H280930   3.662   3.293   6.251 -0.9595  1.5601 -4.5913
19839TIP3   OH280931   0.095   0.360   4.020 -0.7613 -0.7601 -0.2942
19839TIP3    H180932   0.017   0.317   4.055 -1.1206 -0.2622 -0.4678
19839TIP3    H280933   0.164   0.337   4.081 -1.0125 -1.3399 -0.2266
19840TIP3   OH280934   1.568   5.481   2.307 -0.4461  0.3272  0.4675
19840TIP3    H180935   1.522   5.408   2.267 -0.7820  0.7163  0.1372
19840TIP3    H280936   1.629   5.511   2.240 -0.6452  0.6528  0.4317
19841TIP3   OH280937   4.461   4.781   5.748 -0.2093  0.2960 -0.2082
19841TIP3    H180938   4.522   4.708   5.737 -0.1397  0.2927  0.1939
19841TIP3    H280939   4.515   4.852   5.782 -0.5703  0.0571  0.9031
19842TIP3   OH280940   4.930   0.526  16.501  0.2508  0.2978 -0.6793
19842TIP3    H180941   4.978   0.552  16.580 -0.0118 -1.3324  0.0571
19842TIP3    H280942   4.982   0.561  16.429  2.9298 -1.8519  0.0459
19843TIP3   OH280943   4.472   6.014  15.887  0.4400  0.1876 -0.2709
19843TIP3    H180944   4.443   6.088  15.834 -0.3163  0.6673  0.7646
19843TIP3    H280945   4.568   6.017  15.881  0.4265 -1.9055 -4.3608
19844TIP3   OH280946   3.973   0.277   3.406  0.3303  0.6930 -0.4465
19844TIP3    H180947   4.042   0.213   3.421 -0.6397 -0.1182  0.7006
19844TIP3    H280948   3.938   0.255   3.320 -0.4834 -0.8131  0.2405
19845TIP3   OH280949   1.520   3.146   0.703 -0.3531  0.0475 -0.0793
19845TIP3    H180950   1.570   3.228   0.696 -0.1371  0.3135  3.2101
19845TIP3    H280951   1.586   3.077   0.697 -0.6588 -0.1123 -4.1174
19846TIP3   OH280952   4.092   3.139  14.779  0.2787  0.4045 -0.5860
19846TIP3    H180953   4.047   3.105  14.702  1.4507  0.7910 -1.4632
19846TIP3    H280954   4.024   3.145  14.846 -0.6357 -0.4881 -1.4116
19847TIP3   OH280955   1.493   6.103   5.854 -0.1146 -0.2986 -0.2684
19847TIP3    H180956   1.479   6.191   5.821  0.3860 -0.1902 -0.2097
19847TIP3    H280957   1.543   6.059   5.785 -1.5914 -0.9892 -0.9233
19848TIP3   OH280958   2.579   4.905   5.331 -0.0460 -0.0911  0.0404
19848TIP3    H180959   2.654   4.963   5.344  0.5959  0.5334 -4.6317
19848TIP3    H280960   2.615   4.817   5.345  1.1007  0.2841 -0.4001
19849TIP3   OH280961   4.401   3.822  14.252 -0.0407 -0.3794 -0.5190
19849TIP3    H180962   4.385   3.846  14.344  0.4131  0.0024 -0.5367
19849TIP3    H280963   4.378   3.730  14.247 -1.1917 -0.1261 -0.2914
19850TIP3   OH280964   6.233   2.960  16.726 -0.0160  0.0351  0.1645
19850TIP3    H180965   6.256   3.051  16.746 -0.6881  0.0536  0.9062
19850TIP3    H280966   6.171   2.935  16.795 -0.9939 -0.5030 -0.8710
19851TIP3   OH280967   5.977   6.086  13.677 -0.3928 -0.2447 -0.0542
19851TIP3    H180968   5.970   6.179  13.657  0.7057 -0.0531  0.3897
19851TIP3    H280969   5.901   6.068  13.733 -1.4061  0.0409 -1.2802
19852TIP3   OH280970   3.294   0.348   3.505 -0.2449  0.2364 -0.7809
19852TIP3    H180971   3.283   0.428   3.454  1.5795  1.8593  1.1607
19852TIP3    H280972   3.298   0.378   3.596 -3.2539 -2.4621  0.4601
19853TIP3   OH280973   4.967   4.527  12.099 -0.1661  0.2880  0.1906
19853TIP3    H180974   4.888   4.563  12.059 -1.9396  0.3137  3.3899
19853TIP3    H280975   5.029   4.599  12.098 -0.4330  0.5459 -1.5727
19854TIP3   OH280976   5.643   5.171   1.043 -0.1832  0.2118 -0.2403
19854TIP3    H180977   5.737   5.189   1.039 -0.2758  1.4825  1.6878
19854TIP3    H280978   5.635   5.077   1.032  1.0520  0.3508 -3.0736
19855TIP3   OH280979   3.123   4.121  15.454  0.4662  0.3494 -0.6752
19855TIP3    H180980   3.073   4.170  15.519  0.6841  0.6401 -0.7242
19855TIP3    H280981   3.201   4.175  15.438 -0.1919  0.9260 -2.1265
19856TIP3   OH280982   3.661   4.710  12.438  0.3846 -0.2294 -0.0172
19856TIP3    H180983   3.734   4.660  12.473  0.9130  0.4085 -0.1843
19856TIP3    H280984   3.695   4.799  12.428 -0.3711  0.0473 -0.2275
19857TIP3   OH280985   1.077   0.717  17.008  0.4026 -0.2092 -0.4720
19857TIP3    H180986   1.120   0.748  17.088  0.7262 -0.6270 -0.4747
19857TIP3    H280987   1.055   0.796  16.959  0.9517  0.0261 -0.3484
19858TIP3   OH280988   3.437   4.063   6.206 -0.6713 -0.1811 -0.1175
19858TIP3    H180989   3.401   4.021   6.128 -0.4415 -1.5845  0.4935
19858TIP3    H280990   3.448   3.991   6.269 -1.2847  0.9702  1.3762
19859TIP3   OH280991   4.807   2.553  13.256 -0.5985 -0.0519  0.5918
19859TIP3    H180992   4.756   2.598  13.189  0.0686  1.0928  0.8228
19859TIP3    H280993   4.759   2.569  13.337 -0.4471  0.1235  0.6495
19860TIP3   OH280994   1.492   4.153   1.951  0.4561 -0.0895  0.2109
19860TIP3    H180995   1.484   4.214   1.878  0.3801 -0.5481 -0.1668
19860TIP3    H280996   1.411   4.166   2.001  1.3146  1.5697  1.2767
19861TIP3   OH280997   2.024   0.921  15.531  0.2785  0.4044  0.2902
19861TIP3    H180998   2.043   1.001  15.482 -0.2391  0.8901  0.8672
19861TIP3    H280999   1.960   0.874  15.477 -0.1557  0.8495  0.4119
19862TIP3   OH281000   6.595   1.511   0.265  0.1092 -0.0464  0.7301
19862TIP3    H181001   6.610   1.605   0.258  1.7010 -0.1930  1.6751
19862TIP3    H281002   6.655   1.471   0.202 -1.1458 -0.4260 -0.2668
19863TIP3   OH281003   5.346   1.137  11.469  0.6698  0.3476  0.1678
19863TIP3    H181004   5.439   1.117  11.478  0.3315 -0.6552  2.2119
19863TIP3    H281005   5.317   1.156  11.558 -0.9107  1.5326 -0.5520
19864TIP3   OH281006   4.606   5.672   1.974  0.0338 -1.0269  0.1956
19864TIP3    H181007   4.666   5.746   1.988 -0.5017 -0.5905  0.2362
19864TIP3    H281008   4.580   5.680   1.882 -2.0380  0.4146  0.8125
19865TIP3   OH281009   5.577   1.753   4.862 -0.1417  0.2521 -0.1547
19865TIP3    H181010   5.560   1.665   4.895 -3.1304  1.1764  1.1444
19865TIP3    H281011   5.656   1.782   4.908  1.0497 -1.8037 -0.8239
19866TIP3   OH281012   1.388   1.907   3.975  0.0050  0.2745 -0.4492
19866TIP3    H181013   1.394   1.840   3.907  4.1269  0.9638 -0.9732
19866TIP3    H281014   1.346   1.981   3.932 -1.0774 -0.6151 -0.9912
19867TIP3   OH281015   1.016   3.002  15.347  0.0159  0.4547 -0.8246
19867TIP3    H181016   1.101   3.013  15.304  0.5740  0.5350  0.2560
19867TIP3    H281017   0.980   2.921  15.311  2.3594 -1.8183  1.5495
19868TIP3   OH281018   5.691   3.109  13.890  0.0828  0.0859  0.0742
19868TIP3    H181019   5.598   3.131  13.902  0.3669  1.1906  0.3942
19868TIP3    H281020   5.728   3.184  13.844  0.6900 -0.6545 -0.6868
19869TIP3   OH281021   3.070   0.173  11.612 -0.0046  0.3394 -0.3737
19869TIP3    H181022   3.089   0.087  11.575  0.7041  1.2172 -2.2173
19869TIP3    H281023   3.149   0.225  11.592 -1.1570  1.9147 -1.0293
19870TIP3   OH281024   1.661   1.580   1.420 -0.4175  0.4153 -0.5425
19870TIP3    H181025   1.662   1.485   1.426  2.3276  0.2407 -2.2706
19870TIP3    H281026   1.690   1.610   1.507 -1.5100 -0.2397  0.0792
19871TIP3   OH281027   3.630   2.691   1.554  0.2272 -0.3984 -0.8193
19871TIP3    H181028   3.554   2.650   1.512  0.6386  0.4669 -2.5108
19871TIP3    H281029   3.604   2.783   1.564 -0.6255 -0.9029  2.7743
19872TIP3   OH281030   6.148   4.029   3.476 -0.5025 -0.3358 -0.1019
19872TIP3    H181031   6.108   4.081   3.407  0.5103  1.6097  0.7176
19872TIP3    H281032   6.230   3.998   3.438  0.6587  1.7686  0.5631
19873TIP3   OH281033   2.093   2.954   2.925 -0.5254 -0.9112 -0.1122
19873TIP3    H181034   2.167   2.967   2.984  0.2612 -0.1128 -1.2457
19873TIP3    H281035   2.097   2.861   2.901  1.1274 -0.5446 -1.4338
19874TIP3   OH281036   1.266   2.817   0.901 -0.1397  0.9022  0.0929
19874TIP3    H181037   1.194   2.879   0.908 -2.2389 -1.5964  3.1634
19874TIP3    H281038   1.226   2.735   0.873  1.9983  0.0384 -0.6971
19875TIP3   OH281039   2.487   6.743   0.948 -0.9112  0.4610  0.2441
19875TIP3    H181040   2.581   6.737   0.931 -1.1576 -0.9686 -0.7324
19875TIP3    H281041   2.446   6.712   0.867 -2.2290  0.6478  0.8203
19876TIP3   OH281042   0.499   2.784   5.123 -0.3822  0.2002  0.1535
19876TIP3    H181043   0.447   2.718   5.168 -0.1450 -0.8964 -1.1125
19876TIP3    H281044   0.448   2.865   5.132 -0.3403  0.0447  2.3321
19877TIP3   OH281045   0.899   0.611   4.472  0.0638  0.2099  0.2646
19877TIP3    H181046   0.874   0.659   4.393 -2.3674 -1.3407  0.0120
19877TIP3    H281047   0.824   0.620   4.531  0.6182 -1.1145  1.2198
19878TIP3   OH281048   1.962   6.189   2.178 -0.3073  0.5215 -0.2708
19878TIP3    H181049   2.011   6.118   2.220  0.4459  0.0397 -1.8673
19878TIP3    H281050   2.022   6.223   2.111 -1.4118  1.3010 -0.8982
19879TIP3   OH281051   3.465   2.827  12.804 -0.4039 -0.6121  0.1170
19879TIP3    H181052   3.481   2.852  12.713  3.2213 -0.4449  0.6833
19879TIP3    H281053   3.440   2.908  12.847  1.4002  0.0774 -0.0698
19880TIP3   OH281054   1.378   4.008  14.702 -0.3855  0.4123 -0.2326
19880TIP3    H181055   1.458   4.009  14.754 -0.4654 -0.9415 -0.0588
19880TIP3    H281056   1.351   4.100  14.698  1.7775  1.0693 -1.2629
19881TIP3   OH281057   5.066   2.927   6.631  0.1928 -1.0484 -0.0410
19881TIP3    H181058   5.061   3.016   6.597 -0.1321 -1.0119  0.0945
19881TIP3    H281059   5.157   2.901   6.619 -0.0587 -1.3003 -1.6067
19882TIP3   OH281060   5.003   3.674   2.833  0.2996  0.5608  0.1927
19882TIP3    H181061   5.051   3.677   2.915 -0.6061  2.3427  0.7009
19882TIP3    H281062   5.042   3.600   2.785  2.7129  1.1911  1.0423
19883TIP3   OH281063   5.159   2.450  12.734  0.1893  0.1675  0.0487
19883TIP3    H181064   5.230   2.412  12.785  0.9096  0.1582 -0.9370
19883TIP3    H281065   5.080   2.413  12.773  0.7880 -0.8581  0.3311
19884TIP3   OH281066   1.693   2.957   0.739  0.2534  0.4850  1.1467
19884TIP3    H181067   1.705   2.864   0.716 -1.0680  0.3975  0.7707
19884TIP3    H281068   1.772   3.000   0.706 -0.4852 -0.0195 -1.5138
19885TIP3   OH281069   2.578   2.647  16.118 -1.2564  0.8535 -0.0729
19885TIP3    H181070   2.594   2.645  16.213  0.9599  3.8630 -0.2308
19885TIP3    H281071   2.659   2.680  16.081 -2.2962  0.4075 -3.0206
19886TIP3   OH281072   3.777   2.467  15.894  0.1333  0.2363 -0.0957
19886TIP3    H181073   3.871   2.478  15.906  0.3293  0.0326 -1.3714
19886TIP3    H281074   3.750   2.412  15.968  1.3822 -1.4457 -0.8071
19887TIP3   OH281075   4.236   4.182  15.072 -0.2052 -0.5136  0.3932
19887TIP3    H181076   4.167   4.205  15.133 -0.0608  0.3748  0.2311
19887TIP3    H281077   4.190   4.163  14.990 -0.1665  2.1657 -0.3404
19888TIP3   OH281078   2.385   5.001   1.152  0.3872  0.5934 -0.1896
19888TIP3    H181079   2.411   4.978   1.241  0.7783  0.9728 -0.2048
19888TIP3    H281080   2.437   4.943   1.096  1.8686  1.9503 -0.2532
19889TIP3   OH281081   0.704   0.865  12.794 -0.3100 -0.8337 -0.4194
19889TIP3    H181082   0.717   0.876  12.700  1.7835 -2.2083 -0.3428
19889TIP3    H281083   0.711   0.954  12.830  1.5954 -0.5847 -1.2883
19890TIP3   OH281084   2.403   1.654  13.714  0.4379 -0.1820  0.2006
19890TIP3    H181085   2.336   1.585  13.707 -0.7811  1.0702 -1.0538
19890TIP3    H281086   2.408   1.673  13.807 -0.1128 -1.1145  0.4356
19891TIP3   OH281087   3.134   3.409  11.344  0.3567 -0.0188  0.6699
19891TIP3    H181088   3.202   3.389  11.408  1.7432 -0.7901 -0.9773
19891TIP3    H281089   3.064   3.346  11.363 -0.7046  1.7899  3.3848
19892TIP3   OH281090   5.384   4.405   4.242 -0.5937 -0.0158  0.2458
19892TIP3    H181091   5.455   4.344   4.223 -0.2473  0.8620 -1.6036
19892TIP3    H281092   5.418   4.490   4.213 -2.1929  0.5111 -0.1944
19893TIP3   OH281093   1.432   1.554   4.995 -0.0314  0.0249 -0.4857
19893TIP3    H181094   1.421   1.459   5.003 -2.2291  0.1411 -1.3820
19893TIP3    H281095   1.431   1.570   4.901  2.2187  0.8161 -0.4459
19894TIP3   OH281096   1.907   5.389   0.114 -0.1886  0.1397 -0.2005
19894TIP3    H181097   1.955   5.426   0.040  0.9932 -0.2926  0.3262
19894TIP3    H281098   1.939   5.299   0.121 -0.1442  0.2295  0.9336
19895TIP3   OH281099   4.087   6.294  11.484  0.5464  0.2995 -0.4948
19895TIP3    H181100   4.132   6.359  11.537 -0.3377  0.1155  0.5255
19895TIP3    H281101   4.034   6.345  11.422 -1.0380  0.6265  1.0518
19896TIP3   OH281102   3.841   4.749  11.992 -0.6408 -0.2737  0.6143
19896TIP3    H181103   3.822   4.808  11.920 -0.6104  0.8878  1.5222
19896TIP3    H281104   3.929   4.775  12.022 -0.4823 -1.0091  0.8086
19897TIP3   OH281105   2.362   5.883   5.088 -0.2369  0.5740 -0.1345
19897TIP3    H181106   2.392   5.931   5.011  1.6704 -0.1496  0.1176
19897TIP3    H281107   2.394   5.794   5.075  0.8871  0.6389  1.8926
19898TIP3   OH281108   6.246   0.530   1.102  0.0633 -0.5582 -0.1177
19898TIP3    H181109   6.253   0.530   1.198 -2.0827  0.4813  0.1021
19898TIP3    H281110   6.183   0.460   1.083  0.6852 -0.9382 -0.8086
19899TIP3   OH281111   3.879   6.525   6.456  0.3385  0.1928 -0.4883
19899TIP3    H181112   3.972   6.512   6.474  0.6712  1.9402 -0.7952
19899TIP3    H281113   3.873   6.616   6.428 -1.6576  0.5121  0.7918
19900TIP3   OH281114   2.510   2.436   6.928  0.0138 -0.2387 -0.4483
19900TIP3    H181115   2.419   2.462   6.940 -0.9782 -2.7891 -1.6912
19900TIP3    H281116   2.512   2.343   6.952  2.3474 -0.2189 -0.3030
19901TIP3   OH281117   5.810   5.297   5.609 -0.6956  0.4243  0.5214
19901TIP3    H181118   5.854   5.227   5.658  1.5958  0.5461 -1.2469
19901TIP3    H281119   5.776   5.355   5.678  1.3113 -0.0554  2.0303
19902TIP3   OH281120   1.360   6.528   1.042 -0.9578  0.2973  0.3007
19902TIP3    H181121   1.364   6.614   1.000 -0.1309  0.8320  1.4325
19902TIP3    H281122   1.441   6.485   1.016 -0.6241  0.4820  1.0080
19903TIP3   OH281123   1.007   4.917  15.904  0.2203 -0.3756 -0.4312
19903TIP3    H181124   1.002   4.870  15.987  2.5491 -0.4543 -0.2493
19903TIP3    H281125   0.916   4.937  15.882 -0.6906 -2.9288  0.6193
19904TIP3   OH281126   0.684   0.863  14.584 -0.1774 -0.0110 -0.0938
19904TIP3    H181127   0.678   0.779  14.630  0.7839 -0.1245 -0.1548
19904TIP3    H281128   0.602   0.907  14.606  0.1961 -0.0941  1.6724
19905TIP3   OH281129   6.466   4.742  12.574  0.3166 -0.2665 -0.4208
19905TIP3    H181130   6.449   4.652  12.547 -0.4050 -0.4298  0.5271
19905TIP3    H281131   6.521   4.734  12.652 -1.7434 -0.0236  1.1541
19906TIP3   OH281132   6.657   5.148  15.935  0.0388 -0.0348  0.5044
19906TIP3    H181133   6.588   5.209  15.909 -0.0748 -0.6615 -0.7134
19906TIP3    H281134   6.716   5.201  15.988  1.1897  1.8006 -2.3672
19907TIP3   OH281135   6.360   6.132   1.105 -0.0873 -0.3651 -0.4032
19907TIP3    H181136   6.371   6.227   1.114 -0.2903 -0.4138  0.4203
19907TIP3    H281137   6.369   6.098   1.194  1.7145 -1.3167 -0.9027
19908TIP3   OH281138   3.798   4.654  14.047  0.1578  0.1466  0.1094
19908TIP3    H181139   3.826   4.704  13.970 -0.3770  0.4889  0.1374
19908TIP3    H281140   3.808   4.563  14.021  0.3325  0.2605 -0.2336
19909TIP3   OH281141   3.146   5.789  15.427  0.2254 -0.1398 -0.5408
19909TIP3    H181142   3.140   5.870  15.376 -1.2534 -0.5827 -1.1221
19909TIP3    H281143   3.063   5.784  15.473  0.1720 -1.4924 -0.7659
19910TIP3   OH281144   6.115   4.410   6.252  0.5865 -0.0778  0.1456
19910TIP3    H181145   6.116   4.363   6.336  0.3909 -3.3809 -1.5499
19910TIP3    H281146   6.205   4.404   6.221  0.3964  0.0267 -0.4260
19911TIP3   OH281147   6.371   2.976  12.763 -0.3860 -0.2785  0.6417
19911TIP3    H181148   6.452   2.979  12.814 -0.7208  1.4042  1.1315
19911TIP3    H281149   6.353   3.067  12.741 -1.3126 -0.7860 -0.8275
19912TIP3   OH281150   0.114   0.106   5.595  0.3839 -0.1591  0.1988
19912TIP3    H181151   0.168   0.052   5.538  0.0381 -0.2861 -0.0134
19912TIP3    H281152   0.054   0.152   5.536 -1.5223 -1.9967  0.5736
19913TIP3   OH281153   5.526   3.189  11.938 -0.2278  0.1778 -0.4196
19913TIP3    H181154   5.586   3.130  11.893  2.1694  1.9898  0.1606
19913TIP3    H281155   5.571   3.213  12.019 -1.7691  1.5939  0.0893
19914TIP3   OH281156   0.211   5.287   5.721  0.2390  0.4146  0.3652
19914TIP3    H181157   0.300   5.308   5.692 -0.2901 -1.1513 -2.7423
19914TIP3    H281158   0.219   5.201   5.762 -0.0839 -0.7637 -1.9022
19915TIP3   OH281159   1.224   0.296   4.536  0.3957 -0.1224 -0.9738
19915TIP3    H181160   1.294   0.341   4.583  0.0119  1.1643 -1.5680
19915TIP3    H281161   1.162   0.366   4.515 -0.1975 -0.9361 -1.9883
19916TIP3   OH281162   2.887   5.706  11.156 -0.2838  0.2488 -0.0110
19916TIP3    H181163   2.926   5.764  11.222  0.8275  0.9000 -1.1789
19916TIP3    H281164   2.796   5.696  11.183  0.2286  0.1672  1.8277
19917TIP3   OH281165   1.948   0.870  14.597 -0.3050 -0.5408  0.0775
19917TIP3    H181166   1.977   0.825  14.517 -0.2519  0.1182 -0.2783
19917TIP3    H281167   1.901   0.803  14.646 -1.0380 -0.7458 -0.8793
19918TIP3   OH281168   1.100   2.578  11.426 -0.2554 -0.3327  0.1368
19918TIP3    H181169   1.157   2.652  11.443  0.3472 -0.7896  0.1292
19918TIP3    H281170   1.076   2.587  11.333 -0.1617 -0.1680  0.1287
19919TIP3   OH281171   3.090   1.454  13.206 -0.0733  0.0294  0.0741
19919TIP3    H181172   3.143   1.431  13.283 -1.3198 -0.6089  0.7765
19919TIP3    H281173   3.149   1.504  13.150  1.3699 -0.9378  0.6727
19920TIP3   OH281174   4.430   3.600   1.424 -0.0755 -0.2863 -0.0207
19920TIP3    H181175   4.370   3.560   1.361 -0.8324 -1.2479  1.2474
19920TIP3    H281176   4.517   3.583   1.389 -0.4573 -1.5415 -0.3993
19921TIP3   OH281177   1.734   1.113   3.486 -0.0500  0.0720  0.0746
19921TIP3    H181178   1.691   1.061   3.554 -0.6018  1.5153  0.8654
19921TIP3    H281179   1.702   1.202   3.499  1.3473  0.7550 -0.8316
19922TIP3   OH281180   5.044   4.048  14.362 -0.1749  0.6847 -0.0390
19922TIP3    H181181   5.008   3.960  14.366  0.4575  0.4549  0.9821
19922TIP3    H281182   5.124   4.038  14.311 -0.6261  0.8654 -0.7925
19923TIP3   OH281183   4.730   5.605  14.502  0.4371 -0.3767  0.0455
19923TIP3    H181184   4.671   5.531  14.517  0.9919 -0.5099  1.7917
19923TIP3    H281185   4.806   5.567  14.458 -0.2363 -0.4092 -1.1375
19924TIP3   OH281186   1.789   6.746  17.053  0.5119 -0.1584 -0.0705
19924TIP3    H181187   1.850   6.673  17.041 -0.4839 -0.8756 -0.9509
19924TIP3    H281188   1.769   6.775  16.964 -1.2638 -0.6564  0.1209
19925TIP3   OH281189   4.408   3.843  16.858  0.6093 -0.3126  0.1106
19925TIP3    H181190   4.316   3.859  16.876  0.1932 -1.7742 -0.5705
19925TIP3    H281191   4.419   3.748  16.868  2.0163 -0.1798  0.1002
19926TIP3   OH281192   2.966   2.050   0.064 -0.1010  0.0452  0.1107
19926TIP3    H181193   2.984   1.988   0.135  3.8759  0.4453 -0.2895
19926TIP3    H281194   2.939   2.131   0.108  0.3668 -0.2966  1.0369
19927TIP3   OH281195   6.270   0.197   4.128  0.2458 -0.3764 -0.3428
19927TIP3    H181196   6.210   0.260   4.167  0.3329  1.3335 -2.7147
19927TIP3    H281197   6.341   0.188   4.191  0.2917  2.0551  0.0337
19928TIP3   OH281198   3.049   1.470  15.586  0.3102 -0.4545 -0.3072
19928TIP3    H181199   3.017   1.529  15.518 -2.7190  1.3282  2.4093
19928TIP3    H281200   2.976   1.411  15.603  0.6975 -0.3813  1.8516
19929TIP3   OH281201   6.706   6.585  11.369 -0.0224  0.8628  0.2591
19929TIP3    H181202   6.768   6.526  11.326  1.4822  1.6871  1.1939
19929TIP3    H281203   6.620   6.548  11.351  0.8467 -1.4439  0.5752
19930TIP3   OH281204   3.519   0.593  16.066  0.2851 -0.1694  0.1380
19930TIP3    H181205   3.543   0.634  16.149 -0.8936 -1.8477  1.3708
19930TIP3    H281206   3.562   0.646  16.000  2.0056  0.6925  1.8633
19931TIP3   OH281207   5.914   0.042   1.012  0.3067 -0.3209  0.0816
19931TIP3    H181208   5.841   0.004   0.962 -1.4595  0.2648  2.0667
19931TIP3    H281209   5.873   0.075   1.092  2.3799  2.2196  0.2279
19932TIP3   OH281210   1.991   2.966  14.647  0.0944 -0.1985 -0.0848
19932TIP3    H181211   1.954   3.054  14.656 -0.9736 -0.5465 -0.8746
19932TIP3    H281212   1.915   2.910  14.633  0.8407 -1.1276 -0.4608
19933TIP3   OH281213   1.712   6.545  15.061  0.3845 -0.1255  0.3069
19933TIP3    H181214   1.655   6.610  15.020  0.0282 -1.3114 -1.2086
19933TIP3    H281215   1.738   6.488  14.988  2.1093 -0.6403  1.2744
19934TIP3   OH281216   4.265   1.094   4.609  1.1792 -0.3717  0.1043
19934TIP3    H181217   4.187   1.101   4.665  0.7236  0.2712 -0.5907
19934TIP3    H281218   4.338   1.109   4.668  0.7318 -0.2478  0.6379
19935TIP3   OH281219   2.307   4.426   1.257 -0.0906 -0.1000  0.4410
19935TIP3    H181220   2.374   4.390   1.315 -0.7566 -1.4750  0.3945
19935TIP3    H281221   2.357   4.461   1.183  0.6036 -0.9574  0.4814
19936TIP3   OH281222   6.640   2.076  11.324  0.0515  0.0179  0.0460
19936TIP3    H181223   6.723   2.031  11.306  0.2414  0.3727  0.0240
19936TIP3    H281224   6.582   2.049  11.254  0.1619 -0.2006  0.0389
19937TIP3   OH281225   3.902   5.202   6.272  0.0373  0.3367  0.4337
19937TIP3    H181226   3.906   5.268   6.203 -1.4986  0.0732  0.0376
19937TIP3    H281227   3.928   5.120   6.229 -1.1823  0.1218  0.0510
19938TIP3   OH281228   0.219   6.399   4.178 -0.1600  0.6950  0.1890
19938TIP3    H181229   0.260   6.324   4.135 -1.0485  0.6271 -0.5724
19938TIP3    H281230   0.170   6.361   4.251 -1.2133  0.4168 -0.6332
19939TIP3   OH281231   1.088   5.394  14.643 -0.6328 -0.1194  0.1814
19939TIP3    H181232   1.103   5.326  14.709 -1.6483 -0.4989  0.0318
19939TIP3    H281233   1.119   5.475  14.684  0.2366 -0.6077  0.5023
19940TIP3   OH281234   4.824   3.986   3.529  0.1638  0.2230 -0.1042
19940TIP3    H181235   4.749   4.014   3.581  0.5381 -1.2878  1.3297
19940TIP3    H281236   4.793   3.908   3.482  1.2746 -1.5211  1.8980
19941TIP3   OH281237   4.936   4.005   5.363  0.6401  0.3571 -0.3858
19941TIP3    H181238   4.962   3.926   5.316 -1.8129 -0.4894 -0.4699
19941TIP3    H281239   4.947   3.982   5.455  1.1134  0.3882 -0.4293
19942TIP3   OH281240   1.778   4.890   3.689  0.7037 -0.0672 -0.2824
19942TIP3    H181241   1.737   4.895   3.603  0.7704 -1.5866 -0.4352
19942TIP3    H281242   1.766   4.977   3.727 -0.9603  0.0925 -1.0886
19943TIP3   OH281243   4.849   3.625   1.142  0.3489  1.1544 -0.1660
19943TIP3    H181244   4.770   3.676   1.124  0.8823  1.7573 -0.8702
19943TIP3    H281245   4.832   3.539   1.101 -1.0904  0.2456  2.1617
19944TIP3   OH281246   2.659   5.879   4.060 -0.0680 -0.3643 -0.0999
19944TIP3    H181247   2.567   5.888   4.037 -0.0533 -0.8171 -0.3353
19944TIP3    H281248   2.677   5.785   4.052  0.7332 -0.1289 -1.2911
19945TIP3   OH281249   4.013   4.542  14.320  0.5171 -0.0363  0.3369
19945TIP3    H181250   4.013   4.489  14.400  1.3658  0.5887  0.7656
19945TIP3    H281251   3.920   4.550  14.297 -0.1953  2.8402  3.3638
19946TIP3   OH281252   4.843   1.820  15.070 -0.1692 -0.1182  0.1610
19946TIP3    H181253   4.880   1.753  15.128  0.7753  0.4578  0.2406
19946TIP3    H281254   4.814   1.890  15.129  0.1332  0.1531 -0.0117
19947TIP3   OH281255   4.737   2.508   6.620 -0.9985 -1.0890  0.4752
19947TIP3    H181256   4.747   2.483   6.712 -1.0532 -0.6895  0.5908
19947TIP3    H281257   4.662   2.567   6.619  1.5319  2.4634  0.9005
19948TIP3   OH281258   6.411   0.348  12.280 -0.5846 -0.1632  0.7339
19948TIP3    H181259   6.344   0.301  12.231  0.7954  0.2513 -1.7154
19948TIP3    H281260   6.486   0.288  12.283  1.1275  1.5615 -2.2616
19949TIP3   OH281261   2.066   3.930  13.121 -0.3523 -0.1476  0.0040
19949TIP3    H181262   2.073   3.931  13.026 -0.5941  1.2213 -0.0229
19949TIP3    H281263   2.149   3.968  13.151 -0.6776  0.3399  0.2946
19950TIP3   OH281264   1.517   3.281   3.922 -0.0341  0.3800 -0.2980
19950TIP3    H181265   1.594   3.318   3.965  0.9219 -0.8182 -0.9031
19950TIP3    H281266   1.544   3.192   3.897 -1.3450  0.2148 -1.2335
19951TIP3   OH281267   2.909   4.961   4.147 -0.2775 -0.0550  0.3798
19951TIP3    H181268   2.868   5.046   4.163 -0.4264 -0.2653  1.1563
19951TIP3    H281269   2.837   4.904   4.121  0.0192  0.3855 -1.5501
19952TIP3   OH281270   0.505   3.089   5.054 -0.4285  0.3820 -0.6870
19952TIP3    H181271   0.532   3.097   4.963 -0.9430  1.3702 -0.7680
19952TIP3    H281272   0.432   3.150   5.063 -2.1557 -1.6397 -0.2822
19953TIP3   OH281273   4.985   6.537   4.170  0.3927  0.2070  0.2633
19953TIP3    H181274   4.945   6.610   4.217 -0.0161  0.4560 -0.4546
19953TIP3    H281275   4.913   6.498   4.121  0.9823  0.6131 -0.9856
19954TIP3   OH281276   1.666   6.648  16.524  0.3505  0.5864 -0.5637
19954TIP3    H181277   1.647   6.574  16.467 -0.5086  0.5874 -0.2976
19954TIP3    H281278   1.761   6.662  16.516  0.7123 -1.2197  0.1879
19955TIP3   OH281279   1.357   1.675  11.331  0.5125 -0.4479 -0.0465
19955TIP3    H181280   1.434   1.720  11.297  0.2030 -0.1663 -0.3798
19955TIP3    H281281   1.318   1.632  11.255 -0.4632  0.5996 -0.1595
19956TIP3   OH281282   2.234   3.922   5.622 -0.3442  0.4518  0.0506
19956TIP3    H181283   2.222   3.986   5.552  0.6048 -1.2784 -1.7819
19956TIP3    H281284   2.145   3.895   5.645 -0.6633 -0.9682 -2.5028
19957TIP3   OH281285   4.966   1.821   0.182 -0.1359 -0.3712  0.1759
19957TIP3    H181286   4.992   1.769   0.259  0.3619  0.2492  0.4404
19957TIP3    H281287   4.990   1.911   0.205  2.9913 -0.4942 -1.8909
19958TIP3   OH281288   5.239   0.696  11.302 -0.2375  0.1270 -0.1725
19958TIP3    H181289   5.175   0.730  11.365 -1.1971 -1.5538 -0.1904
19958TIP3    H281290   5.209   0.729  11.217 -1.4798 -1.1422 -0.2612
19959TIP3   OH281291   3.634   0.481  13.704 -0.0158  0.1423 -0.3317
19959TIP3    H181292   3.709   0.524  13.664 -1.3038  0.0229 -3.1304
19959TIP3    H281293   3.558   0.521  13.662 -1.4749 -1.0364  1.0372
19960TIP3   OH281294   2.732   4.632   5.311 -0.3151 -0.2672  1.0935
19960TIP3    H181295   2.797   4.674   5.367  0.3705 -0.6066  0.5686
19960TIP3    H281296   2.756   4.539   5.312 -0.4625 -0.3166  0.4615
19961TIP3   OH281297   4.023   3.074   1.151 -0.2580 -0.8143 -0.0053
19961TIP3    H181298   4.114   3.072   1.181 -0.4010 -0.8841  0.4346
19961TIP3    H281299   3.982   3.145   1.202 -0.1029  0.1757 -1.2326
19962LIG      O81300   1.917   1.648  15.983  0.5979 -0.1616  0.1754
19962LIG      N81301   1.579   1.947  15.799 -0.0052 -0.1269 -0.1100
19962LIG     C181302   1.843   1.812  16.135  0.1975  0.3669 -0.0655
19962LIG     C281303   1.799   1.718  16.030  0.2588  0.4759 -0.4300
19962LIG     C381304   1.899   1.743  16.271  0.3782  0.0669  0.4238
19962LIG     C481305   1.951   1.919  16.089 -0.5316  0.2358  0.0473
19962LIG     C581306   1.731   1.794  15.910  0.7439  0.0272 -0.2488
19962LIG     C681307   1.939   1.843  16.379 -0.1218 -0.7217  0.7340
19962LIG     C781308   1.991   2.019  16.194  0.3930  1.2956 -0.8701
19962LIG     C881309   2.040   1.937  16.317 -0.9830 -0.2524 -0.7332
19962LIG     C981310   1.623   1.908  15.929  0.1540 -0.6938 -0.1335
19962LIG    C1081311   1.687   1.617  16.095 -0.4663 -0.3350 -0.2818
19962LIG    C1181312   1.432   1.984  15.795  0.3289 -0.1694  0.0902
19962LIG    C1281313   1.665   2.049  15.729  0.2425  0.0227 -0.3950
19962LIG    C1381314   1.410   2.118  15.865 -0.2560 -0.5082  0.6673
19962LIG    C1481315   1.641   2.195  15.778  0.2231  0.5803 -0.4619
19962LIG    C1581316   1.489   2.228  15.791 -0.7671  0.2725 -0.0801
19962LIG    C1681317   1.706   1.479  16.076 -0.4389  0.5165  0.5250
19962LIG    C1781318   1.585   1.666  16.178 -1.1617 -0.3418  0.1959
19962LIG    C1881319   1.618   1.392  16.147 -0.0672 -0.4503 -0.3270
19962LIG    C1981320   1.490   1.584  16.236 -0.1993  0.1978  0.0691
19962LIG    C2081321   1.510   1.441  16.225 -0.3971 -0.0036 -0.4301
19962LIG     H181322   1.759   1.876  16.172  1.0771  0.2236  2.3757
19962LIG     H281323   1.988   1.683  16.243  0.2575  0.5357 -1.0642
19962LIG     H381324   1.825   1.675  16.318 -0.5325  0.5665 -0.2469
19962LIG     H481325   1.918   1.968  15.995  1.4634 -0.4522 -1.0789
19962LIG     H581326   2.040   1.858  16.064 -1.7648 -2.2983  1.4018
19962LIG     H681327   1.682   1.714  15.850 -0.8413  0.5628  0.2970
19962LIG     H781328   1.809   1.838  15.844 -0.9658  1.9926 -1.0737
19962LIG     H881329   1.969   1.774  16.460  0.2255 -0.2888  0.9788
19962LIG     H981330   1.856   1.910  16.409 -1.6982 -0.5126 -3.3716
19962LIG    H1081331   1.910   2.083  16.234 -0.0604 -1.0758  2.3638
19962LIG    H1181332   2.066   2.091  16.154  1.0986  0.3517 -1.3203
19962LIG    H1281333   2.128   1.876  16.289 -1.0580 -1.0746  0.6934
19962LIG    H1381334   2.080   1.999  16.400 -0.2283 -1.8036  0.1107
19962LIG    H1481335   1.537   1.874  15.992 -0.2742 -0.1287 -0.4089
19962LIG    H1581336   1.673   1.990  15.985 -0.2065 -0.8602  0.4462
19962LIG    H1681337   1.362   1.909  15.837  1.1450 -0.5843  0.7639
19962LIG    H1781338   1.387   2.012  15.698 -0.2925  0.1549  0.4646
19962LIG    H1881339   1.644   2.037  15.620  0.2311  3.8470 -0.9326
19962LIG    H1981340   1.774   2.034  15.746  1.0600  1.4089 -3.5825
19962LIG    H2081341   1.946   1.615  16.068 -2.2097 -0.8682  0.9691
19962LIG    H2181342   1.446   2.112  15.970 -0.8391 -0.9502  0.8436
19962LIG    H2281343   1.301   2.139  15.867 -0.0762  0.4383  1.1937
19962LIG    H2381344   1.693   2.261  15.705  0.4174 -0.2361 -1.0781
19962LIG    H2481345   1.690   2.208  15.877 -0.2442  1.4299 -0.3288
19962LIG    H2581346   1.475   2.321  15.851  0.6508 -0.0698  0.8355
19962LIG    H2681347   1.452   2.243  15.687  0.5810  2.0379 -0.3635
19962LIG    H2781348   1.781   1.440  16.008  2.6363  3.4626  1.9116
19962LIG    H2881349   1.574   1.773  16.187  0.1600 -0.0448 -1.3671
19962LIG    H2981350   1.614   1.285  16.131 -1.8754 -0.5072  0.2350
19962LIG    H3081351   1.409   1.624  16.295 -0.8070 -1.5489  0.4661
19962LIG    H3181352   1.439   1.370  16.265  0.3047 -1.0550 -1.0220
   6.78449   6.78449  17.22703
